L1P2 short trajectory practice
 2550
    1Li+     Li    1   1.279   5.083   1.414
    2Li+     Li    2   3.960   0.689   4.991
    3Li+     Li    3   1.476   3.215   0.474
    4Li+     Li    4   3.118   4.484   5.664
    5Li+     Li    5   0.498   3.031   3.926
    6Li+     Li    6   6.003   2.434   6.292
    7Li+     Li    7   3.001   2.634   1.853
    8Li+     Li    8   4.170   3.091   3.847
    9Li+     Li    9   0.162   5.027   3.440
   10Li+     Li   10   1.808   0.250   0.686
   11Li+     Li   11   4.143   5.803   2.664
   12Li+     Li   12   3.671   0.918   5.835
   13Li+     Li   13   2.324   2.081   2.618
   14Li+     Li   14   1.377   4.710   1.653
   15Li+     Li   15   1.103   4.819   6.234
   16Li+     Li   16   1.263   4.684   5.115
   17Li+     Li   17   2.748   5.903   1.554
   18Li+     Li   18   3.275   5.383   0.331
   19Li+     Li   19   4.646   1.525   4.416
   20Li+     Li   20   0.161   5.919   5.503
   21Li+     Li   21   5.727   5.342   3.575
   22Li+     Li   22   1.611   6.212   2.378
   23Li+     Li   23   6.487   2.720   1.758
   24Li+     Li   24   5.745   6.591   5.183
   25Li+     Li   25   3.894   3.190   1.486
   26Li+     Li   26   3.189   5.483   1.485
   27Li+     Li   27   1.806   2.737   3.335
   28Li+     Li   28   4.978   0.312   5.292
   29Li+     Li   29   4.193   6.751   4.575
   30Li+     Li   30   4.384   5.982   0.581
   31Li+     Li   31   5.748   5.539   6.333
   32Li+     Li   32   4.909   0.554   1.400
   33Li+     Li   33   4.650   0.832   6.258
   34Li+     Li   34   3.632   0.547   1.127
   35Li+     Li   35   6.738   1.162   6.185
   36Li+     Li   36   5.837   3.925   1.392
   37Li+     Li   37   6.348   2.414   1.753
   38Li+     Li   38   4.886   2.396   4.587
   39Li+     Li   39   2.667   0.287   3.398
   40Li+     Li   40   1.030   1.937   0.638
   41Li+     Li   41   1.715   6.395   0.760
   42Li+     Li   42   6.170   5.363   3.023
   43Li+     Li   43   2.581   3.735   5.053
   44Li+     Li   44   4.362   6.075   5.249
   45Li+     Li   45   5.070   6.226   4.009
   46Li+     Li   46   4.086   1.069   3.040
   47Li+     Li   47   2.054   4.475   2.229
   48Li+     Li   48   6.089   5.969   5.626
   49Li+     Li   49   1.162   6.438   5.423
   50Li+     Li   50   0.662   6.203   4.729
   51Li+     Li   51   3.473   5.744   6.688
   52Li+     Li   52   4.460   1.185   0.315
   53Li+     Li   53   4.626   0.576   5.743
   54Li+     Li   54   0.731   0.999   2.557
   55Li+     Li   55   2.468   3.827   0.515
   56Li+     Li   56   3.178   2.035   5.625
   57Li+     Li   57   4.584   4.156   6.304
   58Li+     Li   58   5.880   6.690   3.167
   59Li+     Li   59   1.716   1.798   4.548
   60Li+     Li   60   2.956   5.810   5.573
   61Li+     Li   61   1.984   2.522   3.966
   62Li+     Li   62   5.733   3.134   5.479
   63Li+     Li   63   2.392   6.670   6.566
   64Li+     Li   64   3.816   1.033   5.436
   65Li+     Li   65   3.019   3.567   3.907
   66Li+     Li   66   0.784   3.999   5.622
   67Li+     Li   67   1.309   5.243   2.097
   68Li+     Li   68   6.182   3.436   2.291
   69Li+     Li   69   2.338   6.464   1.015
   70Li+     Li   70   1.516   1.416   4.591
   71Li+     Li   71   6.142   0.609   2.133
   72Li+     Li   72   3.571   4.229   1.603
   73Li+     Li   73   2.630   1.548   2.369
   74Li+     Li   74   3.044   4.824   0.778
   75Li+     Li   75   1.545   4.981   0.724
   76c3c     N4   76   0.485   2.843   5.597
   76c3c     C1   77   0.629   2.867   5.616
   76c3c     C1   78   0.408   2.945   5.673
   76c3c     C2   79   0.647   2.984   5.713
   76c3c     C2   80   0.507   3.033   5.749
   76c3c     C1   81   0.452   2.857   5.455
   76c3c     C1   82   0.449   2.709   5.643
   76c3c     H1   83   0.680   2.887   5.522
   76c3c     H1   84   0.681   2.779   5.653
   76c3c     H1   85   0.345   3.005   5.608
   76c3c     H1   86   0.337   2.900   5.742
   76c3c     HC   87   0.705   3.062   5.665
   76c3c     HC   88   0.702   2.952   5.802
   76c3c     HC   89   0.493   3.137   5.720
   76c3c     HC   90   0.490   3.027   5.856
   76c3c     H1   91   0.508   2.784   5.395
   76c3c     H1   92   0.346   2.841   5.437
   76c3c     H1   93   0.478   2.956   5.419
   76c3c     H1   94   0.343   2.690   5.625
   76c3c     H1   95   0.503   2.634   5.584
   76c3c     C2   96   0.480   2.688   5.792
   76c3c     HC   97   0.427   2.760   5.856
   76c3c     HC   98   0.586   2.704   5.815
   76c3c     CT   99   0.443   2.550   5.838
   76c3c     HC  100   0.499   2.476   5.781
   76c3c     HC  101   0.336   2.533   5.823
   76c3c     HC  102   0.466   2.539   5.944
   77c3c     N4  103   3.653   3.824   3.505
   77c3c     C1  104   3.723   3.747   3.609
   77c3c     C1  105   3.665   3.968   3.534
   77c3c     C2  106   3.777   3.845   3.714
   77c3c     C2  107   3.740   3.985   3.667
   77c3c     C1  108   3.716   3.797   3.376
   77c3c     C1  109   3.512   3.785   3.499
   77c3c     H1  110   3.804   3.687   3.568
   77c3c     H1  111   3.660   3.672   3.656
   77c3c     H1  112   3.716   4.022   3.455
   77c3c     H1  113   3.568   4.018   3.539
   77c3c     HC  114   3.885   3.833   3.723
   77c3c     HC  115   3.734   3.824   3.812
   77c3c     HC  116   3.829   4.046   3.651
   77c3c     HC  117   3.678   4.036   3.740
   77c3c     H1  118   3.711   3.691   3.350
   77c3c     H1  119   3.667   3.853   3.296
   77c3c     H1  120   3.821   3.825   3.377
   77c3c     H1  121   3.461   3.839   3.420
   77c3c     H1  122   3.503   3.679   3.474
   77c3c     C2  123   3.439   3.811   3.633
   77c3c     HC  124   3.444   3.916   3.662
   77c3c     HC  125   3.486   3.757   3.716
   77c3c     CT  126   3.295   3.771   3.627
   77c3c     HC  127   3.287   3.664   3.604
   77c3c     HC  128   3.244   3.828   3.549
   77c3c     HC  129   3.247   3.791   3.723
   78c3c     N4  130   6.459   2.233   4.015
   78c3c     C1  131   6.532   2.346   3.956
   78c3c     C1  132   6.509   2.208   4.152
   78c3c     C2  133   6.639   2.392   4.056
   78c3c     C2  134   6.624   2.304   4.180
   78c3c     C1  135   6.317   2.267   4.023
   78c3c     C1  136   6.475   2.113   3.932
   78c3c     H1  137   6.466   2.429   3.931
   78c3c     H1  138   6.579   2.321   3.861
   78c3c     H1  139   6.431   2.219   4.227
   78c3c     H1  140   6.542   2.105   4.166
   78c3c     HC  141   6.624   2.497   4.080
   78c3c     HC  142   6.739   2.382   4.013
   78c3c     HC  143   6.601   2.364   4.268
   78c3c     HC  144   6.716   2.249   4.201
   78c3c     H1  145   6.276   2.288   3.924
   78c3c     H1  146   6.259   2.187   4.067
   78c3c     H1  147   6.303   2.356   4.084
   78c3c     H1  148   6.418   2.030   3.974
   78c3c     H1  149   6.435   2.131   3.833
   78c3c     C2  150   6.623   2.071   3.921
   78c3c     HC  151   6.668   2.050   4.018
   78c3c     HC  152   6.685   2.150   3.878
   78c3c     CT  153   6.639   1.948   3.835
   78c3c     HC  154   6.601   1.967   3.735
   78c3c     HC  155   6.583   1.865   3.880
   78c3c     HC  156   6.744   1.921   3.829
   79c3c     N4  157   2.833   0.731   5.926
   79c3c     C1  158   2.724   0.825   5.892
   79c3c     C1  159   2.916   0.708   5.806
   79c3c     C2  160   2.733   0.859   5.744
   79c3c     C2  161   2.855   0.785   5.689
   79c3c     C1  162   2.916   0.790   6.030
   79c3c     C1  163   2.777   0.604   5.974
   79c3c     H1  164   2.729   0.916   5.952
   79c3c     H1  165   2.625   0.785   5.916
   79c3c     H1  166   3.020   0.738   5.822
   79c3c     H1  167   2.925   0.602   5.781
   79c3c     HC  168   2.744   0.967   5.731
   79c3c     HC  169   2.642   0.829   5.691
   79c3c     HC  170   2.929   0.854   5.648
   79c3c     HC  171   2.827   0.717   5.609
   79c3c     H1  172   2.858   0.810   6.120
   79c3c     H1  173   2.999   0.724   6.057
   79c3c     H1  174   2.958   0.885   5.997
   79c3c     H1  175   2.858   0.536   6.002
   79c3c     H1  176   2.718   0.621   6.064
   79c3c     C2  177   2.688   0.536   5.868
   79c3c     HC  178   2.742   0.516   5.776
   79c3c     HC  179   2.605   0.600   5.837
   79c3c     CT  180   2.632   0.406   5.918
   79c3c     HC  181   2.571   0.425   6.007
   79c3c     HC  182   2.713   0.338   5.943
   79c3c     HC  183   2.570   0.361   5.841
   80c3c     N4  184   2.571   6.382   2.402
   80c3c     C1  185   2.473   6.303   2.325
   80c3c     C1  186   2.707   6.354   2.351
   80c3c     C2  187   2.549   6.215   2.226
   80c3c     C2  188   2.697   6.248   2.242
   80c3c     C1  189   2.542   6.524   2.384
   80c3c     C1  190   2.563   6.349   2.545
   80c3c     H1  191   2.401   6.366   2.274
   80c3c     H1  192   2.410   6.241   2.389
   80c3c     H1  193   2.755   6.444   2.313
   80c3c     H1  194   2.775   6.321   2.430
   80c3c     HC  195   2.514   6.237   2.125
   80c3c     HC  196   2.529   6.110   2.245
   80c3c     HC  197   2.739   6.286   2.149
   80c3c     HC  198   2.754   6.159   2.269
   80c3c     H1  199   2.442   6.549   2.419
   80c3c     H1  200   2.613   6.586   2.438
   80c3c     H1  201   2.548   6.551   2.278
   80c3c     H1  202   2.633   6.410   2.602
   80c3c     H1  203   2.464   6.373   2.583
   80c3c     C2  204   2.593   6.200   2.571
   80c3c     HC  205   2.692   6.171   2.536
   80c3c     HC  206   2.524   6.134   2.518
   80c3c     CT  207   2.584   6.167   2.717
   80c3c     HC  208   2.483   6.189   2.754
   80c3c     HC  209   2.656   6.227   2.773
   80c3c     HC  210   2.605   6.061   2.733
   81c3c     N4  211   5.252   1.777   1.561
   81c3c     C1  212   5.294   1.880   1.464
   81c3c     C1  213   5.315   1.649   1.526
   81c3c     C2  214   5.382   1.814   1.358
   81c3c     C2  215   5.396   1.667   1.397
   81c3c     C1  216   5.297   1.817   1.694
   81c3c     C1  217   5.106   1.764   1.561
   81c3c     H1  218   5.347   1.962   1.513
   81c3c     H1  219   5.210   1.930   1.417
   81c3c     H1  220   5.379   1.611   1.606
   81c3c     H1  221   5.243   1.568   1.513
   81c3c     HC  222   5.480   1.863   1.356
   81c3c     HC  223   5.338   1.825   1.259
   81c3c     HC  224   5.500   1.641   1.415
   81c3c     HC  225   5.359   1.602   1.319
   81c3c     H1  226   5.253   1.912   1.724
   81c3c     H1  227   5.268   1.742   1.769
   81c3c     H1  228   5.405   1.827   1.697
   81c3c     H1  229   5.075   1.690   1.635
   81c3c     H1  230   5.059   1.858   1.590
   81c3c     C2  231   5.053   1.722   1.422
   81c3c     HC  232   5.094   1.627   1.389
   81c3c     HC  233   5.079   1.793   1.344
   81c3c     CT  234   4.903   1.708   1.423
   81c3c     HC  235   4.857   1.804   1.450
   81c3c     HC  236   4.873   1.632   1.495
   81c3c     HC  237   4.868   1.679   1.324
   82c3c     N4  238   5.517   1.989   0.706
   82c3c     C1  239   5.646   2.010   0.637
   82c3c     C1  240   5.524   2.049   0.841
   82c3c     C2  241   5.742   2.080   0.733
   82c3c     C2  242   5.664   2.105   0.862
   82c3c     C1  243   5.412   2.056   0.630
   82c3c     C1  244   5.487   1.846   0.716
   82c3c     H1  245   5.635   2.068   0.546
   82c3c     H1  246   5.690   1.917   0.601
   82c3c     H1  247   5.449   2.128   0.854
   82c3c     H1  248   5.498   1.978   0.919
   82c3c     HC  249   5.776   2.173   0.689
   82c3c     HC  250   5.830   2.018   0.751
   82c3c     HC  251   5.659   2.211   0.885
   82c3c     HC  252   5.712   2.056   0.947
   82c3c     H1  253   5.404   2.016   0.529
   82c3c     H1  254   5.314   2.045   0.678
   82c3c     H1  255   5.432   2.163   0.621
   82c3c     H1  256   5.390   1.832   0.763
   82c3c     H1  257   5.479   1.803   0.616
   82c3c     C2  258   5.595   1.770   0.795
   82c3c     HC  259   5.606   1.808   0.897
   82c3c     HC  260   5.694   1.780   0.750
   82c3c     CT  261   5.563   1.623   0.804
   82c3c     HC  262   5.557   1.580   0.704
   82c3c     HC  263   5.467   1.609   0.855
   82c3c     HC  264   5.641   1.572   0.861
   83c3c     N4  265   4.062   1.415   2.423
   83c3c     C1  266   3.925   1.391   2.373
   83c3c     C1  267   4.139   1.490   2.322
   83c3c     C2  268   3.915   1.446   2.231
   83c3c     C2  269   4.051   1.509   2.198
   83c3c     C1  270   4.054   1.496   2.545
   83c3c     C1  271   4.128   1.288   2.454
   83c3c     H1  272   3.850   1.437   2.437
   83c3c     H1  273   3.898   1.286   2.374
   83c3c     H1  274   4.173   1.586   2.359
   83c3c     H1  275   4.232   1.440   2.295
   83c3c     HC  276   3.836   1.520   2.225
   83c3c     HC  277   3.891   1.367   2.160
   83c3c     HC  278   4.041   1.615   2.176
   83c3c     HC  279   4.096   1.462   2.111
   83c3c     H1  280   3.996   1.445   2.622
   83c3c     H1  281   4.153   1.518   2.585
   83c3c     H1  282   4.005   1.591   2.525
   83c3c     H1  283   4.228   1.306   2.494
   83c3c     H1  284   4.072   1.235   2.531
   83c3c     C2  285   4.140   1.198   2.329
   83c3c     HC  286   4.196   1.246   2.249
   83c3c     HC  287   4.042   1.175   2.285
   83c3c     CT  288   4.208   1.068   2.361
   83c3c     HC  289   4.150   1.014   2.437
   83c3c     HC  290   4.308   1.087   2.399
   83c3c     HC  291   4.214   1.007   2.271
   84c3c     N4  292   5.330   5.233   3.100
   84c3c     C1  293   5.361   5.174   3.231
   84c3c     C1  294   5.432   5.335   3.066
   84c3c     C2  295   5.483   5.245   3.288
   84c3c     C2  296   5.528   5.347   3.184
   84c3c     C1  297   5.334   5.128   2.998
   84c3c     C1  298   5.196   5.293   3.101
   84c3c     H1  299   5.378   5.067   3.224
   84c3c     H1  300   5.277   5.181   3.300
   84c3c     H1  301   5.486   5.310   2.975
   84c3c     H1  302   5.388   5.432   3.043
   84c3c     HC  303   5.562   5.172   3.309
   84c3c     HC  304   5.459   5.294   3.383
   84c3c     HC  305   5.630   5.327   3.150
   84c3c     HC  306   5.527   5.448   3.224
   84c3c     H1  307   5.261   5.049   3.019
   84c3c     H1  308   5.313   5.167   2.899
   84c3c     H1  309   5.433   5.081   2.995
   84c3c     H1  310   5.173   5.334   3.002
   84c3c     H1  311   5.121   5.218   3.122
   84c3c     C2  312   5.186   5.406   3.206
   84c3c     HC  313   5.258   5.486   3.188
   84c3c     HC  314   5.207   5.371   3.307
   84c3c     CT  315   5.048   5.467   3.206
   84c3c     HC  316   4.974   5.391   3.230
   84c3c     HC  317   5.026   5.510   3.108
   84c3c     HC  318   5.044   5.547   3.281
   85c3c     N4  319   1.029   1.627   5.611
   85c3c     C1  320   1.026   1.774   5.604
   85c3c     C1  321   1.169   1.581   5.607
   85c3c     C2  322   1.169   1.825   5.588
   85c3c     C2  323   1.260   1.702   5.590
   85c3c     C1  324   0.969   1.585   5.737
   85c3c     C1  325   0.953   1.569   5.500
   85c3c     H1  326   0.980   1.819   5.692
   85c3c     H1  327   0.964   1.812   5.522
   85c3c     H1  328   1.196   1.526   5.697
   85c3c     H1  329   1.187   1.509   5.528
   85c3c     HC  330   1.193   1.893   5.670
   85c3c     HC  331   1.181   1.881   5.495
   85c3c     HC  332   1.331   1.707   5.672
   85c3c     HC  333   1.318   1.695   5.498
   85c3c     H1  334   0.865   1.619   5.745
   85c3c     H1  335   0.970   1.476   5.748
   85c3c     H1  336   1.024   1.627   5.822
   85c3c     H1  337   0.953   1.461   5.507
   85c3c     H1  338   0.849   1.601   5.505
   85c3c     C2  339   1.012   1.610   5.363
   85c3c     HC  340   1.116   1.580   5.352
   85c3c     HC  341   1.013   1.719   5.349
   85c3c     CT  342   0.933   1.550   5.249
   85c3c     HC  343   0.830   1.585   5.253
   85c3c     HC  344   0.936   1.442   5.256
   85c3c     HC  345   0.978   1.582   5.155
   86c3c     N4  346   1.202   6.236   3.263
   86c3c     C1  347   1.078   6.316   3.257
   86c3c     C1  348   1.318   6.325   3.262
   86c3c     C2  349   1.117   6.463   3.245
   86c3c     C2  350   1.269   6.469   3.248
   86c3c     C1  351   1.202   6.159   3.387
   86c3c     C1  352   1.207   6.143   3.149
   86c3c     H1  353   1.015   6.300   3.345
   86c3c     H1  354   1.013   6.287   3.175
   86c3c     H1  355   1.379   6.314   3.351
   86c3c     H1  356   1.389   6.302   3.182
   86c3c     HC  357   1.074   6.519   3.329
   86c3c     HC  358   1.077   6.506   3.153
   86c3c     HC  359   1.305   6.528   3.333
   86c3c     HC  360   1.308   6.515   3.157
   86c3c     H1  361   1.117   6.092   3.393
   86c3c     H1  362   1.293   6.098   3.396
   86c3c     H1  363   1.198   6.225   3.473
   86c3c     H1  364   1.297   6.082   3.155
   86c3c     H1  365   1.122   6.075   3.152
   86c3c     C2  366   1.207   6.219   3.014
   86c3c     HC  367   1.291   6.288   3.005
   86c3c     HC  368   1.118   6.281   3.002
   86c3c     CT  369   1.213   6.123   2.898
   86c3c     HC  370   1.126   6.057   2.900
   86c3c     HC  371   1.304   6.064   2.903
   86c3c     HC  372   1.212   6.180   2.804
   87c3c     N4  373   4.536   3.077   0.987
   87c3c     C1  374   4.574   3.179   0.888
   87c3c     C1  375   4.588   2.946   0.946
   87c3c     C2  376   4.648   3.109   0.773
   87c3c     C2  377   4.657   2.961   0.811
   87c3c     C1  378   4.595   3.113   1.116
   87c3c     C1  379   4.390   3.072   1.001
   87c3c     H1  380   4.636   3.257   0.931
   87c3c     H1  381   4.488   3.234   0.849
   87c3c     H1  382   4.657   2.904   1.019
   87c3c     H1  383   4.510   2.869   0.940
   87c3c     HC  384   4.747   3.153   0.762
   87c3c     HC  385   4.595   3.123   0.679
   87c3c     HC  386   4.761   2.929   0.818
   87c3c     HC  387   4.609   2.899   0.735
   87c3c     H1  388   4.560   3.210   1.150
   87c3c     H1  389   4.570   3.040   1.193
   87c3c     H1  390   4.704   3.117   1.109
   87c3c     H1  391   4.362   2.999   1.078
   87c3c     H1  392   4.352   3.168   1.035
   87c3c     C2  393   4.321   3.034   0.868
   87c3c     HC  394   4.354   2.938   0.831
   87c3c     HC  395   4.344   3.105   0.788
   87c3c     CT  396   4.171   3.029   0.884
   87c3c     HC  397   4.134   3.127   0.915
   87c3c     HC  398   4.144   2.954   0.958
   87c3c     HC  399   4.126   3.002   0.788
   88c3c     N4  400   3.811   5.029   2.023
   88c3c     C1  401   3.953   5.062   2.043
   88c3c     C1  402   3.774   4.915   2.108
   88c3c     C2  403   4.013   4.960   2.140
   88c3c     C2  404   3.899   4.866   2.181
   88c3c     C1  405   3.730   5.145   2.062
   88c3c     C1  406   3.785   4.998   1.882
   88c3c     H1  407   3.967   5.163   2.081
   88c3c     H1  408   4.010   5.063   1.950
   88c3c     H1  409   3.696   4.940   2.179
   88c3c     H1  410   3.730   4.833   2.051
   88c3c     HC  411   4.055   5.011   2.226
   88c3c     HC  412   4.094   4.905   2.092
   88c3c     HC  413   3.883   4.870   2.288
   88c3c     HC  414   3.922   4.763   2.155
   88c3c     H1  415   3.755   5.233   2.003
   88c3c     H1  416   3.624   5.125   2.050
   88c3c     H1  417   3.748   5.170   2.167
   88c3c     H1  418   3.679   4.978   1.867
   88c3c     H1  419   3.809   5.085   1.820
   88c3c     C2  420   3.868   4.877   1.834
   88c3c     HC  421   3.846   4.787   1.892
   88c3c     HC  422   3.975   4.893   1.845
   88c3c     CT  423   3.840   4.846   1.689
   88c3c     HC  424   3.867   4.932   1.627
   88c3c     HC  425   3.735   4.823   1.675
   88c3c     HC  426   3.900   4.760   1.659
   89c3c     N4  427   5.237   4.649   3.922
   89c3c     C1  428   5.200   4.648   4.064
   89c3c     C1  429   5.119   4.685   3.841
   89c3c     C2  430   5.051   4.678   4.076
   89c3c     C2  431   4.999   4.701   3.934
   89c3c     C1  432   5.341   4.750   3.901
   89c3c     C1  433   5.288   4.518   3.881
   89c3c     H1  434   5.258   4.720   4.122
   89c3c     H1  435   5.224   4.554   4.113
   89c3c     H1  436   5.135   4.777   3.784
   89c3c     H1  437   5.097   4.612   3.764
   89c3c     HC  438   5.036   4.766   4.139
   89c3c     HC  439   4.998   4.595   4.124
   89c3c     HC  440   4.958   4.802   3.924
   89c3c     HC  441   4.921   4.631   3.909
   89c3c     H1  442   5.430   4.728   3.960
   89c3c     H1  443   5.371   4.755   3.796
   89c3c     H1  444   5.306   4.849   3.930
   89c3c     H1  445   5.319   4.520   3.777
   89c3c     H1  446   5.377   4.493   3.939
   89c3c     C2  447   5.183   4.407   3.901
   89c3c     HC  448   5.092   4.426   3.844
   89c3c     HC  449   5.150   4.399   4.005
   89c3c     CT  450   5.236   4.273   3.859
   89c3c     HC  451   5.323   4.247   3.919
   89c3c     HC  452   5.264   4.275   3.754
   89c3c     HC  453   5.159   4.197   3.875
   90c3c     N4  454   3.168   4.147   4.177
   90c3c     C1  455   3.304   4.116   4.129
   90c3c     C1  456   3.133   4.055   4.286
   90c3c     C2  457   3.356   3.994   4.205
   90c3c     C2  458   3.247   3.955   4.305
   90c3c     C1  459   3.167   4.284   4.228
   90c3c     C1  460   3.071   4.136   4.067
   90c3c     H1  461   3.372   4.200   4.141
   90c3c     H1  462   3.307   4.097   4.021
   90c3c     H1  463   3.113   4.108   4.379
   90c3c     H1  464   3.039   4.002   4.268
   90c3c     HC  465   3.449   4.019   4.256
   90c3c     HC  466   3.378   3.912   4.137
   90c3c     HC  467   3.284   3.961   4.407
   90c3c     HC  468   3.213   3.853   4.289
   90c3c     H1  469   3.194   4.356   4.151
   90c3c     H1  470   3.069   4.311   4.267
   90c3c     H1  471   3.238   4.295   4.310
   90c3c     H1  472   2.972   4.163   4.103
   90c3c     H1  473   3.096   4.207   3.988
   90c3c     C2  474   3.068   3.993   4.009
   90c3c     HC  475   3.042   3.918   4.084
   90c3c     HC  476   3.165   3.962   3.970
   90c3c     CT  477   2.968   3.982   3.896
   90c3c     HC  478   2.995   4.051   3.817
   90c3c     HC  479   2.868   4.007   3.933
   90c3c     HC  480   2.968   3.880   3.857
   91c3c     N4  481   1.840   2.106   4.052
   91c3c     C1  482   1.738   2.040   3.969
   91c3c     C1  483   1.836   2.051   4.189
   91c3c     C2  484   1.659   1.944   4.058
   91c3c     C2  485   1.721   1.951   4.197
   91c3c     C1  486   1.972   2.079   3.994
   91c3c     C1  487   1.819   2.251   4.055
   91c3c     H1  488   1.781   1.987   3.884
   91c3c     H1  489   1.670   2.111   3.922
   91c3c     H1  490   1.930   2.004   4.216
   91c3c     H1  491   1.824   2.128   4.264
   91c3c     HC  492   1.665   1.843   4.016
   91c3c     HC  493   1.553   1.971   4.060
   91c3c     HC  494   1.760   1.853   4.227
   91c3c     HC  495   1.648   1.982   4.271
   91c3c     H1  496   1.980   2.116   3.892
   91c3c     H1  497   2.052   2.124   4.053
   91c3c     H1  498   1.991   1.971   3.991
   91c3c     H1  499   1.897   2.299   4.114
   91c3c     H1  500   1.825   2.291   3.954
   91c3c     C2  501   1.681   2.287   4.115
   91c3c     HC  502   1.669   2.250   4.217
   91c3c     HC  503   1.598   2.242   4.059
   91c3c     CT  504   1.659   2.436   4.117
   91c3c     HC  505   1.663   2.475   4.016
   91c3c     HC  506   1.736   2.483   4.178
   91c3c     HC  507   1.561   2.457   4.160
   92c3c     N4  508   1.568   0.685   5.441
   92c3c     C1  509   1.693   0.626   5.491
   92c3c     C1  510   1.460   0.663   5.539
   92c3c     C2  511   1.663   0.557   5.625
   92c3c     C2  512   1.516   0.580   5.655
   92c3c     C1  513   1.587   0.829   5.423
   92c3c     C1  514   1.532   0.626   5.312
   92c3c     H1  515   1.771   0.701   5.504
   92c3c     H1  516   1.737   0.555   5.421
   92c3c     H1  517   1.419   0.757   5.575
   92c3c     H1  518   1.373   0.614   5.495
   92c3c     HC  519   1.727   0.599   5.703
   92c3c     HC  520   1.686   0.450   5.619
   92c3c     HC  521   1.502   0.635   5.748
   92c3c     HC  522   1.462   0.486   5.664
   92c3c     H1  523   1.667   0.850   5.352
   92c3c     H1  524   1.497   0.878   5.387
   92c3c     H1  525   1.614   0.876   5.518
   92c3c     H1  526   1.441   0.672   5.273
   92c3c     H1  527   1.610   0.645   5.238
   92c3c     C2  528   1.510   0.473   5.323
   92c3c     HC  529   1.431   0.448   5.394
   92c3c     HC  530   1.598   0.421   5.360
   92c3c     CT  531   1.473   0.413   5.190
   92c3c     HC  532   1.553   0.430   5.118
   92c3c     HC  533   1.381   0.458   5.153
   92c3c     HC  534   1.458   0.306   5.202
   93c3c     N4  535   2.581   5.296   0.913
   93c3c     C1  536   2.449   5.303   0.978
   93c3c     C1  537   2.569   5.342   0.773
   93c3c     C2  538   2.346   5.347   0.874
   93c3c     C2  539   2.422   5.372   0.744
   93c3c     C1  540   2.673   5.386   0.984
   93c3c     C1  541   2.634   5.160   0.918
   93c3c     H1  542   2.448   5.370   1.064
   93c3c     H1  543   2.419   5.208   1.022
   93c3c     H1  544   2.631   5.429   0.753
   93c3c     H1  545   2.607   5.268   0.702
   93c3c     HC  546   2.296   5.438   0.908
   93c3c     HC  547   2.269   5.271   0.861
   93c3c     HC  548   2.412   5.475   0.711
   93c3c     HC  549   2.385   5.308   0.664
   93c3c     H1  550   2.683   5.356   1.088
   93c3c     H1  551   2.772   5.385   0.938
   93c3c     H1  552   2.635   5.488   0.982
   93c3c     H1  553   2.733   5.156   0.873
   93c3c     H1  554   2.645   5.127   1.021
   93c3c     C2  555   2.541   5.060   0.845
   93c3c     HC  556   2.527   5.086   0.740
   93c3c     HC  557   2.441   5.058   0.887
   93c3c     CT  558   2.596   4.920   0.850
   93c3c     HC  559   2.605   4.888   0.954
   93c3c     HC  560   2.694   4.917   0.802
   93c3c     HC  561   2.529   4.853   0.798
   94c3c     N4  562   4.478   3.936   0.787
   94c3c     C1  563   4.498   3.979   0.926
   94c3c     C1  564   4.335   3.945   0.752
   94c3c     C2  565   4.361   4.011   0.987
   94c3c     C2  566   4.258   3.989   0.877
   94c3c     C1  567   4.553   4.024   0.698
   94c3c     C1  568   4.526   3.798   0.769
   94c3c     H1  569   4.564   4.066   0.933
   94c3c     H1  570   4.550   3.905   0.986
   94c3c     H1  571   4.317   4.013   0.670
   94c3c     H1  572   4.295   3.851   0.715
   94c3c     HC  573   4.360   4.114   1.022
   94c3c     HC  574   4.342   3.947   1.073
   94c3c     HC  575   4.203   4.081   0.855
   94c3c     HC  576   4.185   3.914   0.906
   94c3c     H1  577   4.660   4.022   0.721
   94c3c     H1  578   4.540   3.997   0.594
   94c3c     H1  579   4.519   4.127   0.709
   94c3c     H1  580   4.514   3.768   0.665
   94c3c     H1  581   4.633   3.792   0.791
   94c3c     C2  582   4.450   3.699   0.860
   94c3c     HC  583   4.343   3.699   0.841
   94c3c     HC  584   4.460   3.724   0.965
   94c3c     CT  585   4.500   3.558   0.841
   94c3c     HC  586   4.606   3.553   0.865
   94c3c     HC  587   4.485   3.528   0.737
   94c3c     HC  588   4.444   3.491   0.906
   95c3c     N4  589   5.875   6.139   0.538
   95c3c     C1  590   5.751   6.060   0.527
   95c3c     C1  591   5.860   6.236   0.648
   95c3c     C2  592   5.650   6.112   0.629
   95c3c     C2  593   5.719   6.224   0.706
   95c3c     C1  594   5.986   6.050   0.569
   95c3c     C1  595   5.902   6.209   0.412
   95c3c     H1  596   5.770   5.953   0.543
   95c3c     H1  597   5.708   6.062   0.427
   95c3c     H1  598   5.935   6.222   0.726
   95c3c     H1  599   5.879   6.339   0.616
   95c3c     HC  600   5.620   6.031   0.696
   95c3c     HC  601   5.560   6.148   0.579
   95c3c     HC  602   5.725   6.201   0.812
   95c3c     HC  603   5.665   6.318   0.696
   95c3c     H1  604   6.000   5.975   0.491
   95c3c     H1  605   6.079   6.105   0.580
   95c3c     H1  606   5.968   5.997   0.663
   95c3c     H1  607   5.995   6.265   0.420
   95c3c     H1  608   5.916   6.136   0.332
   95c3c     C2  609   5.788   6.305   0.374
   95c3c     HC  610   5.771   6.381   0.450
   95c3c     HC  611   5.692   6.254   0.363
   95c3c     CT  612   5.817   6.376   0.244
   95c3c     HC  613   5.828   6.303   0.164
   95c3c     HC  614   5.909   6.434   0.254
   95c3c     HC  615   5.735   6.443   0.220
   96c3c     N4  616   5.547   1.791   6.263
   96c3c     C1  617   5.593   1.889   6.163
   96c3c     C1  618   5.426   1.842   6.329
   96c3c     C2  619   5.502   2.012   6.169
   96c3c     C2  620   5.396   1.982   6.275
   96c3c     C1  621   5.514   1.666   6.194
   96c3c     C1  622   5.653   1.766   6.361
   96c3c     H1  623   5.593   1.848   6.062
   96c3c     H1  624   5.697   1.918   6.177
   96c3c     H1  625   5.340   1.777   6.314
   96c3c     H1  626   5.436   1.845   6.438
   96c3c     HC  627   5.457   2.029   6.072
   96c3c     HC  628   5.559   2.101   6.195
   96c3c     HC  629   5.296   1.984   6.232
   96c3c     HC  630   5.399   2.056   6.355
   96c3c     H1  631   5.601   1.625   6.142
   96c3c     H1  632   5.478   1.591   6.264
   96c3c     H1  633   5.436   1.682   6.120
   96c3c     H1  634   5.619   1.690   6.433
   96c3c     H1  635   5.741   1.725   6.312
   96c3c     C2  636   5.692   1.894   6.437
   96c3c     HC  637   5.607   1.939   6.490
   96c3c     HC  638   5.727   1.973   6.370
   96c3c     CT  639   5.800   1.867   6.539
   96c3c     HC  640   5.889   1.829   6.488
   96c3c     HC  641   5.765   1.794   6.611
   96c3c     HC  642   5.825   1.960   6.590
   97c3c     N4  643   5.114   3.440   4.121
   97c3c     C1  644   5.258   3.410   4.118
   97c3c     C1  645   5.093   3.585   4.121
   97c3c     C2  646   5.335   3.543   4.124
   97c3c     C2  647   5.230   3.654   4.125
   97c3c     C1  648   5.052   3.383   4.001
   97c3c     C1  649   5.052   3.380   4.240
   97c3c     H1  650   5.287   3.353   4.030
   97c3c     H1  651   5.290   3.346   4.200
   97c3c     H1  652   5.037   3.619   4.034
   97c3c     H1  653   5.032   3.619   4.204
   97c3c     HC  654   5.400   3.551   4.037
   97c3c     HC  655   5.398   3.547   4.212
   97c3c     HC  656   5.241   3.719   4.039
   97c3c     HC  657   5.240   3.715   4.215
   97c3c     H1  658   5.066   3.275   3.996
   97c3c     H1  659   4.945   3.403   3.998
   97c3c     H1  660   5.096   3.426   3.911
   97c3c     H1  661   4.945   3.398   4.240
   97c3c     H1  662   5.065   3.271   4.238
   97c3c     C2  663   5.113   3.435   4.370
   97c3c     HC  664   5.102   3.544   4.378
   97c3c     HC  665   5.221   3.418   4.377
   97c3c     CT  666   5.049   3.373   4.491
   97c3c     HC  667   5.064   3.266   4.490
   97c3c     HC  668   4.942   3.395   4.492
   97c3c     HC  669   5.094   3.415   4.581
   98c3c     N4  670   3.835   5.682   0.490
   98c3c     C1  671   3.915   5.703   0.368
   98c3c     C1  672   3.833   5.539   0.523
   98c3c     C2  673   3.960   5.567   0.315
   98c3c     C2  674   3.908   5.462   0.414
   98c3c     C1  675   3.898   5.754   0.600
   98c3c     C1  676   3.699   5.733   0.471
   98c3c     H1  677   4.001   5.767   0.385
   98c3c     H1  678   3.860   5.757   0.290
   98c3c     H1  679   3.877   5.518   0.620
   98c3c     H1  680   3.731   5.499   0.533
   98c3c     HC  681   4.068   5.564   0.309
   98c3c     HC  682   3.921   5.549   0.215
   98c3c     HC  683   3.989   5.406   0.458
   98c3c     HC  684   3.842   5.391   0.364
   98c3c     H1  685   3.904   5.861   0.580
   98c3c     H1  686   3.844   5.741   0.694
   98c3c     H1  687   4.000   5.719   0.616
   98c3c     H1  688   3.642   5.720   0.563
   98c3c     H1  689   3.701   5.840   0.451
   98c3c     C2  690   3.626   5.660   0.356
   98c3c     HC  691   3.620   5.552   0.372
   98c3c     HC  692   3.679   5.671   0.261
   98c3c     CT  693   3.486   5.712   0.337
   98c3c     HC  694   3.490   5.819   0.314
   98c3c     HC  695   3.429   5.697   0.429
   98c3c     HC  696   3.438   5.659   0.255
   99c3c     N4  697   1.998   3.283   2.887
   99c3c     C1  698   1.854   3.295   2.860
   99c3c     C1  699   2.055   3.417   2.908
   99c3c     C2  700   1.817   3.443   2.857
   99c3c     C2  701   1.944   3.521   2.887
   99c3c     C1  702   2.018   3.204   3.008
   99c3c     C1  703   2.065   3.216   2.774
   99c3c     H1  704   1.794   3.242   2.935
   99c3c     H1  705   1.824   3.247   2.767
   99c3c     H1  706   2.099   3.428   3.007
   99c3c     H1  707   2.139   3.438   2.841
   99c3c     HC  708   1.740   3.463   2.932
   99c3c     HC  709   1.776   3.471   2.760
   99c3c     HC  710   1.934   3.581   2.978
   99c3c     HC  711   1.969   3.588   2.806
   99c3c     H1  712   1.976   3.104   2.997
   99c3c     H1  713   2.124   3.193   3.032
   99c3c     H1  714   1.969   3.251   3.093
   99c3c     H1  715   2.171   3.205   2.796
   99c3c     H1  716   2.025   3.116   2.761
   99c3c     C2  717   2.048   3.295   2.643
   99c3c     HC  718   2.088   3.397   2.650
   99c3c     HC  719   1.943   3.308   2.616
   99c3c     CT  720   2.117   3.226   2.528
   99c3c     HC  721   2.075   3.127   2.514
   99c3c     HC  722   2.224   3.218   2.549
   99c3c     HC  723   2.103   3.285   2.437
  100c3c     N4  724   3.136   1.983   2.674
  100c3c     C1  725   3.234   2.007   2.782
  100c3c     C1  726   3.205   1.988   2.544
  100c3c     C2  727   3.370   2.035   2.719
  100c3c     C2  728   3.352   2.023   2.568
  100c3c     C1  729   3.078   1.850   2.692
  100c3c     C1  730   3.030   2.084   2.679
  100c3c     H1  731   3.240   1.923   2.851
  100c3c     H1  732   3.205   2.089   2.848
  100c3c     H1  733   3.197   1.894   2.490
  100c3c     H1  734   3.160   2.060   2.475
  100c3c     HC  735   3.443   1.963   2.756
  100c3c     HC  736   3.405   2.134   2.747
  100c3c     HC  737   3.416   1.945   2.527
  100c3c     HC  738   3.378   2.116   2.518
  100c3c     H1  739   3.027   1.842   2.788
  100c3c     H1  740   3.006   1.828   2.613
  100c3c     H1  741   3.155   1.774   2.689
  100c3c     H1  742   2.956   2.064   2.601
  100c3c     H1  743   2.977   2.078   2.774
  100c3c     C2  744   3.085   2.227   2.661
  100c3c     HC  745   3.138   2.239   2.567
  100c3c     HC  746   3.158   2.252   2.738
  100c3c     CT  747   2.974   2.329   2.666
  100c3c     HC  748   2.924   2.324   2.762
  100c3c     HC  749   2.902   2.310   2.586
  100c3c     HC  750   3.017   2.428   2.653
  101c3c     N4  751   4.577   5.020   5.487
  101c3c     C1  752   4.603   4.963   5.620
  101c3c     C1  753   4.437   4.994   5.449
  101c3c     C2  754   4.476   4.892   5.668
  101c3c     C2  755   4.371   4.911   5.559
  101c3c     C1  756   4.599   5.165   5.492
  101c3c     C1  757   4.668   4.961   5.388
  101c3c     H1  758   4.633   5.040   5.692
  101c3c     H1  759   4.687   4.895   5.621
  101c3c     H1  760   4.381   5.087   5.432
  101c3c     H1  761   4.428   4.943   5.353
  101c3c     HC  762   4.443   4.935   5.762
  101c3c     HC  763   4.496   4.786   5.685
  101c3c     HC  764   4.284   4.964   5.597
  101c3c     HC  765   4.337   4.816   5.520
  101c3c     H1  766   4.701   5.189   5.521
  101c3c     H1  767   4.579   5.211   5.395
  101c3c     H1  768   4.532   5.211   5.565
  101c3c     H1  769   4.651   5.006   5.290
  101c3c     H1  770   4.772   4.984   5.414
  101c3c     C2  771   4.650   4.808   5.378
  101c3c     HC  772   4.549   4.780   5.349
  101c3c     HC  773   4.668   4.758   5.473
  101c3c     CT  774   4.744   4.749   5.276
  101c3c     HC  775   4.848   4.769   5.305
  101c3c     HC  776   4.725   4.792   5.178
  101c3c     HC  777   4.729   4.641   5.271
  102c3c     N4  778   6.156   0.882   5.716
  102c3c     C1  779   6.120   1.014   5.769
  102c3c     C1  780   6.190   0.894   5.573
  102c3c     C2  781   6.123   1.115   5.654
  102c3c     C2  782   6.168   1.039   5.530
  102c3c     C1  783   6.274   0.833   5.788
  102c3c     C1  784   6.046   0.787   5.734
  102c3c     H1  785   6.185   1.046   5.850
  102c3c     H1  786   6.021   1.015   5.817
  102c3c     H1  787   6.293   0.864   5.552
  102c3c     H1  788   6.132   0.827   5.510
  102c3c     HC  789   6.192   1.196   5.678
  102c3c     HC  790   6.025   1.160   5.640
  102c3c     HC  791   6.260   1.080   5.490
  102c3c     HC  792   6.093   1.045   5.451
  102c3c     H1  793   6.254   0.824   5.895
  102c3c     H1  794   6.305   0.736   5.751
  102c3c     H1  795   6.357   0.902   5.776
  102c3c     H1  796   6.075   0.689   5.698
  102c3c     H1  797   6.023   0.776   5.840
  102c3c     C2  798   5.918   0.833   5.660
  102c3c     HC  799   5.935   0.845   5.553
  102c3c     HC  800   5.884   0.931   5.694
  102c3c     CT  801   5.806   0.735   5.679
  102c3c     HC  802   5.782   0.727   5.785
  102c3c     HC  803   5.834   0.638   5.640
  102c3c     HC  804   5.718   0.771   5.626
  103c3c     N4  805   6.567   5.807   4.442
  103c3c     C1  806   6.517   5.704   4.535
  103c3c     C1  807   6.651   5.902   4.515
  103c3c     C2  808   6.566   5.738   4.675
  103c3c     C2  809   6.651   5.864   4.663
  103c3c     C1  810   6.647   5.742   4.338
  103c3c     C1  811   6.454   5.876   4.378
  103c3c     H1  812   6.549   5.604   4.506
  103c3c     H1  813   6.408   5.695   4.533
  103c3c     H1  814   6.753   5.905   4.476
  103c3c     H1  815   6.618   6.005   4.502
  103c3c     HC  816   6.624   5.655   4.715
  103c3c     HC  817   6.481   5.754   4.743
  103c3c     HC  818   6.753   5.846   4.696
  103c3c     HC  819   6.610   5.945   4.724
  103c3c     H1  820   6.589   5.669   4.283
  103c3c     H1  821   6.687   5.814   4.268
  103c3c     H1  822   6.732   5.689   4.383
  103c3c     H1  823   6.491   5.950   4.307
  103c3c     H1  824   6.394   5.806   4.321
  103c3c     C2  825   6.365   5.947   4.482
  103c3c     HC  826   6.420   6.020   4.541
  103c3c     HC  827   6.323   5.878   4.555
  103c3c     CT  828   6.250   6.019   4.416
  103c3c     HC  829   6.188   5.947   4.362
  103c3c     HC  830   6.288   6.094   4.347
  103c3c     HC  831   6.189   6.067   4.492
  104c3c     N4  832   2.551   4.889   2.271
  104c3c     C1  833   2.685   4.828   2.281
  104c3c     C1  834   2.455   4.787   2.226
  104c3c     C2  835   2.676   4.683   2.235
  104c3c     C2  836   2.530   4.657   2.200
  104c3c     C1  837   2.511   4.937   2.403
  104c3c     C1  838   2.553   5.002   2.177
  104c3c     H1  839   2.725   4.834   2.383
  104c3c     H1  840   2.760   4.882   2.223
  104c3c     H1  841   2.376   4.771   2.300
  104c3c     H1  842   2.399   4.818   2.137
  104c3c     HC  843   2.710   4.617   2.314
  104c3c     HC  844   2.741   4.666   2.148
  104c3c     HC  845   2.489   4.577   2.261
  104c3c     HC  846   2.519   4.626   2.096
  104c3c     H1  847   2.580   5.012   2.441
  104c3c     H1  848   2.412   4.982   2.401
  104c3c     H1  849   2.509   4.855   2.475
  104c3c     H1  850   2.455   5.049   2.173
  104c3c     H1  851   2.622   5.079   2.213
  104c3c     C2  852   2.595   4.957   2.035
  104c3c     HC  853   2.528   4.881   1.995
  104c3c     HC  854   2.694   4.911   2.034
  104c3c     CT  855   2.597   5.074   1.940
  104c3c     HC  856   2.668   5.149   1.974
  104c3c     HC  857   2.497   5.118   1.934
  104c3c     HC  858   2.626   5.039   1.841
  105c3c     N4  859   5.221   2.310   4.804
  105c3c     C1  860   5.113   2.403   4.844
  105c3c     C1  861   5.327   2.311   4.906
  105c3c     C2  862   5.154   2.472   4.974
  105c3c     C2  863   5.290   2.414   5.014
  105c3c     C1  864   5.166   2.175   4.795
  105c3c     C1  865   5.275   2.349   4.674
  105c3c     H1  866   5.018   2.351   4.858
  105c3c     H1  867   5.092   2.478   4.769
  105c3c     H1  868   5.342   2.213   4.951
  105c3c     H1  869   5.425   2.334   4.865
  105c3c     HC  870   5.080   2.452   5.052
  105c3c     HC  871   5.160   2.580   4.961
  105c3c     HC  872   5.285   2.365   5.111
  105c3c     HC  873   5.366   2.492   5.021
  105c3c     H1  874   5.086   2.169   4.721
  105c3c     H1  875   5.243   2.103   4.767
  105c3c     H1  876   5.125   2.144   4.891
  105c3c     H1  877   5.353   2.279   4.643
  105c3c     H1  878   5.198   2.345   4.597
  105c3c     C2  879   5.335   2.492   4.677
  105c3c     HC  880   5.415   2.501   4.751
  105c3c     HC  881   5.262   2.567   4.706
  105c3c     CT  882   5.390   2.531   4.543
  105c3c     HC  883   5.312   2.530   4.468
  105c3c     HC  884   5.470   2.462   4.514
  105c3c     HC  885   5.432   2.632   4.549
  106c3c     N4  886   1.780   5.499   2.846
  106c3c     C1  887   1.782   5.358   2.802
  106c3c     C1  888   1.643   5.551   2.837
  106c3c     C2  889   1.641   5.319   2.757
  106c3c     C2  890   1.553   5.442   2.779
  106c3c     C1  891   1.825   5.506   2.985
  106c3c     C1  892   1.871   5.578   2.762
  106c3c     H1  893   1.816   5.291   2.882
  106c3c     H1  894   1.853   5.339   2.722
  106c3c     H1  895   1.606   5.584   2.934
  106c3c     H1  896   1.637   5.642   2.777
  106c3c     HC  897   1.605   5.235   2.816
  106c3c     HC  898   1.640   5.289   2.653
  106c3c     HC  899   1.472   5.421   2.849
  106c3c     HC  900   1.507   5.475   2.686
  106c3c     H1  901   1.926   5.466   2.997
  106c3c     H1  902   1.824   5.608   3.022
  106c3c     H1  903   1.759   5.447   3.049
  106c3c     H1  904   1.872   5.682   2.797
  106c3c     H1  905   1.973   5.542   2.772
  106c3c     C2  906   1.829   5.575   2.614
  106c3c     HC  907   1.728   5.613   2.598
  106c3c     HC  908   1.827   5.474   2.573
  106c3c     CT  909   1.922   5.657   2.529
  106c3c     HC  910   2.024   5.618   2.537
  106c3c     HC  911   1.921   5.761   2.562
  106c3c     HC  912   1.890   5.653   2.425
  107c3c     N4  913   1.726   1.713   6.549
  107c3c     C1  914   1.588   1.689   6.502
  107c3c     C1  915   1.750   1.858   6.558
  107c3c     C2  916   1.523   1.824   6.472
  107c3c     C2  917   1.626   1.931   6.507
  107c3c     C1  918   1.740   1.655   6.682
  107c3c     C1  919   1.822   1.650   6.458
  107c3c     H1  920   1.529   1.633   6.574
  107c3c     H1  921   1.585   1.626   6.413
  107c3c     H1  922   1.774   1.890   6.659
  107c3c     H1  923   1.837   1.890   6.501
  107c3c     HC  924   1.432   1.835   6.531
  107c3c     HC  925   1.494   1.831   6.367
  107c3c     HC  926   1.588   1.998   6.585
  107c3c     HC  927   1.650   1.993   6.420
  107c3c     H1  928   1.722   1.547   6.681
  107c3c     H1  929   1.841   1.672   6.722
  107c3c     H1  930   1.669   1.700   6.752
  107c3c     H1  931   1.924   1.666   6.495
  107c3c     H1  932   1.806   1.543   6.455
  107c3c     C2  933   1.812   1.708   6.315
  107c3c     HC  934   1.828   1.815   6.313
  107c3c     HC  935   1.713   1.694   6.272
  107c3c     CT  936   1.912   1.643   6.223
  107c3c     HC  937   1.893   1.535   6.218
  107c3c     HC  938   2.013   1.661   6.259
  107c3c     HC  939   1.901   1.686   6.124
  108c3c     N4  940   3.629   2.492   0.781
  108c3c     C1  941   3.728   2.398   0.836
  108c3c     C1  942   3.566   2.567   0.891
  108c3c     C2  943   3.725   2.408   0.988
  108c3c     C2  944   3.622   2.515   1.023
  108c3c     C1  945   3.697   2.586   0.692
  108c3c     C1  946   3.527   2.420   0.705
  108c3c     H1  947   3.828   2.418   0.798
  108c3c     H1  948   3.711   2.295   0.804
  108c3c     H1  949   3.583   2.675   0.882
  108c3c     H1  950   3.458   2.560   0.890
  108c3c     HC  951   3.824   2.434   1.026
  108c3c     HC  952   3.698   2.312   1.033
  108c3c     HC  953   3.668   2.597   1.079
  108c3c     HC  954   3.543   2.475   1.086
  108c3c     H1  955   3.746   2.535   0.610
  108c3c     H1  956   3.628   2.659   0.650
  108c3c     H1  957   3.774   2.641   0.747
  108c3c     H1  958   3.456   2.490   0.661
  108c3c     H1  959   3.573   2.367   0.621
  108c3c     C2  960   3.451   2.318   0.793
  108c3c     HC  961   3.401   2.366   0.877
  108c3c     HC  962   3.517   2.244   0.838
  108c3c     CT  963   3.346   2.244   0.714
  108c3c     HC  964   3.393   2.190   0.632
  108c3c     HC  965   3.274   2.315   0.673
  108c3c     HC  966   3.294   2.174   0.779
  109c3c     N4  967   6.029   0.887   3.207
  109c3c     C1  968   6.163   0.913   3.151
  109c3c     C1  969   5.955   1.014   3.218
  109c3c     C2  970   6.179   1.064   3.132
  109c3c     C2  971   6.048   1.128   3.174
  109c3c     C1  972   5.956   0.798   3.116
  109c3c     C1  973   6.040   0.823   3.338
  109c3c     H1  974   6.179   0.860   3.057
  109c3c     H1  975   6.243   0.874   3.215
  109c3c     H1  976   5.864   1.014   3.158
  109c3c     H1  977   5.918   1.033   3.319
  109c3c     HC  978   6.202   1.085   3.028
  109c3c     HC  979   6.262   1.102   3.192
  109c3c     HC  980   6.002   1.183   3.092
  109c3c     HC  981   6.063   1.199   3.256
  109c3c     H1  982   6.008   0.703   3.104
  109c3c     H1  983   5.856   0.777   3.153
  109c3c     H1  984   5.947   0.844   3.017
  109c3c     H1  985   5.940   0.801   3.377
  109c3c     H1  986   6.091   0.727   3.329
  109c3c     C2  987   6.115   0.912   3.439
  109c3c     HC  988   6.067   1.009   3.453
  109c3c     HC  989   6.216   0.936   3.406
  109c3c     CT  990   6.125   0.846   3.574
  109c3c     HC  991   6.179   0.751   3.565
  109c3c     HC  992   6.026   0.826   3.614
  109c3c     HC  993   6.179   0.911   3.643
  110c3c     N4  994   5.816   0.691   1.835
  110c3c     C1  995   5.795   0.551   1.875
  110c3c     C1  996   5.814   0.778   1.954
  110c3c     C2  997   5.771   0.547   2.026
  110c3c     C2  998   5.782   0.691   2.076
  110c3c     C1  999   5.948   0.703   1.771
  110c3c     C1 1000   5.713   0.733   1.739
  110c3c     H1 1001   5.879   0.487   1.848
  110c3c     H1 1002   5.712   0.505   1.822
  110c3c     H1 1003   5.908   0.832   1.968
  110c3c     H1 1004   5.741   0.858   1.946
  110c3c     HC 1005   5.844   0.482   2.073
  110c3c     HC 1006   5.672   0.506   2.048
  110c3c     HC 1007   5.862   0.701   2.149
  110c3c     HC 1008   5.690   0.724   2.124
  110c3c     H1 1009   5.954   0.640   1.682
  110c3c     H1 1010   5.968   0.805   1.740
  110c3c     H1 1011   6.027   0.672   1.839
  110c3c     H1 1012   5.731   0.836   1.707
  110c3c     H1 1013   5.717   0.671   1.650
  110c3c     C2 1014   5.572   0.723   1.801
  110c3c     HC 1015   5.561   0.785   1.890
  110c3c     HC 1016   5.547   0.622   1.833
  110c3c     CT 1017   5.466   0.767   1.702
  110c3c     HC 1018   5.469   0.703   1.614
  110c3c     HC 1019   5.483   0.870   1.672
  110c3c     HC 1020   5.368   0.758   1.749
  111c3c     N4 1021   3.360   3.862   5.050
  111c3c     C1 1022   3.497   3.809   5.066
  111c3c     C1 1023   3.361   4.008   5.071
  111c3c     C2 1024   3.589   3.925   5.107
  111c3c     C2 1025   3.502   4.050   5.110
  111c3c     C1 1026   3.316   3.834   4.913
  111c3c     C1 1027   3.269   3.797   5.145
  111c3c     H1 1028   3.534   3.762   4.976
  111c3c     H1 1029   3.503   3.729   5.140
  111c3c     H1 1030   3.328   4.062   4.983
  111c3c     H1 1031   3.290   4.039   5.148
  111c3c     HC 1032   3.670   3.934   5.035
  111c3c     HC 1033   3.634   3.906   5.204
  111c3c     HC 1034   3.539   4.125   5.040
  111c3c     HC 1035   3.503   4.096   5.209
  111c3c     H1 1036   3.315   3.727   4.893
  111c3c     H1 1037   3.215   3.873   4.896
  111c3c     H1 1038   3.382   3.882   4.841
  111c3c     H1 1039   3.168   3.834   5.130
  111c3c     H1 1040   3.266   3.689   5.126
  111c3c     C2 1041   3.311   3.822   5.291
  111c3c     HC 1042   3.314   3.928   5.315
  111c3c     HC 1043   3.412   3.786   5.312
  111c3c     CT 1044   3.217   3.755   5.387
  111c3c     HC 1045   3.216   3.647   5.370
  111c3c     HC 1046   3.116   3.794   5.374
  111c3c     HC 1047   3.249   3.775   5.489
  112c3c     N4 1048   1.180   2.242   1.584
  112c3c     C1 1049   1.228   2.228   1.722
  112c3c     C1 1050   1.035   2.268   1.585
  112c3c     C2 1051   1.109   2.238   1.817
  112c3c     C2 1052   0.986   2.263   1.730
  112c3c     C1 1053   1.247   2.356   1.521
  112c3c     C1 1054   1.209   2.121   1.506
  112c3c     H1 1055   1.303   2.303   1.747
  112c3c     H1 1056   1.282   2.135   1.738
  112c3c     H1 1057   1.009   2.364   1.540
  112c3c     H1 1058   0.979   2.197   1.524
  112c3c     HC 1059   1.125   2.319   1.887
  112c3c     HC 1060   1.098   2.146   1.875
  112c3c     HC 1061   0.938   2.358   1.756
  112c3c     HC 1062   0.912   2.185   1.743
  112c3c     H1 1063   1.355   2.343   1.519
  112c3c     H1 1064   1.213   2.372   1.419
  112c3c     H1 1065   1.227   2.448   1.577
  112c3c     H1 1066   1.176   2.134   1.403
  112c3c     H1 1067   1.317   2.105   1.503
  112c3c     C2 1068   1.141   1.997   1.567
  112c3c     HC 1069   1.032   2.008   1.572
  112c3c     HC 1070   1.171   1.979   1.670
  112c3c     CT 1071   1.172   1.873   1.487
  112c3c     HC 1072   1.279   1.856   1.486
  112c3c     HC 1073   1.136   1.885   1.385
  112c3c     HC 1074   1.122   1.787   1.533
  113c3c     N4 1075   3.844   6.510   4.643
  113c3c     C1 1076   3.928   6.390   4.662
  113c3c     C1 1077   3.702   6.473   4.657
  113c3c     C2 1078   3.836   6.269   4.682
  113c3c     C2 1079   3.693   6.322   4.679
  113c3c     C1 1080   3.877   6.608   4.746
  113c3c     C1 1081   3.868   6.569   4.511
  113c3c     H1 1082   3.995   6.400   4.747
  113c3c     H1 1083   3.995   6.372   4.579
  113c3c     H1 1084   3.653   6.526   4.738
  113c3c     H1 1085   3.642   6.501   4.570
  113c3c     HC 1086   3.859   6.222   4.778
  113c3c     HC 1087   3.853   6.195   4.604
  113c3c     HC 1088   3.641   6.301   4.772
  113c3c     HC 1089   3.635   6.274   4.599
  113c3c     H1 1090   3.982   6.637   4.741
  113c3c     H1 1091   3.815   6.698   4.737
  113c3c     H1 1092   3.859   6.566   4.845
  113c3c     H1 1093   3.808   6.659   4.498
  113c3c     H1 1094   3.972   6.599   4.502
  113c3c     C2 1095   3.835   6.470   4.397
  113c3c     HC 1096   3.731   6.437   4.400
  113c3c     HC 1097   3.893   6.378   4.404
  113c3c     CT 1098   3.861   6.531   4.262
  113c3c     HC 1099   3.966   6.559   4.253
  113c3c     HC 1100   3.798   6.620   4.249
  113c3c     HC 1101   3.836   6.459   4.184
  114c3c     N4 1102   2.683   3.323   4.962
  114c3c     C1 1103   2.775   3.437   4.983
  114c3c     C1 1104   2.642   3.269   5.092
  114c3c     C2 1105   2.800   3.451   5.133
  114c3c     C2 1106   2.716   3.344   5.202
  114c3c     C1 1107   2.565   3.371   4.891
  114c3c     C1 1108   2.748   3.220   4.881
  114c3c     H1 1109   2.736   3.529   4.941
  114c3c     H1 1110   2.870   3.424   4.930
  114c3c     H1 1111   2.534   3.274   5.107
  114c3c     H1 1112   2.662   3.162   5.101
  114c3c     HC 1113   2.771   3.551   5.166
  114c3c     HC 1114   2.906   3.439   5.156
  114c3c     HC 1115   2.643   3.389   5.270
  114c3c     HC 1116   2.778   3.277   5.261
  114c3c     H1 1117   2.590   3.414   4.794
  114c3c     H1 1118   2.493   3.291   4.875
  114c3c     H1 1119   2.513   3.448   4.949
  114c3c     H1 1120   2.679   3.137   4.863
  114c3c     H1 1121   2.776   3.259   4.783
  114c3c     C2 1122   2.875   3.164   4.950
  114c3c     HC 1123   2.853   3.121   5.048
  114c3c     HC 1124   2.949   3.242   4.970
  114c3c     CT 1125   2.941   3.058   4.867
  114c3c     HC 1126   2.970   3.099   4.770
  114c3c     HC 1127   2.872   2.975   4.851
  114c3c     HC 1128   3.029   3.021   4.918
  115c3c     N4 1129   5.502   4.013   3.305
  115c3c     C1 1130   5.355   4.029   3.303
  115c3c     C1 1131   5.536   3.870   3.309
  115c3c     C2 1132   5.292   3.890   3.313
  115c3c     C2 1133   5.406   3.789   3.316
  115c3c     C1 1134   5.557   4.072   3.183
  115c3c     C1 1135   5.559   4.082   3.422
  115c3c     H1 1136   5.320   4.080   3.214
  115c3c     H1 1137   5.319   4.092   3.384
  115c3c     H1 1138   5.595   3.840   3.222
  115c3c     H1 1139   5.601   3.844   3.392
  115c3c     HC 1140   5.227   3.873   3.227
  115c3c     HC 1141   5.230   3.882   3.402
  115c3c     HC 1142   5.401   3.721   3.232
  115c3c     HC 1143   5.404   3.729   3.407
  115c3c     H1 1144   5.533   4.178   3.176
  115c3c     H1 1145   5.665   4.062   3.180
  115c3c     H1 1146   5.516   4.023   3.095
  115c3c     H1 1147   5.667   4.073   3.421
  115c3c     H1 1148   5.536   4.189   3.417
  115c3c     C2 1149   5.504   4.024   3.554
  115c3c     HC 1150   5.526   3.918   3.565
  115c3c     HC 1151   5.396   4.032   3.561
  115c3c     CT 1152   5.563   4.096   3.673
  115c3c     HC 1153   5.538   4.202   3.669
  115c3c     HC 1154   5.671   4.084   3.673
  115c3c     HC 1155   5.523   4.052   3.765
  116c3c     N4 1156   4.362   2.717   4.621
  116c3c     C1 1157   4.380   2.863   4.623
  116c3c     C1 1158   4.437   2.656   4.731
  116c3c     C2 1159   4.478   2.898   4.735
  116c3c     C2 1160   4.514   2.767   4.804
  116c3c     C1 1161   4.220   2.687   4.639
  116c3c     C1 1162   4.406   2.661   4.492
  116c3c     H1 1163   4.286   2.916   4.636
  116c3c     H1 1164   4.416   2.902   4.528
  116c3c     H1 1165   4.373   2.603   4.801
  116c3c     H1 1166   4.506   2.578   4.698
  116c3c     HC 1167   4.430   2.967   4.805
  116c3c     HC 1168   4.566   2.948   4.695
  116c3c     HC 1169   4.485   2.768   4.909
  116c3c     HC 1170   4.621   2.749   4.800
  116c3c     H1 1171   4.159   2.730   4.560
  116c3c     H1 1172   4.201   2.579   4.640
  116c3c     H1 1173   4.184   2.727   4.734
  116c3c     H1 1174   4.388   2.554   4.490
  116c3c     H1 1175   4.347   2.704   4.411
  116c3c     C2 1176   4.556   2.690   4.467
  116c3c     HC 1177   4.619   2.648   4.545
  116c3c     HC 1178   4.578   2.796   4.466
  116c3c     CT 1179   4.600   2.632   4.335
  116c3c     HC 1180   4.543   2.677   4.254
  116c3c     HC 1181   4.585   2.525   4.334
  116c3c     HC 1182   4.706   2.654   4.320
  117c3c     N4 1183   2.419   3.996   3.368
  117c3c     C1 1184   2.304   3.916   3.324
  117c3c     C1 1185   2.534   3.908   3.394
  117c3c     C2 1186   2.344   3.768   3.327
  117c3c     C2 1187   2.490   3.763   3.372
  117c3c     C1 1188   2.455   4.090   3.262
  117c3c     C1 1189   2.385   4.072   3.489
  117c3c     H1 1190   2.271   3.944   3.224
  117c3c     H1 1191   2.216   3.933   3.384
  117c3c     H1 1192   2.620   3.932   3.330
  117c3c     H1 1193   2.575   3.920   3.494
  117c3c     HC 1194   2.332   3.725   3.228
  117c3c     HC 1195   2.280   3.713   3.396
  117c3c     HC 1196   2.553   3.717   3.296
  117c3c     HC 1197   2.501   3.705   3.463
  117c3c     H1 1198   2.373   4.158   3.239
  117c3c     H1 1199   2.541   4.151   3.290
  117c3c     H1 1200   2.482   4.037   3.171
  117c3c     H1 1201   2.469   4.134   3.520
  117c3c     H1 1202   2.302   4.140   3.469
  117c3c     C2 1203   2.346   3.978   3.606
  117c3c     HC 1204   2.426   3.909   3.631
  117c3c     HC 1205   2.261   3.915   3.581
  117c3c     CT 1206   2.311   4.056   3.729
  117c3c     HC 1207   2.227   4.122   3.709
  117c3c     HC 1208   2.397   4.116   3.761
  117c3c     HC 1209   2.284   3.987   3.809
  118c3c     N4 1210   5.154   0.488   4.229
  118c3c     C1 1211   5.034   0.534   4.301
  118c3c     C1 1212   5.214   0.373   4.300
  118c3c     C2 1213   5.020   0.451   4.429
  118c3c     C2 1214   5.134   0.349   4.428
  118c3c     C1 1215   5.114   0.444   4.095
  118c3c     C1 1216   5.251   0.596   4.216
  118c3c     H1 1217   4.944   0.526   4.240
  118c3c     H1 1218   5.039   0.640   4.326
  118c3c     H1 1219   5.216   0.283   4.238
  118c3c     H1 1220   5.319   0.389   4.324
  118c3c     HC 1221   4.923   0.401   4.429
  118c3c     HC 1222   5.025   0.514   4.517
  118c3c     HC 1223   5.095   0.247   4.428
  118c3c     HC 1224   5.197   0.360   4.516
  118c3c     H1 1225   5.068   0.525   4.038
  118c3c     H1 1226   5.199   0.407   4.037
  118c3c     H1 1227   5.041   0.363   4.101
  118c3c     H1 1228   5.338   0.563   4.159
  118c3c     H1 1229   5.208   0.679   4.160
  118c3c     C2 1230   5.298   0.647   4.355
  118c3c     HC 1231   5.344   0.568   4.414
  118c3c     HC 1232   5.215   0.684   4.415
  118c3c     CT 1233   5.398   0.759   4.341
  118c3c     HC 1234   5.353   0.842   4.288
  118c3c     HC 1235   5.486   0.724   4.287
  118c3c     HC 1236   5.429   0.792   4.440
  119c3c     N4 1237   3.634   0.578   3.859
  119c3c     C1 1238   3.730   0.613   3.754
  119c3c     C1 1239   3.660   0.440   3.906
  119c3c     C2 1240   3.818   0.491   3.725
  119c3c     C2 1241   3.774   0.382   3.821
  119c3c     C1 1242   3.651   0.669   3.972
  119c3c     C1 1243   3.497   0.589   3.809
  119c3c     H1 1244   3.791   0.699   3.781
  119c3c     H1 1245   3.681   0.646   3.662
  119c3c     H1 1246   3.686   0.437   4.012
  119c3c     H1 1247   3.572   0.376   3.900
  119c3c     HC 1248   3.923   0.517   3.740
  119c3c     HC 1249   3.807   0.459   3.621
  119c3c     HC 1250   3.856   0.351   3.887
  119c3c     HC 1251   3.740   0.293   3.767
  119c3c     H1 1252   3.634   0.773   3.942
  119c3c     H1 1253   3.583   0.646   4.053
  119c3c     H1 1254   3.753   0.663   4.011
  119c3c     H1 1255   3.425   0.566   3.889
  119c3c     H1 1256   3.476   0.691   3.778
  119c3c     C2 1257   3.471   0.494   3.690
  119c3c     HC 1258   3.489   0.389   3.716
  119c3c     HC 1259   3.539   0.514   3.607
  119c3c     CT 1260   3.330   0.506   3.639
  119c3c     HC 1261   3.311   0.608   3.606
  119c3c     HC 1262   3.260   0.481   3.719
  119c3c     HC 1263   3.316   0.438   3.555
  120c3c     N4 1264   2.925   1.638   5.724
  120c3c     C1 1265   2.846   1.662   5.847
  120c3c     C1 1266   3.055   1.705   5.735
  120c3c     C2 1267   2.927   1.755   5.938
  120c3c     C2 1268   3.059   1.782   5.867
  120c3c     C1 1269   2.947   1.494   5.711
  120c3c     C1 1270   2.852   1.686   5.607
  120c3c     H1 1271   2.822   1.570   5.899
  120c3c     H1 1272   2.748   1.705   5.826
  120c3c     H1 1273   3.138   1.634   5.730
  120c3c     H1 1274   3.074   1.772   5.651
  120c3c     HC 1275   2.943   1.707   6.034
  120c3c     HC 1276   2.872   1.848   5.956
  120c3c     HC 1277   3.144   1.748   5.927
  120c3c     HC 1278   3.073   1.889   5.849
  120c3c     H1 1279   2.853   1.440   5.703
  120c3c     H1 1280   3.006   1.471   5.622
  120c3c     H1 1281   3.001   1.455   5.797
  120c3c     H1 1282   2.908   1.665   5.516
  120c3c     H1 1283   2.756   1.634   5.597
  120c3c     C2 1284   2.825   1.838   5.615
  120c3c     HC 1285   2.917   1.896   5.623
  120c3c     HC 1286   2.767   1.865   5.703
  120c3c     CT 1287   2.750   1.887   5.494
  120c3c     HC 1288   2.654   1.836   5.487
  120c3c     HC 1289   2.808   1.868   5.404
  120c3c     HC 1290   2.733   1.994   5.503
  121c3c     N4 1291   5.898   2.260   2.582
  121c3c     C1 1292   5.995   2.149   2.582
  121c3c     C1 1293   5.965   2.383   2.628
  121c3c     C2 1294   6.128   2.201   2.637
  121c3c     C2 1295   6.109   2.349   2.666
  121c3c     C1 1296   5.850   2.281   2.445
  121c3c     C1 1297   5.784   2.229   2.669
  121c3c     H1 1298   6.009   2.107   2.482
  121c3c     H1 1299   5.961   2.064   2.640
  121c3c     H1 1300   5.963   2.462   2.552
  121c3c     H1 1301   5.914   2.430   2.712
  121c3c     HC 1302   6.207   2.185   2.563
  121c3c     HC 1303   6.157   2.146   2.727
  121c3c     HC 1304   6.178   2.410   2.607
  121c3c     HC 1305   6.128   2.371   2.771
  121c3c     H1 1306   5.801   2.192   2.407
  121c3c     H1 1307   5.779   2.363   2.441
  121c3c     H1 1308   5.933   2.305   2.379
  121c3c     H1 1309   5.711   2.309   2.666
  121c3c     H1 1310   5.733   2.139   2.633
  121c3c     C2 1311   5.829   2.206   2.815
  121c3c     HC 1312   5.879   2.293   2.857
  121c3c     HC 1313   5.901   2.124   2.824
  121c3c     CT 1314   5.711   2.173   2.903
  121c3c     HC 1315   5.662   2.082   2.868
  121c3c     HC 1316   5.640   2.256   2.902
  121c3c     HC 1317   5.746   2.158   3.005
  122c3c     N4 1318   2.136   1.573   5.142
  122c3c     C1 1319   2.241   1.472   5.166
  122c3c     C1 1320   2.198   1.705   5.123
  122c3c     C2 1321   2.376   1.543   5.169
  122c3c     C2 1322   2.349   1.691   5.142
  122c3c     C1 1323   2.063   1.537   5.020
  122c3c     C1 1324   2.042   1.576   5.255
  122c3c     H1 1325   2.241   1.394   5.089
  122c3c     H1 1326   2.225   1.416   5.258
  122c3c     H1 1327   2.176   1.747   5.025
  122c3c     H1 1328   2.158   1.780   5.191
  122c3c     HC 1329   2.442   1.501   5.094
  122c3c     HC 1330   2.425   1.529   5.266
  122c3c     HC 1331   2.401   1.725   5.053
  122c3c     HC 1332   2.383   1.753   5.225
  122c3c     H1 1333   2.017   1.439   5.029
  122c3c     H1 1334   1.985   1.610   4.998
  122c3c     H1 1335   2.131   1.534   4.935
  122c3c     H1 1336   1.963   1.648   5.236
  122c3c     H1 1337   1.993   1.479   5.266
  122c3c     C2 1338   2.113   1.614   5.387
  122c3c     HC 1339   2.162   1.711   5.381
  122c3c     HC 1340   2.193   1.544   5.412
  122c3c     CT 1341   2.016   1.617   5.502
  122c3c     HC 1342   1.970   1.519   5.514
  122c3c     HC 1343   1.938   1.691   5.483
  122c3c     HC 1344   2.069   1.644   5.593
  123c3c     N4 1345   0.917   4.350   5.833
  123c3c     C1 1346   0.901   4.308   5.973
  123c3c     C1 1347   1.010   4.260   5.764
  123c3c     C2 1348   0.994   4.188   5.998
  123c3c     C2 1349   1.063   4.158   5.865
  123c3c     C1 1350   0.787   4.344   5.767
  123c3c     C1 1351   0.967   4.488   5.827
  123c3c     H1 1352   0.798   4.281   5.997
  123c3c     H1 1353   0.923   4.387   6.044
  123c3c     H1 1354   0.964   4.209   5.679
  123c3c     H1 1355   1.094   4.312   5.717
  123c3c     HC 1356   0.935   4.103   6.032
  123c3c     HC 1357   1.067   4.211   6.076
  123c3c     HC 1358   1.040   4.057   5.831
  123c3c     HC 1359   1.171   4.165   5.874
  123c3c     H1 1360   0.714   4.409   5.815
  123c3c     H1 1361   0.794   4.374   5.662
  123c3c     H1 1362   0.747   4.242   5.770
  123c3c     H1 1363   0.975   4.521   5.723
  123c3c     H1 1364   0.896   4.556   5.875
  123c3c     C2 1365   1.105   4.502   5.895
  123c3c     HC 1366   1.180   4.438   5.850
  123c3c     HC 1367   1.102   4.472   6.000
  123c3c     CT 1368   1.155   4.644   5.889
  123c3c     HC 1369   1.084   4.711   5.939
  123c3c     HC 1370   1.165   4.675   5.785
  123c3c     HC 1371   1.252   4.650   5.937
  124c3c     N4 1372   0.751   5.772   2.491
  124c3c     C1 1373   0.688   5.709   2.608
  124c3c     C1 1374   0.895   5.738   2.489
  124c3c     C2 1375   0.795   5.636   2.688
  124c3c     C2 1376   0.927   5.654   2.613
  124c3c     C1 1377   0.688   5.721   2.370
  124c3c     C1 1378   0.734   5.918   2.497
  124c3c     H1 1379   0.608   5.640   2.579
  124c3c     H1 1380   0.635   5.780   2.671
  124c3c     H1 1381   0.922   5.683   2.398
  124c3c     H1 1382   0.959   5.826   2.485
  124c3c     HC 1383   0.769   5.530   2.697
  124c3c     HC 1384   0.802   5.676   2.789
  124c3c     HC 1385   0.968   5.558   2.582
  124c3c     HC 1386   1.001   5.704   2.675
  124c3c     H1 1387   0.582   5.743   2.368
  124c3c     H1 1388   0.733   5.765   2.280
  124c3c     H1 1389   0.700   5.613   2.363
  124c3c     H1 1390   0.778   5.964   2.409
  124c3c     H1 1391   0.628   5.943   2.495
  124c3c     C2 1392   0.799   5.978   2.624
  124c3c     HC 1393   0.906   5.957   2.630
  124c3c     HC 1394   0.757   5.936   2.715
  124c3c     CT 1395   0.781   6.127   2.628
  124c3c     HC 1396   0.675   6.152   2.629
  124c3c     HC 1397   0.828   6.173   2.541
  124c3c     HC 1398   0.828   6.167   2.719
  125c3c     N4 1399   4.748   0.862   3.048
  125c3c     C1 1400   4.727   1.003   3.086
  125c3c     C1 1401   4.682   0.774   3.146
  125c3c     C2 1402   4.649   1.006   3.218
  125c3c     C2 1403   4.621   0.861   3.256
  125c3c     C1 1404   4.689   0.839   2.916
  125c3c     C1 1405   4.892   0.832   3.042
  125c3c     H1 1406   4.673   1.058   3.009
  125c3c     H1 1407   4.820   1.058   3.096
  125c3c     H1 1408   4.605   0.711   3.099
  125c3c     H1 1409   4.749   0.700   3.189
  125c3c     HC 1410   4.557   1.062   3.204
  125c3c     HC 1411   4.707   1.056   3.295
  125c3c     HC 1412   4.513   0.842   3.262
  125c3c     HC 1413   4.663   0.836   3.353
  125c3c     H1 1414   4.734   0.903   2.840
  125c3c     H1 1415   4.701   0.736   2.884
  125c3c     H1 1416   4.582   0.860   2.918
  125c3c     H1 1417   4.907   0.729   3.010
  125c3c     H1 1418   4.940   0.895   2.967
  125c3c     C2 1419   4.960   0.854   3.179
  125c3c     HC 1420   4.917   0.792   3.257
  125c3c     HC 1421   4.949   0.956   3.214
  125c3c     CT 1422   5.107   0.823   3.171
  125c3c     HC 1423   5.155   0.888   3.098
  125c3c     HC 1424   5.122   0.719   3.142
  125c3c     HC 1425   5.153   0.840   3.269
  126fsi    FSI 1426   3.117   6.508   4.745
  126fsi    SBT 1427   3.192   6.371   4.768
  126fsi    NBT 1428   3.177   6.353   4.921
  126fsi    OBT 1429   3.120   6.275   4.688
  126fsi    OBT 1430   3.328   6.398   4.731
  126fsi    SBT 1431   3.049   6.294   4.985
  126fsi    OBT 1432   2.933   6.300   4.901
  126fsi    OBT 1433   3.033   6.336   5.121
  126fsi    FSI 1434   3.088   6.140   4.994
  127fsi    FSI 1435   6.566   2.218   2.979
  127fsi    SBT 1436   6.467   2.095   2.967
  127fsi    NBT 1437   6.545   1.984   3.042
  127fsi    OBT 1438   6.346   2.138   3.034
  127fsi    OBT 1439   6.456   2.069   2.827
  127fsi    SBT 1440   6.546   1.972   3.196
  127fsi    OBT 1441   6.504   2.091   3.265
  127fsi    OBT 1442   6.662   1.905   3.246
  127fsi    FSI 1443   6.427   1.869   3.218
  128fsi    FSI 1444   5.592   2.917   5.002
  128fsi    SBT 1445   5.681   3.033   5.061
  128fsi    NBT 1446   5.762   3.077   4.937
  128fsi    OBT 1447   5.587   3.130   5.112
  128fsi    OBT 1448   5.764   2.970   5.160
  128fsi    SBT 1449   5.705   3.175   4.831
  128fsi    OBT 1450   5.561   3.179   4.833
  128fsi    OBT 1451   5.770   3.158   4.706
  128fsi    FSI 1452   5.755   3.314   4.886
  129fsi    FSI 1453   0.589   5.615   5.767
  129fsi    SBT 1454   0.459   5.550   5.828
  129fsi    NBT 1455   0.383   5.507   5.700
  129fsi    OBT 1456   0.507   5.441   5.910
  129fsi    OBT 1457   0.392   5.657   5.894
  129fsi    SBT 1458   0.415   5.374   5.626
  129fsi    OBT 1459   0.544   5.319   5.656
  129fsi    OBT 1460   0.377   5.381   5.488
  129fsi    FSI 1461   0.310   5.275   5.693
  130fsi    FSI 1462   4.601   1.544   1.257
  130fsi    SBT 1463   4.543   1.399   1.282
  130fsi    NBT 1464   4.581   1.377   1.431
  130fsi    OBT 1465   4.401   1.410   1.258
  130fsi    OBT 1466   4.617   1.314   1.194
  130fsi    SBT 1467   4.496   1.431   1.548
  130fsi    OBT 1468   4.407   1.538   1.511
  130fsi    OBT 1469   4.573   1.449   1.667
  130fsi    FSI 1470   4.401   1.307   1.577
  131fsi    FSI 1471   3.990   5.078   5.548
  131fsi    SBT 1472   4.028   5.185   5.657
  131fsi    NBT 1473   3.898   5.269   5.665
  131fsi    OBT 1474   4.058   5.110   5.776
  131fsi    OBT 1475   4.136   5.260   5.599
  131fsi    SBT 1476   3.776   5.225   5.749
  131fsi    OBT 1477   3.775   5.085   5.785
  131fsi    OBT 1478   3.653   5.281   5.701
  131fsi    FSI 1479   3.805   5.301   5.885
  132fsi    FSI 1480   5.462   1.639   4.276
  132fsi    SBT 1481   5.430   1.611   4.428
  132fsi    NBT 1482   5.567   1.641   4.494
  132fsi    OBT 1483   5.324   1.704   4.461
  132fsi    OBT 1484   5.397   1.472   4.433
  132fsi    SBT 1485   5.612   1.785   4.530
  132fsi    OBT 1486   5.539   1.888   4.459
  132fsi    OBT 1487   5.754   1.797   4.535
  132fsi    FSI 1488   5.562   1.796   4.680
  133fsi    FSI 1489   1.006   6.633   3.711
  133fsi    SBT 1490   0.975   6.538   3.833
  133fsi    NBT 1491   0.820   6.532   3.827
  133fsi    OBT 1492   1.040   6.414   3.799
  133fsi    OBT 1493   1.022   6.608   3.948
  133fsi    SBT 1494   0.743   6.437   3.733
  133fsi    OBT 1495   0.822   6.389   3.621
  133fsi    OBT 1496   0.612   6.485   3.703
  133fsi    FSI 1497   0.722   6.311   3.826
  134fsi    FSI 1498   4.470   5.923   4.806
  134fsi    SBT 1499   4.419   5.904   4.954
  134fsi    NBT 1500   4.359   6.044   4.986
  134fsi    OBT 1501   4.321   5.799   4.948
  134fsi    OBT 1502   4.535   5.881   5.033
  134fsi    SBT 1503   4.217   6.085   4.938
  134fsi    OBT 1504   4.163   6.005   4.833
  134fsi    OBT 1505   4.204   6.228   4.924
  134fsi    FSI 1506   4.133   6.049   5.068
  135fsi    FSI 1507   0.162   2.375   2.464
  135fsi    SBT 1508   0.215   2.227   2.455
  135fsi    NBT 1509   0.368   2.251   2.450
  135fsi    OBT 1510   0.167   2.163   2.575
  135fsi    OBT 1511   0.164   2.179   2.331
  135fsi    SBT 1512   0.454   2.273   2.578
  135fsi    OBT 1513   0.376   2.317   2.691
  135fsi    OBT 1514   0.573   2.346   2.548
  135fsi    FSI 1515   0.500   2.125   2.609
  136fsi    FSI 1516   0.946   2.686   5.916
  136fsi    SBT 1517   0.993   2.538   5.890
  136fsi    NBT 1518   1.109   2.560   5.790
  136fsi    OBT 1519   1.032   2.489   6.020
  136fsi    OBT 1520   0.880   2.475   5.829
  136fsi    SBT 1521   1.252   2.598   5.836
  136fsi    OBT 1522   1.257   2.655   5.969
  136fsi    OBT 1523   1.324   2.667   5.733
  136fsi    FSI 1524   1.320   2.455   5.848
  137fsi    FSI 1525   6.165   2.692   0.639
  137fsi    SBT 1526   6.085   2.564   0.684
  137fsi    NBT 1527   5.939   2.617   0.680
  137fsi    OBT 1528   6.116   2.464   0.586
  137fsi    OBT 1529   6.128   2.540   0.819
  137fsi    SBT 1530   5.857   2.622   0.549
  137fsi    OBT 1531   5.937   2.619   0.429
  137fsi    OBT 1532   5.753   2.721   0.555
  137fsi    FSI 1533   5.782   2.482   0.553
  138fsi    FSI 1534   6.542   0.653   4.657
  138fsi    SBT 1535   6.614   0.565   4.767
  138fsi    NBT 1536   6.492   0.499   4.837
  138fsi    OBT 1537   6.696   0.473   4.692
  138fsi    OBT 1538   6.680   0.658   4.852
  138fsi    SBT 1539   6.421   0.373   4.781
  138fsi    OBT 1540   6.446   0.349   4.641
  138fsi    OBT 1541   6.285   0.363   4.825
  138fsi    FSI 1542   6.499   0.258   4.857
  139fsi    FSI 1543   5.274   3.355   6.196
  139fsi    SBT 1544   5.175   3.477   6.214
  139fsi    NBT 1545   5.240   3.552   6.334
  139fsi    OBT 1546   5.180   3.549   6.090
  139fsi    OBT 1547   5.050   3.418   6.251
  139fsi    SBT 1548   5.358   3.650   6.316
  139fsi    OBT 1549   5.430   3.634   6.192
  139fsi    OBT 1550   5.436   3.663   6.435
  139fsi    FSI 1551   5.281   3.788   6.301
  140fsi    FSI 1552   5.385   6.507   5.717
  140fsi    SBT 1553   5.468   6.634   5.675
  140fsi    NBT 1554   5.559   6.577   5.562
  140fsi    OBT 1555   5.370   6.730   5.629
  140fsi    OBT 1556   5.544   6.670   5.791
  140fsi    SBT 1557   5.508   6.559   5.417
  140fsi    OBT 1558   5.365   6.560   5.402
  140fsi    OBT 1559   5.584   6.461   5.345
  140fsi    FSI 1560   5.556   6.696   5.353
  141fsi    FSI 1561   5.155   0.936   1.526
  141fsi    SBT 1562   5.072   0.815   1.469
  141fsi    NBT 1563   4.930   0.840   1.525
  141fsi    OBT 1564   5.080   0.825   1.325
  141fsi    OBT 1565   5.130   0.697   1.526
  141fsi    SBT 1566   4.832   0.941   1.461
  141fsi    OBT 1567   4.895   1.034   1.371
  141fsi    OBT 1568   4.738   0.992   1.556
  141fsi    FSI 1569   4.749   0.843   1.368
  142fsi    FSI 1570   4.846   2.931   3.439
  142fsi    SBT 1571   4.847   2.949   3.596
  142fsi    NBT 1572   4.904   3.092   3.610
  142fsi    OBT 1573   4.709   2.935   3.637
  142fsi    OBT 1574   4.939   2.850   3.644
  142fsi    SBT 1575   4.816   3.219   3.596
  142fsi    OBT 1576   4.692   3.196   3.527
  142fsi    OBT 1577   4.892   3.334   3.557
  142fsi    FSI 1578   4.775   3.245   3.747
  143fsi    FSI 1579   3.868   2.199   4.367
  143fsi    SBT 1580   4.012   2.136   4.351
  143fsi    NBT 1581   4.092   2.256   4.294
  143fsi    OBT 1582   4.052   2.097   4.484
  143fsi    OBT 1583   3.997   2.032   4.254
  143fsi    SBT 1584   4.151   2.367   4.384
  143fsi    OBT 1585   4.091   2.376   4.515
  143fsi    OBT 1586   4.170   2.491   4.314
  143fsi    FSI 1587   4.297   2.311   4.410
  144fsi    FSI 1588   5.192   0.716   2.209
  144fsi    SBT 1589   5.079   0.655   2.117
  144fsi    NBT 1590   5.151   0.531   2.060
  144fsi    OBT 1591   4.970   0.626   2.208
  144fsi    OBT 1592   5.055   0.755   2.017
  144fsi    SBT 1593   5.161   0.397   2.137
  144fsi    OBT 1594   5.141   0.411   2.279
  144fsi    OBT 1595   5.274   0.320   2.094
  144fsi    FSI 1596   5.033   0.320   2.082
  145fsi    FSI 1597   5.305   3.297   4.776
  145fsi    SBT 1598   5.380   3.436   4.770
  145fsi    NBT 1599   5.259   3.534   4.772
  145fsi    OBT 1600   5.461   3.443   4.889
  145fsi    OBT 1601   5.446   3.437   4.644
  145fsi    SBT 1602   5.189   3.576   4.903
  145fsi    OBT 1603   5.211   3.486   5.014
  145fsi    OBT 1604   5.054   3.618   4.879
  145fsi    FSI 1605   5.269   3.709   4.939
  146fsi    FSI 1606   3.325   1.162   4.010
  146fsi    SBT 1607   3.315   1.292   4.099
  146fsi    NBT 1608   3.218   1.245   4.210
  146fsi    OBT 1609   3.451   1.316   4.143
  146fsi    OBT 1610   3.256   1.390   4.013
  146fsi    SBT 1611   3.265   1.165   4.334
  146fsi    OBT 1612   3.393   1.099   4.315
  146fsi    OBT 1613   3.160   1.087   4.391
  146fsi    FSI 1614   3.293   1.283   4.437
  147fsi    FSI 1615   2.614   1.844   4.574
  147fsi    SBT 1616   2.618   1.742   4.694
  147fsi    NBT 1617   2.472   1.749   4.747
  147fsi    OBT 1618   2.654   1.615   4.635
  147fsi    OBT 1619   2.711   1.797   4.788
  147fsi    SBT 1620   2.357   1.669   4.681
  147fsi    OBT 1621   2.383   1.624   4.547
  147fsi    OBT 1622   2.228   1.729   4.706
  147fsi    FSI 1623   2.357   1.537   4.770
  148fsi    FSI 1624   1.148   1.584   6.144
  148fsi    SBT 1625   1.156   1.735   6.190
  148fsi    NBT 1626   1.308   1.762   6.174
  148fsi    OBT 1627   1.071   1.805   6.097
  148fsi    OBT 1628   1.116   1.734   6.327
  148fsi    SBT 1629   1.372   1.800   6.038
  148fsi    OBT 1630   1.291   1.762   5.924
  148fsi    OBT 1631   1.511   1.765   6.034
  148fsi    FSI 1632   1.367   1.958   6.044
  149fsi    FSI 1633   2.470   2.341   3.874
  149fsi    SBT 1634   2.332   2.271   3.843
  149fsi    NBT 1635   2.231   2.389   3.855
  149fsi    OBT 1636   2.345   2.218   3.709
  149fsi    OBT 1637   2.310   2.176   3.948
  149fsi    SBT 1638   2.209   2.488   3.738
  149fsi    OBT 1639   2.313   2.491   3.639
  149fsi    OBT 1640   2.159   2.614   3.787
  149fsi    FSI 1641   2.084   2.421   3.667
  150fsi    FSI 1642   1.493   1.123   5.520
  150fsi    SBT 1643   1.409   1.252   5.486
  150fsi    NBT 1644   1.496   1.362   5.551
  150fsi    OBT 1645   1.405   1.255   5.342
  150fsi    OBT 1646   1.285   1.233   5.554
  150fsi    SBT 1647   1.620   1.424   5.481
  150fsi    OBT 1648   1.673   1.341   5.375
  150fsi    OBT 1649   1.714   1.476   5.575
  150fsi    FSI 1650   1.555   1.549   5.409
  151fsi    FSI 1651   5.918   4.706   1.445
  151fsi    SBT 1652   5.857   4.625   1.566
  151fsi    NBT 1653   5.752   4.536   1.494
  151fsi    OBT 1654   5.969   4.552   1.622
  151fsi    OBT 1655   5.796   4.723   1.650
  151fsi    SBT 1656   5.790   4.404   1.424
  151fsi    OBT 1657   5.930   4.390   1.392
  151fsi    OBT 1658   5.697   4.368   1.321
  151fsi    FSI 1659   5.765   4.299   1.540
  152fsi    FSI 1660   1.856   4.345   5.239
  152fsi    SBT 1661   1.994   4.313   5.308
  152fsi    NBT 1662   1.994   4.158   5.304
  152fsi    OBT 1663   2.093   4.375   5.223
  152fsi    OBT 1664   1.981   4.363   5.441
  152fsi    SBT 1665   2.037   4.077   5.179
  152fsi    OBT 1666   2.033   4.153   5.056
  152fsi    OBT 1667   1.978   3.947   5.175
  152fsi    FSI 1668   2.191   4.054   5.208
  153fsi    FSI 1669   3.328   1.374   3.524
  153fsi    SBT 1670   3.213   1.477   3.491
  153fsi    NBT 1671   3.244   1.588   3.595
  153fsi    OBT 1672   3.240   1.514   3.354
  153fsi    OBT 1673   3.093   1.406   3.519
  153fsi    SBT 1674   3.348   1.700   3.571
  153fsi    OBT 1675   3.446   1.666   3.470
  153fsi    OBT 1676   3.400   1.753   3.693
  153fsi    FSI 1677   3.260   1.815   3.507
  154fsi    FSI 1678   1.728   2.317   6.402
  154fsi    SBT 1679   1.594   2.395   6.432
  154fsi    NBT 1680   1.643   2.542   6.426
  154fsi    OBT 1681   1.505   2.356   6.326
  154fsi    OBT 1682   1.558   2.356   6.565
  154fsi    SBT 1683   1.658   2.619   6.291
  154fsi    OBT 1684   1.669   2.533   6.177
  154fsi    OBT 1685   1.753   2.726   6.303
  154fsi    FSI 1686   1.517   2.689   6.279
  155fsi    FSI 1687   1.804   1.102   3.747
  155fsi    SBT 1688   1.721   1.236   3.752
  155fsi    NBT 1689   1.576   1.180   3.752
  155fsi    OBT 1690   1.760   1.300   3.875
  155fsi    OBT 1691   1.751   1.303   3.630
  155fsi    SBT 1692   1.506   1.132   3.881
  155fsi    OBT 1693   1.596   1.099   3.989
  155fsi    OBT 1694   1.402   1.037   3.854
  155fsi    FSI 1695   1.432   1.264   3.928
  156fsi    FSI 1696   3.265   2.547   3.204
  156fsi    SBT 1697   3.174   2.460   3.298
  156fsi    NBT 1698   3.087   2.570   3.365
  156fsi    OBT 1699   3.102   2.373   3.207
  156fsi    OBT 1700   3.264   2.399   3.389
  156fsi    SBT 1701   2.961   2.630   3.298
  156fsi    OBT 1702   2.957   2.611   3.155
  156fsi    OBT 1703   2.931   2.761   3.347
  156fsi    FSI 1704   2.847   2.536   3.356
  157fsi    FSI 1705   1.413   2.194   3.012
  157fsi    SBT 1706   1.555   2.151   2.957
  157fsi    NBT 1707   1.648   2.198   3.073
  157fsi    OBT 1708   1.550   2.009   2.939
  157fsi    OBT 1709   1.576   2.231   2.840
  157fsi    SBT 1710   1.671   2.112   3.200
  157fsi    OBT 1711   1.570   2.012   3.223
  157fsi    OBT 1712   1.711   2.193   3.312
  157fsi    FSI 1713   1.801   2.031   3.159
  158fsi    FSI 1714   1.719   1.352   0.553
  158fsi    SBT 1715   1.780   1.475   0.475
  158fsi    NBT 1716   1.930   1.464   0.516
  158fsi    OBT 1717   1.754   1.446   0.336
  158fsi    OBT 1718   1.717   1.590   0.531
  158fsi    SBT 1719   2.029   1.369   0.445
  158fsi    OBT 1720   1.966   1.261   0.374
  158fsi    OBT 1721   2.139   1.334   0.531
  158fsi    FSI 1722   2.090   1.464   0.334
  159fsi    FSI 1723   0.670   1.884   3.237
  159fsi    SBT 1724   0.535   1.807   3.209
  159fsi    NBT 1725   0.475   1.893   3.095
  159fsi    OBT 1726   0.575   1.674   3.170
  159fsi    OBT 1727   0.460   1.819   3.330
  159fsi    SBT 1728   0.517   1.876   2.947
  159fsi    OBT 1729   0.642   1.807   2.929
  159fsi    OBT 1730   0.495   1.995   2.871
  159fsi    FSI 1731   0.407   1.773   2.896
  160fsi    FSI 1732   3.478   3.831   0.627
  160fsi    SBT 1733   3.530   3.682   0.634
  160fsi    NBT 1734   3.682   3.703   0.616
  160fsi    OBT 1735   3.491   3.636   0.766
  160fsi    OBT 1736   3.470   3.617   0.522
  160fsi    SBT 1737   3.777   3.740   0.732
  160fsi    OBT 1738   3.709   3.799   0.845
  160fsi    OBT 1739   3.895   3.807   0.687
  160fsi    FSI 1740   3.824   3.597   0.782
  161fsi    FSI 1741   5.028   0.403   3.623
  161fsi    SBT 1742   4.889   0.476   3.639
  161fsi    NBT 1743   4.792   0.356   3.650
  161fsi    OBT 1744   4.902   0.554   3.761
  161fsi    OBT 1745   4.871   0.549   3.517
  161fsi    SBT 1746   4.768   0.280   3.783
  161fsi    OBT 1747   4.872   0.300   3.882
  161fsi    OBT 1748   4.725   0.145   3.762
  161fsi    FSI 1749   4.642   0.357   3.840
  162fsi    FSI 1750   1.630   5.279   3.570
  162fsi    SBT 1751   1.641   5.404   3.666
  162fsi    NBT 1752   1.682   5.336   3.799
  162fsi    OBT 1753   1.742   5.488   3.606
  162fsi    OBT 1754   1.508   5.457   3.670
  162fsi    SBT 1755   1.828   5.298   3.832
  162fsi    OBT 1756   1.910   5.287   3.714
  162fsi    OBT 1757   1.835   5.191   3.927
  162fsi    FSI 1758   1.877   5.428   3.909
  163fsi    FSI 1759   6.142   4.535   5.609
  163fsi    SBT 1760   6.179   4.383   5.623
  163fsi    NBT 1761   6.038   4.318   5.625
  163fsi    OBT 1762   6.258   4.353   5.506
  163fsi    OBT 1763   6.245   4.373   5.750
  163fsi    SBT 1764   5.959   4.286   5.496
  163fsi    OBT 1765   6.004   4.361   5.381
  163fsi    OBT 1766   5.818   4.281   5.519
  163fsi    FSI 1767   6.004   4.136   5.468
  164fsi    FSI 1768   5.554   2.347   6.644
  164fsi    SBT 1769   5.424   2.432   6.622
  164fsi    NBT 1770   5.479   2.576   6.641
  164fsi    OBT 1771   5.384   2.398   6.488
  164fsi    OBT 1772   5.336   2.392   6.728
  164fsi    SBT 1773   5.549   2.655   6.528
  164fsi    OBT 1774   5.602   2.571   6.423
  164fsi    OBT 1775   5.638   2.754   6.581
  164fsi    FSI 1776   5.428   2.735   6.466
  165fsi    FSI 1777   6.454   1.649   0.354
  165fsi    SBT 1778   6.425   1.760   0.463
  165fsi    NBT 1779   6.449   1.680   0.594
  165fsi    OBT 1780   6.523   1.863   0.436
  165fsi    OBT 1781   6.288   1.793   0.446
  165fsi    SBT 1782   6.591   1.658   0.653
  165fsi    OBT 1783   6.698   1.675   0.558
  165fsi    OBT 1784   6.596   1.542   0.736
  165fsi    FSI 1785   6.603   1.781   0.752
  166fsi    FSI 1786   1.571   3.066   1.316
  166fsi    SBT 1787   1.684   3.160   1.259
  166fsi    NBT 1788   1.767   3.189   1.386
  166fsi    OBT 1789   1.753   3.079   1.160
  166fsi    OBT 1790   1.615   3.276   1.210
  166fsi    SBT 1791   1.874   3.093   1.441
  166fsi    OBT 1792   1.861   2.957   1.393
  166fsi    OBT 1793   1.896   3.109   1.582
  166fsi    FSI 1794   2.005   3.149   1.371
  167fsi    FSI 1795   6.354   6.046   1.481
  167fsi    SBT 1796   6.477   5.947   1.489
  167fsi    NBT 1797   6.581   6.034   1.565
  167fsi    OBT 1798   6.428   5.833   1.563
  167fsi    OBT 1799   6.515   5.925   1.353
  167fsi    SBT 1800   6.581   6.047   1.719
  167fsi    OBT 1801   6.456   6.012   1.782
  167fsi    OBT 1802   6.644   6.168   1.763
  167fsi    FSI 1803   6.682   5.931   1.760
  168fsi    FSI 1804   5.650   5.985   4.363
  168fsi    SBT 1805   5.808   5.986   4.360
  168fsi    NBT 1806   5.834   5.871   4.259
  168fsi    OBT 1807   5.844   6.116   4.310
  168fsi    OBT 1808   5.848   5.954   4.493
  168fsi    SBT 1809   5.834   5.887   4.106
  168fsi    OBT 1810   5.760   6.003   4.061
  168fsi    OBT 1811   5.807   5.764   4.038
  168fsi    FSI 1812   5.986   5.919   4.078
  169fsi    FSI 1813   5.456   4.128   4.197
  169fsi    SBT 1814   5.604   4.081   4.169
  169fsi    NBT 1815   5.648   4.034   4.310
  169fsi    OBT 1816   5.590   3.975   4.071
  169fsi    OBT 1817   5.671   4.199   4.127
  169fsi    SBT 1818   5.614   3.894   4.367
  169fsi    OBT 1819   5.503   3.831   4.299
  169fsi    OBT 1820   5.612   3.894   4.510
  169fsi    FSI 1821   5.742   3.812   4.324
  170fsi    FSI 1822   6.098   5.614   4.578
  170fsi    SBT 1823   6.027   5.562   4.447
  170fsi    NBT 1824   6.148   5.548   4.351
  170fsi    OBT 1825   5.963   5.439   4.485
  170fsi    OBT 1826   5.942   5.668   4.409
  170fsi    SBT 1827   6.237   5.421   4.351
  170fsi    OBT 1828   6.229   5.345   4.472
  170fsi    OBT 1829   6.368   5.450   4.300
  170fsi    FSI 1830   6.165   5.333   4.240
  171fsi    FSI 1831   3.784   3.320   3.109
  171fsi    SBT 1832   3.897   3.216   3.073
  171fsi    NBT 1833   4.009   3.312   3.024
  171fsi    OBT 1834   3.925   3.149   3.198
  171fsi    OBT 1835   3.843   3.138   2.966
  171fsi    SBT 1836   4.106   3.383   3.121
  171fsi    OBT 1837   4.056   3.394   3.256
  171fsi    OBT 1838   4.160   3.503   3.064
  171fsi    FSI 1839   4.227   3.281   3.127
  172fsi    FSI 1840   0.532   1.264   1.935
  172fsi    SBT 1841   0.429   1.384   1.940
  172fsi    NBT 1842   0.525   1.506   1.929
  172fsi    OBT 1843   0.344   1.364   1.826
  172fsi    OBT 1844   0.369   1.374   2.069
  172fsi    SBT 1845   0.578   1.558   1.793
  172fsi    OBT 1846   0.571   1.461   1.687
  172fsi    OBT 1847   0.702   1.629   1.807
  172fsi    FSI 1848   0.470   1.668   1.757
  173fsi    FSI 1849   3.095   3.531   2.491
  173fsi    SBT 1850   3.140   3.624   2.372
  173fsi    NBT 1851   3.012   3.628   2.285
  173fsi    OBT 1852   3.175   3.750   2.433
  173fsi    OBT 1853   3.245   3.552   2.307
  173fsi    SBT 1854   2.894   3.724   2.316
  173fsi    OBT 1855   2.893   3.775   2.450
  173fsi    OBT 1856   2.770   3.675   2.263
  173fsi    FSI 1857   2.932   3.848   2.224
  174fsi    FSI 1858   3.685   0.367   5.215
  174fsi    SBT 1859   3.633   0.331   5.071
  174fsi    NBT 1860   3.764   0.350   4.988
  174fsi    OBT 1861   3.587   0.195   5.081
  174fsi    OBT 1862   3.537   0.432   5.041
  174fsi    SBT 1863   3.870   0.238   4.976
  174fsi    OBT 1864   3.865   0.140   5.082
  174fsi    OBT 1865   3.999   0.292   4.944
  174fsi    FSI 1866   3.822   0.161   4.845
  175fsi    FSI 1867   5.290   6.202   5.275
  175fsi    SBT 1868   5.209   6.148   5.399
  175fsi    NBT 1869   5.080   6.233   5.390
  175fsi    OBT 1870   5.187   6.008   5.371
  175fsi    OBT 1871   5.288   6.183   5.513
  175fsi    SBT 1872   4.962   6.195   5.297
  175fsi    OBT 1873   4.997   6.106   5.189
  175fsi    OBT 1874   4.882   6.309   5.263
  175fsi    FSI 1875   4.872   6.108   5.394
  176fsi    FSI 1876   5.368   1.687   5.673
  176fsi    SBT 1877   5.293   1.825   5.663
  176fsi    NBT 1878   5.145   1.779   5.659
  176fsi    OBT 1879   5.331   1.896   5.783
  176fsi    OBT 1880   5.336   1.880   5.538
  176fsi    SBT 1881   5.064   1.745   5.787
  176fsi    OBT 1882   5.147   1.715   5.901
  176fsi    OBT 1883   4.956   1.655   5.759
  176fsi    FSI 1884   4.996   1.885   5.818
  177fsi    FSI 1885   2.868   4.780   5.285
  177fsi    SBT 1886   2.837   4.918   5.356
  177fsi    NBT 1887   2.916   4.901   5.489
  177fsi    OBT 1888   2.890   5.019   5.268
  177fsi    OBT 1889   2.696   4.918   5.378
  177fsi    SBT 1890   3.068   4.930   5.500
  177fsi    OBT 1891   3.137   4.927   5.374
  177fsi    OBT 1892   3.126   4.857   5.609
  177fsi    FSI 1893   3.068   5.082   5.545
  178fsi    FSI 1894   2.019   6.049   2.854
  178fsi    SBT 1895   1.917   6.109   2.750
  178fsi    NBT 1896   1.786   6.035   2.786
  178fsi    OBT 1897   1.914   6.251   2.775
  178fsi    OBT 1898   1.965   6.068   2.621
  178fsi    SBT 1899   1.695   6.081   2.904
  178fsi    OBT 1900   1.760   6.167   2.998
  178fsi    OBT 1901   1.616   5.973   2.955
  178fsi    FSI 1902   1.592   6.174   2.826
  179fsi    FSI 1903   3.340   0.988   4.881
  179fsi    SBT 1904   3.418   1.091   4.790
  179fsi    NBT 1905   3.410   1.219   4.878
  179fsi    OBT 1906   3.551   1.035   4.779
  179fsi    OBT 1907   3.340   1.101   4.672
  179fsi    SBT 1908   3.508   1.247   4.994
  179fsi    OBT 1909   3.576   1.129   5.045
  179fsi    OBT 1910   3.453   1.335   5.093
  179fsi    FSI 1911   3.621   1.331   4.920
  180fsi    FSI 1912   3.900   0.439   3.351
  180fsi    SBT 1913   3.876   0.321   3.250
  180fsi    NBT 1914   3.750   0.372   3.175
  180fsi    OBT 1915   3.996   0.317   3.170
  180fsi    OBT 1916   3.848   0.208   3.333
  180fsi    SBT 1917   3.758   0.471   3.056
  180fsi    OBT 1918   3.881   0.547   3.052
  180fsi    OBT 1919   3.637   0.545   3.039
  180fsi    FSI 1920   3.765   0.372   2.932
  181fsi    FSI 1921   5.084   2.547   6.240
  181fsi    SBT 1922   5.222   2.509   6.175
  181fsi    NBT 1923   5.213   2.581   6.038
  181fsi    OBT 1924   5.322   2.565   6.262
  181fsi    OBT 1925   5.219   2.366   6.161
  181fsi    SBT 1926   5.246   2.732   6.022
  181fsi    OBT 1927   5.241   2.807   6.144
  181fsi    OBT 1928   5.181   2.788   5.907
  181fsi    FSI 1929   5.400   2.725   5.982
  182fsi    FSI 1930   3.858   2.119   0.340
  182fsi    SBT 1931   3.894   2.267   0.296
  182fsi    NBT 1932   3.980   2.314   0.416
  182fsi    OBT 1933   3.967   2.251   0.172
  182fsi    OBT 1934   3.769   2.335   0.291
  182fsi    SBT 1935   4.131   2.281   0.428
  182fsi    OBT 1936   4.173   2.168   0.349
  182fsi    OBT 1937   4.174   2.284   0.565
  182fsi    FSI 1938   4.196   2.408   0.360
  183fsi    FSI 1939   4.163   4.173   5.035
  183fsi    SBT 1940   4.052   4.256   5.111
  183fsi    NBT 1941   4.136   4.370   5.174
  183fsi    OBT 1942   3.960   4.298   5.007
  183fsi    OBT 1943   4.000   4.166   5.210
  183fsi    SBT 1944   4.177   4.497   5.095
  183fsi    OBT 1945   4.171   4.481   4.952
  183fsi    OBT 1946   4.295   4.558   5.148
  183fsi    FSI 1947   4.058   4.595   5.131
  184fsi    FSI 1948   3.412   1.547   5.820
  184fsi    SBT 1949   3.481   1.405   5.838
  184fsi    NBT 1950   3.612   1.442   5.911
  184fsi    OBT 1951   3.388   1.327   5.917
  184fsi    OBT 1952   3.506   1.358   5.705
  184fsi    SBT 1953   3.619   1.466   6.064
  184fsi    OBT 1954   3.490   1.491   6.124
  184fsi    OBT 1955   3.728   1.551   6.101
  184fsi    FSI 1956   3.660   1.321   6.114
  185fsi    FSI 1957   1.946   5.462   5.211
  185fsi    SBT 1958   2.084   5.499   5.143
  185fsi    NBT 1959   2.085   5.403   5.022
  185fsi    OBT 1960   2.071   5.639   5.110
  185fsi    OBT 1961   2.182   5.464   5.241
  185fsi    SBT 1962   2.011   5.435   4.889
  185fsi    OBT 1963   1.908   5.535   4.903
  185fsi    OBT 1964   1.978   5.317   4.817
  185fsi    FSI 1965   2.127   5.506   4.806
  186fsi    FSI 1966   2.375   5.272   3.957
  186fsi    SBT 1967   2.222   5.234   3.961
  186fsi    NBT 1968   2.228   5.083   3.925
  186fsi    OBT 1969   2.181   5.262   4.097
  186fsi    OBT 1970   2.164   5.312   3.858
  186fsi    SBT 1971   2.258   4.973   4.031
  186fsi    OBT 1972   2.325   5.022   4.148
  186fsi    OBT 1973   2.313   4.855   3.970
  186fsi    FSI 1974   2.112   4.934   4.078
  187fsi    FSI 1975   5.484   1.070   5.935
  187fsi    SBT 1976   5.427   0.943   5.864
  187fsi    NBT 1977   5.306   0.908   5.956
  187fsi    OBT 1978   5.390   0.989   5.732
  187fsi    OBT 1979   5.530   0.845   5.872
  187fsi    SBT 1980   5.170   0.981   5.944
  187fsi    OBT 1981   5.175   1.107   5.875
  187fsi    OBT 1982   5.094   0.975   6.066
  187fsi    FSI 1983   5.093   0.883   5.845
  188fsi    FSI 1984   2.533   1.116   4.016
  188fsi    SBT 1985   2.549   1.270   3.985
  188fsi    NBT 1986   2.469   1.284   3.853
  188fsi    OBT 1987   2.489   1.337   4.099
  188fsi    OBT 1988   2.689   1.289   3.965
  188fsi    SBT 1989   2.315   1.300   3.851
  188fsi    OBT 1990   2.249   1.256   3.972
  188fsi    OBT 1991   2.258   1.255   3.727
  188fsi    FSI 1992   2.300   1.458   3.850
  189fsi    FSI 1993   2.841   0.496   4.036
  189fsi    SBT 1994   2.718   0.454   3.946
  189fsi    NBT 1995   2.605   0.542   4.005
  189fsi    OBT 1996   2.757   0.488   3.811
  189fsi    OBT 1997   2.699   0.315   3.974
  189fsi    SBT 1998   2.585   0.690   3.965
  189fsi    OBT 1999   2.701   0.750   3.905
  189fsi    OBT 2000   2.518   0.764   4.068
  189fsi    FSI 2001   2.480   0.675   3.847
  190fsi    FSI 2002   0.252   1.954   4.393
  190fsi    SBT 2003   0.392   2.019   4.427
  190fsi    NBT 2004   0.403   2.127   4.315
  190fsi    OBT 2005   0.376   2.072   4.560
  190fsi    OBT 2006   0.487   1.914   4.410
  190fsi    SBT 2007   0.336   2.266   4.326
  190fsi    OBT 2008   0.227   2.270   4.421
  190fsi    OBT 2009   0.311   2.324   4.198
  190fsi    FSI 2010   0.452   2.352   4.390
  191fsi    FSI 2011   4.217   6.160   1.406
  191fsi    SBT 2012   4.304   6.069   1.311
  191fsi    NBT 2013   4.311   6.157   1.182
  191fsi    OBT 2014   4.430   6.052   1.378
  191fsi    OBT 2015   4.224   5.952   1.288
  191fsi    SBT 2016   4.414   6.272   1.168
  191fsi    OBT 2017   4.467   6.320   1.292
  191fsi    OBT 2018   4.368   6.371   1.073
  191fsi    FSI 2019   4.533   6.198   1.095
  192fsi    FSI 2020   1.118   2.520   3.678
  192fsi    SBT 2021   1.274   2.500   3.673
  192fsi    NBT 2022   1.288   2.394   3.561
  192fsi    OBT 2023   1.328   2.630   3.639
  192fsi    OBT 2024   1.309   2.447   3.801
  192fsi    SBT 2025   1.287   2.430   3.410
  192fsi    OBT 2026   1.231   2.560   3.382
  192fsi    OBT 2027   1.244   2.321   3.328
  192fsi    FSI 2028   1.443   2.446   3.382
  193fsi    FSI 2029   0.815   4.654   2.633
  193fsi    SBT 2030   0.932   4.624   2.735
  193fsi    NBT 2031   0.987   4.767   2.761
  193fsi    OBT 2032   0.867   4.563   2.849
  193fsi    OBT 2033   1.025   4.544   2.662
  193fsi    SBT 2034   0.923   4.863   2.863
  193fsi    OBT 2035   0.786   4.832   2.897
  193fsi    OBT 2036   0.951   5.000   2.831
  193fsi    FSI 2037   1.007   4.831   2.994
  194fsi    FSI 2038   3.720   4.516   5.436
  194fsi    SBT 2039   3.641   4.645   5.482
  194fsi    NBT 2040   3.496   4.607   5.443
  194fsi    OBT 2041   3.664   4.653   5.625
  194fsi    OBT 2042   3.693   4.751   5.402
  194fsi    SBT 2043   3.406   4.519   5.533
  194fsi    OBT 2044   3.477   4.440   5.630
  194fsi    OBT 2045   3.301   4.452   5.462
  194fsi    FSI 2046   3.331   4.628   5.619
  195fsi    FSI 2047   1.925   2.061   6.264
  195fsi    SBT 2048   2.064   1.990   6.249
  195fsi    NBT 2049   2.161   2.110   6.243
  195fsi    OBT 2050   2.078   1.908   6.368
  195fsi    OBT 2051   2.058   1.919   6.125
  195fsi    SBT 2052   2.211   2.184   6.370
  195fsi    OBT 2053   2.131   2.160   6.487
  195fsi    OBT 2054   2.250   2.319   6.343
  195fsi    FSI 2055   2.347   2.106   6.397
  196fsi    FSI 2056   0.856   5.974   5.516
  196fsi    SBT 2057   1.003   5.917   5.517
  196fsi    NBT 2058   0.975   5.764   5.515
  196fsi    OBT 2059   1.063   5.970   5.397
  196fsi    OBT 2060   1.058   5.961   5.642
  196fsi    SBT 2061   0.946   5.686   5.385
  196fsi    OBT 2062   0.901   5.771   5.276
  196fsi    OBT 2063   0.871   5.567   5.409
  196fsi    FSI 2064   1.091   5.638   5.344
  197fsi    FSI 2065   2.045   5.919   1.536
  197fsi    SBT 2066   2.177   5.858   1.475
  197fsi    NBT 2067   2.245   5.983   1.414
  197fsi    OBT 2068   2.248   5.800   1.586
  197fsi    OBT 2069   2.133   5.768   1.372
  197fsi    SBT 2070   2.329   6.081   1.500
  197fsi    OBT 2071   2.306   6.072   1.641
  197fsi    OBT 2072   2.335   6.212   1.441
  197fsi    FSI 2073   2.475   6.021   1.479
  198fsi    FSI 2074   2.796   1.576   3.386
  198fsi    SBT 2075   2.920   1.644   3.317
  198fsi    NBT 2076   2.852   1.751   3.227
  198fsi    OBT 2077   2.997   1.700   3.425
  198fsi    OBT 2078   2.978   1.541   3.236
  198fsi    SBT 2079   2.808   1.888   3.283
  198fsi    OBT 2080   2.791   1.893   3.425
  198fsi    OBT 2081   2.703   1.944   3.202
  198fsi    FSI 2082   2.936   1.976   3.251
  199fsi    FSI 2083   1.889   3.902   5.781
  199fsi    SBT 2084   1.835   3.754   5.778
  199fsi    NBT 2085   1.969   3.675   5.778
  199fsi    OBT 2086   1.756   3.742   5.898
  199fsi    OBT 2087   1.766   3.744   5.653
  199fsi    SBT 2088   2.046   3.643   5.908
  199fsi    OBT 2089   2.013   3.730   6.019
  199fsi    OBT 2090   2.186   3.622   5.884
  199fsi    FSI 2091   1.987   3.501   5.947
  200fsi    FSI 2092   5.945   5.896   2.647
  200fsi    SBT 2093   5.950   5.963   2.504
  200fsi    NBT 2094   6.100   6.001   2.495
  200fsi    OBT 2095   5.908   5.858   2.414
  200fsi    OBT 2096   5.866   6.078   2.515
  200fsi    SBT 2097   6.209   5.901   2.450
  200fsi    OBT 2098   6.170   5.763   2.466
  200fsi    OBT 2099   6.338   5.937   2.501
  200fsi    FSI 2100   6.215   5.927   2.294
  201fsi    FSI 2101   6.110   3.589   2.761
  201fsi    SBT 2102   6.219   3.548   2.867
  201fsi    NBT 2103   6.223   3.394   2.846
  201fsi    OBT 2104   6.338   3.618   2.825
  201fsi    OBT 2105   6.162   3.585   2.993
  201fsi    SBT 2106   6.308   3.327   2.736
  201fsi    OBT 2107   6.340   3.415   2.625
  201fsi    OBT 2108   6.256   3.199   2.699
  201fsi    FSI 2109   6.444   3.299   2.811
  202fsi    FSI 2110   1.643   1.031   6.645
  202fsi    SBT 2111   1.682   1.116   6.517
  202fsi    NBT 2112   1.552   1.104   6.434
  202fsi    OBT 2113   1.710   1.248   6.568
  202fsi    OBT 2114   1.790   1.044   6.458
  202fsi    SBT 2115   1.429   1.195   6.457
  202fsi    OBT 2116   1.427   1.256   6.588
  202fsi    OBT 2117   1.308   1.134   6.413
  202fsi    FSI 2118   1.458   1.313   6.356
  203fsi    FSI 2119   4.838   1.950   0.922
  203fsi    SBT 2120   4.740   2.074   0.918
  203fsi    NBT 2121   4.618   2.013   0.844
  203fsi    OBT 2122   4.717   2.106   1.057
  203fsi    OBT 2123   4.808   2.171   0.839
  203fsi    SBT 2124   4.510   1.929   0.916
  203fsi    OBT 2125   4.554   1.874   1.042
  203fsi    OBT 2126   4.443   1.839   0.827
  203fsi    FSI 2127   4.404   2.041   0.953
  204fsi    FSI 2128   6.395   3.273   3.881
  204fsi    SBT 2129   6.239   3.293   3.893
  204fsi    NBT 2130   6.208   3.365   3.759
  204fsi    OBT 2131   6.186   3.159   3.903
  204fsi    OBT 2132   6.222   3.379   4.006
  204fsi    SBT 2133   6.188   3.288   3.626
  204fsi    OBT 2134   6.245   3.156   3.626
  204fsi    OBT 2135   6.215   3.371   3.512
  204fsi    FSI 2136   6.031   3.267   3.626
  205fsi    FSI 2137   1.061   5.032   3.947
  205fsi    SBT 2138   0.909   5.067   3.969
  205fsi    NBT 2139   0.841   4.931   3.940
  205fsi    OBT 2140   0.899   5.110   4.107
  205fsi    OBT 2141   0.878   5.164   3.869
  205fsi    SBT 2142   0.831   4.818   4.046
  205fsi    OBT 2143   0.924   4.832   4.155
  205fsi    OBT 2144   0.818   4.689   3.986
  205fsi    FSI 2145   0.689   4.849   4.109
  206fsi    FSI 2146   3.943   3.309   1.810
  206fsi    SBT 2147   3.954   3.442   1.728
  206fsi    NBT 2148   4.060   3.521   1.809
  206fsi    OBT 2149   3.995   3.398   1.596
  206fsi    OBT 2150   3.824   3.501   1.736
  206fsi    SBT 2151   4.212   3.497   1.793
  206fsi    OBT 2152   4.244   3.371   1.729
  206fsi    OBT 2153   4.286   3.533   1.910
  206fsi    FSI 2154   4.248   3.608   1.685
  207fsi    FSI 2155   2.030   3.312   5.290
  207fsi    SBT 2156   2.024   3.164   5.235
  207fsi    NBT 2157   2.071   3.084   5.359
  207fsi    OBT 2158   1.887   3.144   5.197
  207fsi    OBT 2159   2.122   3.162   5.130
  207fsi    SBT 2160   1.973   3.044   5.474
  207fsi    OBT 2161   1.854   3.125   5.478
  207fsi    OBT 2162   2.043   3.024   5.597
  207fsi    FSI 2163   1.926   2.901   5.426
  208fsi    FSI 2164   5.329   6.397   4.463
  208fsi    SBT 2165   5.342   6.240   4.474
  208fsi    NBT 2166   5.495   6.225   4.498
  208fsi    OBT 2167   5.258   6.204   4.585
  208fsi    OBT 2168   5.302   6.192   4.345
  208fsi    SBT 2169   5.558   6.239   4.639
  208fsi    OBT 2170   5.476   6.313   4.732
  208fsi    OBT 2171   5.696   6.278   4.632
  208fsi    FSI 2172   5.557   6.089   4.690
  209fsi    FSI 2173   3.291   3.101   3.247
  209fsi    SBT 2174   3.267   3.213   3.138
  209fsi    NBT 2175   3.117   3.193   3.106
  209fsi    OBT 2176   3.297   3.338   3.205
  209fsi    OBT 2177   3.350   3.176   3.028
  209fsi    SBT 2178   3.004   3.253   3.194
  209fsi    OBT 2179   3.046   3.291   3.327
  209fsi    OBT 2180   2.881   3.180   3.183
  209fsi    FSI 2181   2.978   3.390   3.119
  210fsi    FSI 2182   0.257   4.169   2.307
  210fsi    SBT 2183   0.397   4.144   2.376
  210fsi    NBT 2184   0.478   4.264   2.321
  210fsi    OBT 2185   0.370   4.149   2.517
  210fsi    OBT 2186   0.442   4.020   2.322
  210fsi    SBT 2187   0.472   4.405   2.385
  210fsi    OBT 2188   0.355   4.428   2.465
  210fsi    OBT 2189   0.507   4.508   2.291
  210fsi    FSI 2190   0.593   4.398   2.487
  211fsi    FSI 2191   3.302   2.625   6.358
  211fsi    SBT 2192   3.363   2.509   6.270
  211fsi    NBT 2193   3.425   2.589   6.153
  211fsi    OBT 2194   3.458   2.444   6.357
  211fsi    OBT 2195   3.250   2.431   6.228
  211fsi    SBT 2196   3.565   2.656   6.163
  211fsi    OBT 2197   3.610   2.677   6.299
  211fsi    OBT 2198   3.578   2.766   6.073
  211fsi    FSI 2199   3.658   2.542   6.105
  212fsi    FSI 2200   4.349   2.852   3.430
  212fsi    SBT 2201   4.301   2.985   3.360
  212fsi    NBT 2202   4.334   2.954   3.211
  212fsi    OBT 2203   4.161   2.993   3.392
  212fsi    OBT 2204   4.385   3.087   3.415
  212fsi    SBT 2205   4.238   2.873   3.120
  212fsi    OBT 2206   4.145   2.791   3.193
  212fsi    OBT 2207   4.309   2.810   3.012
  212fsi    FSI 2208   4.152   2.988   3.054
  213fsi    FSI 2209   1.513   4.994   2.064
  213fsi    SBT 2210   1.662   5.047   2.056
  213fsi    NBT 2211   1.636   5.200   2.046
  213fsi    OBT 2212   1.724   5.003   2.178
  213fsi    OBT 2213   1.711   4.992   1.933
  213fsi    SBT 2214   1.616   5.289   2.170
  213fsi    OBT 2215   1.568   5.215   2.285
  213fsi    OBT 2216   1.540   5.406   2.136
  213fsi    FSI 2217   1.763   5.336   2.204
  214fsi    FSI 2218   5.384   3.071   4.580
  214fsi    SBT 2219   5.405   2.979   4.454
  214fsi    NBT 2220   5.441   3.082   4.344
  214fsi    OBT 2221   5.511   2.888   4.490
  214fsi    OBT 2222   5.276   2.919   4.430
  214fsi    SBT 2223   5.584   3.138   4.327
  214fsi    OBT 2224   5.668   3.120   4.442
  214fsi    OBT 2225   5.584   3.267   4.264
  214fsi    FSI 2226   5.644   3.039   4.219
  215fsi    FSI 2227   5.461   5.350   5.726
  215fsi    SBT 2228   5.374   5.384   5.853
  215fsi    NBT 2229   5.362   5.245   5.920
  215fsi    OBT 2230   5.454   5.477   5.929
  215fsi    OBT 2231   5.248   5.429   5.802
  215fsi    SBT 2232   5.472   5.187   6.012
  215fsi    OBT 2233   5.602   5.249   5.996
  215fsi    OBT 2234   5.468   5.045   6.017
  215fsi    FSI 2235   5.422   5.236   6.155
  216fsi    FSI 2236   0.864   3.372   5.872
  216fsi    SBT 2237   0.769   3.489   5.919
  216fsi    NBT 2238   0.847   3.614   5.869
  216fsi    OBT 2239   0.644   3.466   5.851
  216fsi    OBT 2240   0.768   3.481   6.062
  216fsi    SBT 2241   0.839   3.663   5.723
  216fsi    OBT 2242   0.791   3.566   5.629
  216fsi    OBT 2243   0.952   3.742   5.685
  216fsi    FSI 2244   0.722   3.770   5.734
  217fsi    FSI 2245   1.528   2.167   5.038
  217fsi    SBT 2246   1.441   2.037   5.061
  217fsi    NBT 2247   1.549   1.933   5.098
  217fsi    OBT 2248   1.350   2.071   5.167
  217fsi    OBT 2249   1.384   2.008   4.933
  217fsi    SBT 2250   1.606   1.920   5.242
  217fsi    OBT 2251   1.585   2.037   5.323
  217fsi    OBT 2252   1.737   1.861   5.242
  217fsi    FSI 2253   1.510   1.810   5.302
  218fsi    FSI 2254   1.491   5.685   1.091
  218fsi    SBT 2255   1.416   5.824   1.080
  218fsi    NBT 2256   1.292   5.798   1.169
  218fsi    OBT 2257   1.510   5.920   1.133
  218fsi    OBT 2258   1.383   5.836   0.942
  218fsi    SBT 2259   1.295   5.812   1.324
  218fsi    OBT 2260   1.428   5.805   1.379
  218fsi    OBT 2261   1.195   5.732   1.387
  218fsi    FSI 2262   1.249   5.963   1.342
  219fsi    FSI 2263   2.239   2.393   4.250
  219fsi    SBT 2264   2.367   2.482   4.271
  219fsi    NBT 2265   2.454   2.391   4.362
  219fsi    OBT 2266   2.419   2.503   4.138
  219fsi    OBT 2267   2.320   2.598   4.340
  219fsi    SBT 2268   2.542   2.277   4.305
  219fsi    OBT 2269   2.504   2.235   4.173
  219fsi    OBT 2270   2.566   2.175   4.403
  219fsi    FSI 2271   2.681   2.352   4.287
  220fsi    FSI 2272   3.502   0.262   5.839
  220fsi    SBT 2273   3.538   0.335   5.974
  220fsi    NBT 2274   3.685   0.290   5.995
  220fsi    OBT 2275   3.523   0.476   5.945
  220fsi    OBT 2276   3.450   0.279   6.071
  220fsi    SBT 2277   3.805   0.358   5.924
  220fsi    OBT 2278   3.768   0.436   5.809
  220fsi    OBT 2279   3.918   0.272   5.911
  220fsi    FSI 2280   3.846   0.465   6.034
  221fsi    FSI 2281   4.715   5.183   1.717
  221fsi    SBT 2282   4.704   5.309   1.623
  221fsi    NBT 2283   4.836   5.297   1.542
  221fsi    OBT 2284   4.583   5.286   1.546
  221fsi    OBT 2285   4.704   5.421   1.712
  221fsi    SBT 2286   4.850   5.206   1.418
  221fsi    OBT 2287   4.751   5.101   1.411
  221fsi    OBT 2288   4.986   5.167   1.395
  221fsi    FSI 2289   4.813   5.306   1.301
  222fsi    FSI 2290   3.568   5.556   2.561
  222fsi    SBT 2291   3.725   5.566   2.575
  222fsi    NBT 2292   3.768   5.566   2.426
  222fsi    OBT 2293   3.750   5.690   2.644
  222fsi    OBT 2294   3.765   5.446   2.641
  222fsi    SBT 2295   3.767   5.695   2.339
  222fsi    OBT 2296   3.682   5.799   2.391
  222fsi    OBT 2297   3.755   5.663   2.200
  222fsi    FSI 2298   3.916   5.747   2.359
  223fsi    FSI 2299   3.281   2.630   5.414
  223fsi    SBT 2300   3.221   2.561   5.286
  223fsi    NBT 2301   3.070   2.564   5.318
  223fsi    OBT 2302   3.261   2.645   5.176
  223fsi    OBT 2303   3.273   2.427   5.289
  223fsi    SBT 2304   2.982   2.689   5.292
  223fsi    OBT 2305   3.056   2.812   5.279
  223fsi    OBT 2306   2.866   2.693   5.377
  223fsi    FSI 2307   2.927   2.658   5.146
  224fsi    FSI 2308   6.076   6.351   0.933
  224fsi    SBT 2309   5.989   6.430   1.038
  224fsi    NBT 2310   6.025   6.576   1.003
  224fsi    OBT 2311   5.853   6.392   1.009
  224fsi    OBT 2312   6.042   6.391   1.165
  224fsi    SBT 2313   5.956   6.654   0.888
  224fsi    OBT 2314   5.892   6.569   0.791
  224fsi    OBT 2315   6.038   6.760   0.838
  224fsi    FSI 2316   5.838   6.725   0.966
  225fsi    FSI 2317   4.663   6.290   1.961
  225fsi    SBT 2318   4.600   6.354   1.831
  225fsi    NBT 2319   4.570   6.499   1.880
  225fsi    OBT 2320   4.704   6.346   1.732
  225fsi    OBT 2321   4.480   6.280   1.807
  225fsi    SBT 2322   4.678   6.610   1.884
  225fsi    OBT 2323   4.813   6.560   1.882
  225fsi    OBT 2324   4.647   6.712   1.979
  225fsi    FSI 2325   4.656   6.677   1.742
  226fsi    FSI 2326   6.097   6.008   6.726
  226fsi    SBT 2327   6.247   5.998   6.676
  226fsi    NBT 2328   6.228   6.009   6.523
  226fsi    OBT 2329   6.313   6.111   6.737
  226fsi    OBT 2330   6.290   5.868   6.716
  226fsi    SBT 2331   6.213   6.145   6.450
  226fsi    OBT 2332   6.172   6.253   6.536
  226fsi    OBT 2333   6.144   6.132   6.325
  226fsi    FSI 2334   6.364   6.177   6.412
  227fsi    FSI 2335   2.597   0.305   3.061
  227fsi    SBT 2336   2.711   0.413   3.055
  227fsi    NBT 2337   2.627   0.543   3.052
  227fsi    OBT 2338   2.786   0.391   3.177
  227fsi    OBT 2339   2.778   0.389   2.931
  227fsi    SBT 2340   2.571   0.610   3.180
  227fsi    OBT 2341   2.564   0.518   3.292
  227fsi    OBT 2342   2.456   0.689   3.152
  227fsi    FSI 2343   2.688   0.712   3.215
  228fsi    FSI 2344   2.159   5.055   1.256
  228fsi    SBT 2345   2.292   4.995   1.313
  228fsi    NBT 2346   2.238   4.884   1.407
  228fsi    OBT 2347   2.364   4.947   1.197
  228fsi    OBT 2348   2.353   5.103   1.385
  228fsi    SBT 2349   2.196   4.744   1.356
  228fsi    OBT 2350   2.170   4.741   1.214
  228fsi    OBT 2351   2.100   4.682   1.442
  228fsi    FSI 2352   2.331   4.663   1.376
  229fsi    FSI 2353   3.118   4.543   4.656
  229fsi    SBT 2354   3.148   4.431   4.762
  229fsi    NBT 2355   3.245   4.339   4.683
  229fsi    OBT 2356   3.207   4.499   4.874
  229fsi    OBT 2357   3.022   4.366   4.784
  229fsi    SBT 2358   3.396   4.370   4.672
  229fsi    OBT 2359   3.431   4.507   4.699
  229fsi    OBT 2360   3.453   4.310   4.554
  229fsi    FSI 2361   3.453   4.286   4.794
  230fsi    FSI 2362   3.723   6.329   2.755
  230fsi    SBT 2363   3.860   6.406   2.753
  230fsi    NBT 2364   3.812   6.554   2.754
  230fsi    OBT 2365   3.928   6.364   2.873
  230fsi    OBT 2366   3.920   6.370   2.629
  230fsi    SBT 2367   3.773   6.627   2.885
  230fsi    OBT 2368   3.741   6.539   2.994
  230fsi    OBT 2369   3.682   6.735   2.860
  230fsi    FSI 2370   3.910   6.696   2.924
  231fsi    FSI 2371   2.472   4.213   6.547
  231fsi    SBT 2372   2.371   4.188   6.427
  231fsi    NBT 2373   2.337   4.335   6.388
  231fsi    OBT 2374   2.448   4.115   6.330
  231fsi    OBT 2375   2.260   4.122   6.488
  231fsi    SBT 2376   2.428   4.418   6.293
  231fsi    OBT 2377   2.564   4.371   6.286
  231fsi    OBT 2378   2.410   4.559   6.315
  231fsi    FSI 2379   2.363   4.387   6.152
  232fsi    FSI 2380   2.046   2.214   5.782
  232fsi    SBT 2381   1.985   2.233   5.637
  232fsi    NBT 2382   2.086   2.334   5.576
  232fsi    OBT 2383   1.989   2.101   5.578
  232fsi    OBT 2384   1.857   2.292   5.659
  232fsi    SBT 2385   2.221   2.290   5.513
  232fsi    OBT 2386   2.266   2.160   5.556
  232fsi    OBT 2387   2.318   2.395   5.515
  232fsi    FSI 2388   2.180   2.272   5.361
  233fsi    FSI 2389   2.363   5.531   2.495
  233fsi    SBT 2390   2.435   5.663   2.542
  233fsi    NBT 2391   2.584   5.623   2.526
  233fsi    OBT 2392   2.389   5.764   2.449
  233fsi    OBT 2393   2.397   5.678   2.679
  233fsi    SBT 2394   2.658   5.632   2.390
  233fsi    OBT 2395   2.571   5.633   2.275
  233fsi    OBT 2396   2.770   5.542   2.384
  233fsi    FSI 2397   2.721   5.777   2.397
  234fsi    FSI 2398   2.239   6.136   3.645
  234fsi    SBT 2399   2.395   6.118   3.660
  234fsi    NBT 2400   2.404   5.969   3.702
  234fsi    OBT 2401   2.447   6.146   3.528
  234fsi    OBT 2402   2.433   6.207   3.765
  234fsi    SBT 2403   2.399   5.852   3.601
  234fsi    OBT 2404   2.342   5.888   3.473
  234fsi    OBT 2405   2.353   5.730   3.660
  234fsi    FSI 2406   2.553   5.830   3.573
  235fsi    FSI 2407   6.216   5.309   3.336
  235fsi    SBT 2408   6.065   5.279   3.370
  235fsi    NBT 2409   6.018   5.413   3.432
  235fsi    OBT 2410   6.004   5.250   3.242
  235fsi    OBT 2411   6.067   5.174   3.466
  235fsi    SBT 2412   5.977   5.535   3.346
  235fsi    OBT 2413   6.024   5.527   3.209
  235fsi    OBT 2414   5.995   5.658   3.416
  235fsi    FSI 2415   5.820   5.513   3.340
  236fsi    FSI 2416   1.200   2.020   2.712
  236fsi    SBT 2417   1.096   1.905   2.742
  236fsi    NBT 2418   1.177   1.780   2.697
  236fsi    OBT 2419   1.072   1.914   2.884
  236fsi    OBT 2420   0.986   1.931   2.654
  236fsi    SBT 2421   1.281   1.711   2.789
  236fsi    OBT 2422   1.329   1.794   2.896
  236fsi    OBT 2423   1.378   1.639   2.713
  236fsi    FSI 2424   1.191   1.601   2.859
  237fsi    FSI 2425   4.925   5.590   0.661
  237fsi    SBT 2426   4.950   5.518   0.800
  237fsi    NBT 2427   5.105   5.520   0.806
  237fsi    OBT 2428   4.884   5.603   0.896
  237fsi    OBT 2429   4.897   5.387   0.781
  237fsi    SBT 2430   5.185   5.643   0.855
  237fsi    OBT 2431   5.111   5.766   0.848
  237fsi    OBT 2432   5.318   5.645   0.801
  237fsi    FSI 2433   5.201   5.610   1.009
  238fsi    FSI 2434   4.016   6.371   1.870
  238fsi    SBT 2435   3.922   6.341   1.994
  238fsi    NBT 2436   4.009   6.240   2.074
  238fsi    OBT 2437   3.902   6.469   2.057
  238fsi    OBT 2438   3.807   6.278   1.937
  238fsi    SBT 2439   4.122   6.286   2.170
  238fsi    OBT 2440   4.168   6.421   2.146
  238fsi    OBT 2441   4.221   6.184   2.188
  238fsi    FSI 2442   4.043   6.293   2.308
  239fsi    FSI 2443   5.230   5.848   5.685
  239fsi    SBT 2444   5.380   5.823   5.642
  239fsi    NBT 2445   5.457   5.910   5.744
  239fsi    OBT 2446   5.401   5.681   5.657
  239fsi    OBT 2447   5.393   5.875   5.510
  239fsi    SBT 2448   5.490   5.861   5.887
  239fsi    OBT 2449   5.407   5.753   5.932
  239fsi    OBT 2450   5.510   5.968   5.979
  239fsi    FSI 2451   5.635   5.798   5.865
  240fsi    FSI 2452   4.860   2.288   1.901
  240fsi    SBT 2453   4.735   2.328   1.814
  240fsi    NBT 2454   4.803   2.391   1.690
  240fsi    OBT 2455   4.667   2.203   1.788
  240fsi    OBT 2456   4.665   2.425   1.892
  240fsi    SBT 2457   4.858   2.306   1.572
  240fsi    OBT 2458   4.883   2.168   1.607
  240fsi    OBT 2459   4.962   2.374   1.501
  240fsi    FSI 2460   4.733   2.304   1.475
  241fsi    FSI 2461   2.234   4.064   2.006
  241fsi    SBT 2462   2.293   4.191   2.079
  241fsi    NBT 2463   2.168   4.248   2.153
  241fsi    OBT 2464   2.396   4.142   2.166
  241fsi    OBT 2465   2.334   4.280   1.974
  241fsi    SBT 2466   2.120   4.188   2.287
  241fsi    OBT 2467   2.170   4.057   2.318
  241fsi    OBT 2468   1.980   4.214   2.306
  241fsi    FSI 2469   2.192   4.287   2.388
  242fsi    FSI 2470   3.956   1.812   6.109
  242fsi    SBT 2471   3.945   1.966   6.077
  242fsi    NBT 2472   4.075   2.018   6.143
  242fsi    OBT 2473   3.942   1.972   5.933
  242fsi    OBT 2474   3.828   2.009   6.147
  242fsi    SBT 2475   4.212   2.014   6.071
  242fsi    OBT 2476   4.219   1.917   5.964
  242fsi    OBT 2477   4.321   2.013   6.165
  242fsi    FSI 2478   4.216   2.155   6.001
  243fsi    FSI 2479   6.289   2.164   6.372
  243fsi    SBT 2480   6.340   2.313   6.382
  243fsi    NBT 2481   6.487   2.292   6.424
  243fsi    OBT 2482   6.320   2.367   6.250
  243fsi    OBT 2483   6.259   2.371   6.485
  243fsi    SBT 2484   6.600   2.261   6.322
  243fsi    OBT 2485   6.551   2.209   6.197
  243fsi    OBT 2486   6.709   2.192   6.383
  243fsi    FSI 2487   6.653   2.407   6.290
  244fsi    FSI 2488   1.452   2.691   4.324
  244fsi    SBT 2489   1.325   2.768   4.376
  244fsi    NBT 2490   1.386   2.905   4.416
  244fsi    OBT 2491   1.236   2.773   4.262
  244fsi    OBT 2492   1.281   2.693   4.490
  244fsi    SBT 2493   1.412   3.018   4.314
  244fsi    OBT 2494   1.419   2.973   4.177
  244fsi    OBT 2495   1.515   3.107   4.357
  244fsi    FSI 2496   1.277   3.101   4.324
  245fsi    FSI 2497   5.365   6.312   2.679
  245fsi    SBT 2498   5.319   6.437   2.595
  245fsi    NBT 2499   5.383   6.553   2.678
  245fsi    OBT 2500   5.376   6.417   2.465
  245fsi    OBT 2501   5.176   6.437   2.605
  245fsi    SBT 2502   5.531   6.595   2.660
  245fsi    OBT 2503   5.614   6.494   2.600
  245fsi    OBT 2504   5.582   6.660   2.777
  245fsi    FSI 2505   5.518   6.710   2.551
  246fsi    FSI 2506   4.589   3.606   5.378
  246fsi    SBT 2507   4.568   3.453   5.347
  246fsi    NBT 2508   4.714   3.405   5.331
  246fsi    OBT 2509   4.499   3.401   5.463
  246fsi    OBT 2510   4.496   3.450   5.223
  246fsi    SBT 2511   4.804   3.369   5.452
  246fsi    OBT 2512   4.758   3.424   5.577
  246fsi    OBT 2513   4.943   3.382   5.422
  246fsi    FSI 2514   4.778   3.213   5.463
  247fsi    FSI 2515   5.733   0.475   3.385
  247fsi    SBT 2516   5.748   0.407   3.243
  247fsi    NBT 2517   5.902   0.406   3.226
  247fsi    OBT 2518   5.688   0.276   3.258
  247fsi    OBT 2519   5.685   0.498   3.153
  247fsi    SBT 2520   5.991   0.296   3.289
  247fsi    OBT 2521   5.929   0.224   3.397
  247fsi    OBT 2522   6.125   0.342   3.309
  247fsi    FSI 2523   6.000   0.191   3.169
  248fsi    FSI 2524   1.749   3.833   1.716
  248fsi    SBT 2525   1.675   3.694   1.722
  248fsi    NBT 2526   1.711   3.636   1.583
  248fsi    OBT 2527   1.736   3.625   1.834
  248fsi    OBT 2528   1.537   3.727   1.734
  248fsi    SBT 2529   1.844   3.562   1.555
  248fsi    OBT 2530   1.949   3.594   1.649
  248fsi    OBT 2531   1.879   3.567   1.416
  248fsi    FSI 2532   1.804   3.412   1.585
  249fsi    FSI 2533   1.207   4.362   0.884
  249fsi    SBT 2534   1.219   4.518   0.866
  249fsi    NBT 2535   1.097   4.550   0.776
  249fsi    OBT 2536   1.211   4.573   1.000
  249fsi    OBT 2537   1.343   4.540   0.797
  249fsi    SBT 2538   0.954   4.566   0.833
  249fsi    OBT 2539   0.936   4.510   0.964
  249fsi    OBT 2540   0.853   4.537   0.735
  249fsi    FSI 2541   0.948   4.723   0.854
  250fsi    FSI 2542   5.765   1.108   6.343
  250fsi    SBT 2543   5.677   1.217   6.271
  250fsi    NBT 2544   5.780   1.332   6.252
  250fsi    OBT 2545   5.635   1.154   6.149
  250fsi    OBT 2546   5.575   1.251   6.366
  250fsi    SBT 2547   5.880   1.335   6.134
  250fsi    OBT 2548   5.903   1.207   6.072
  250fsi    OBT 2549   5.996   1.412   6.165
  250fsi    FSI 2550   5.800   1.420   6.028
   6.89480   6.89480   6.89480
