L1P2 short trajectory practice
 2550
    1Li+     Li    1   2.857   4.681   4.058  0.6899 -0.5830 -0.4705
    2Li+     Li    2   3.210   2.078   4.116  0.3669 -0.5124  1.3796
    3Li+     Li    3   2.714   4.094   4.266 -0.2071  0.7282  1.5138
    4Li+     Li    4   3.722   1.439   3.390  0.8006 -0.9592 -0.9244
    5Li+     Li    5   1.148   2.455   4.447 -0.1408  0.0205  0.1042
    6Li+     Li    6   5.148   2.294   6.505  0.1790 -0.8932  0.3136
    7Li+     Li    7   2.141   2.427   4.701  0.5907 -1.1765  1.1459
    8Li+     Li    8   1.914   2.288   5.112  0.3098 -0.1027 -0.1370
    9Li+     Li    9   1.420   1.272   3.624  0.0627  0.4059 -0.0314
   10Li+     Li   10   2.826   0.803   3.747 -0.1044 -0.1769  0.4304
   11Li+     Li   11   4.976   0.019   4.459  0.9413  0.0023 -0.0598
   12Li+     Li   12   4.868   1.925   6.144 -0.2281  0.1355  0.3523
   13Li+     Li   13   1.708   1.674   4.626 -0.4659 -0.2826 -0.0797
   14Li+     Li   14   2.193   1.763   4.738  0.5350  0.8232 -1.1393
   15Li+     Li   15   3.374   3.433   4.710 -1.3184  0.0741 -1.0013
   16Li+     Li   16   3.435   2.463   4.492  0.3998 -0.1607  0.3621
   17Li+     Li   17   3.119   3.704   4.090  0.6846  2.1264 -0.2417
   18Li+     Li   18   2.838   4.882   4.532 -0.5645  0.5044 -0.0016
   19Li+     Li   19   4.406   2.516   3.881  0.8515 -0.1703  0.0283
   20Li+     Li   20   5.235   0.563   3.687 -0.6938  1.6440  0.0384
   21Li+     Li   21   5.088   1.143   4.344 -0.8610 -0.9151  0.5764
   22Li+     Li   22   4.679   1.408   2.260 -1.7925 -0.3041  0.2930
   23Li+     Li   23   2.330   4.449   4.384 -0.2854 -0.0957  0.4460
   24Li+     Li   24   4.520   0.921   3.787 -0.2690 -0.7002 -1.0964
   25Li+     Li   25   3.574   0.126   6.363  1.0708 -0.4937  0.9603
   26Li+     Li   26   3.064   2.927   4.613 -0.0082 -0.2201 -0.0784
   27Li+     Li   27   1.240   2.022   4.673  0.6848  0.0664  0.0252
   28Li+     Li   28   3.504   1.088   3.167 -0.4540  0.4834 -0.0371
   29Li+     Li   29   4.008   1.113   4.033 -0.5137 -0.2385 -0.3340
   30Li+     Li   30   5.077   0.235   3.992  0.8302 -0.1626 -0.5507
   31Li+     Li   31   3.931   0.684   3.117  0.1757 -0.2053 -0.4028
   32Li+     Li   32   4.582   1.816   1.831  0.2860  0.6248  0.1175
   33Li+     Li   33   5.042   2.420   5.820  0.5041  0.0655 -0.4146
   34Li+     Li   34   4.799   1.505   1.255 -0.1341  0.7666 -0.6925
   35Li+     Li   35   5.121   2.322   0.887  0.6145 -0.2651  1.1210
   36Li+     Li   36   4.931   2.725   0.924  0.0368  0.8042 -0.2060
   37Li+     Li   37   2.290   0.736   3.595  0.3056  0.4399 -0.3524
   38Li+     Li   38   5.024   2.087   4.683  0.6248 -0.2901  0.1578
   39Li+     Li   39   4.499   1.904   2.640 -1.2035  1.1405  0.1532
   40Li+     Li   40   2.300   1.790   3.481 -0.9088 -1.0223 -0.3129
   41Li+     Li   41   3.886   0.698   3.921  0.1997 -0.1401  0.0722
   42Li+     Li   42   5.324   0.677   4.250  0.5645  0.2019  0.3978
   43Li+     Li   43   2.243   4.845   4.365  0.0713  0.9846  0.1853
   44Li+     Li   44   4.190   1.481   3.637  0.4757  0.0754 -0.1755
   45Li+     Li   45   4.997   0.882   3.908 -1.1011 -0.6854 -0.0949
   46Li+     Li   46   4.974   1.677   2.465 -1.0412  0.0324  0.1002
   47Li+     Li   47   2.645   3.950   3.880 -0.2653  0.4163 -0.9877
   48Li+     Li   48   4.116   0.935   3.345  1.3258 -0.9328  1.0875
   49Li+     Li   49   3.745   2.986   4.618  0.1704  0.8206 -0.0173
   50Li+     Li   50   3.097   3.404   3.937  0.7919  0.1054 -0.6910
   51Li+     Li   51   3.797   0.727   3.560 -0.2247  0.9700 -0.9722
   52Li+     Li   52   4.876   1.754   6.632 -0.6376  0.9000  0.0690
   53Li+     Li   53   5.262   2.181   6.012 -0.2804  0.6618 -0.2557
   54Li+     Li   54   2.584   0.536   3.225 -0.4656  0.3829 -1.1635
   55Li+     Li   55   3.453   1.788   3.808 -0.2153 -0.7363 -0.5574
   56Li+     Li   56   2.637   2.485   4.303 -0.1691 -0.1859 -0.1521
   57Li+     Li   57   4.478   1.850   0.093 -0.3590 -1.3220 -0.3890
   58Li+     Li   58   4.952   0.429   4.529 -0.7473  0.8795 -0.5797
   59Li+     Li   59   2.327   1.007   4.024 -0.2917 -1.0424 -0.2238
   60Li+     Li   60   2.777   3.001   4.144  0.1744  0.1979  0.5761
   61Li+     Li   61   1.219   1.603   4.276 -0.3457  0.0439  0.7086
   62Li+     Li   62   4.671   2.581   4.338 -0.0255 -0.7196 -0.1464
   63Li+     Li   63   3.364   1.058   3.761 -0.6463  0.2756 -0.6345
   64Li+     Li   64   1.385   2.020   4.007 -1.0788  0.0976  0.5684
   65Li+     Li   65   1.748   2.114   4.643 -1.0154 -0.2760 -0.2426
   66Li+     Li   66   1.839   4.589   4.611 -0.0539 -0.9042 -0.2315
   67Li+     Li   67   3.502   3.024   4.214 -0.7044  0.7599  0.8004
   68Li+     Li   68   4.565   2.489   4.811  0.6420  0.5609 -0.2542
   69Li+     Li   69   3.020   3.515   4.513 -0.1807  0.9070  0.4870
   70Li+     Li   70   1.759   1.852   3.594  0.2749 -0.0661  0.1137
   71Li+     Li   71   4.660   2.398   1.923 -1.3631  0.5560  0.5710
   72Li+     Li   72   2.248   2.671   5.210 -0.8849 -0.1081 -1.0893
   73Li+     Li   73   0.831   2.106   4.086 -0.7501 -0.4315  0.8511
   74Li+     Li   74   2.374   4.446   3.903  0.8938  0.5131  0.1219
   75Li+     Li   75   3.079   4.480   4.384  0.3067 -0.3215  0.2830
   76c3c     N4   76   1.828   1.163   4.019 -0.3952  0.3829  0.6453
   76c3c     C1   77   1.761   1.295   4.021  0.2112  0.4400  1.0387
   76c3c     C1   78   1.934   1.183   3.918  0.2826  0.3685 -0.2314
   76c3c     C2   79   1.876   1.388   4.012  0.0603 -1.0529 -0.5350
   76c3c     C2   80   1.996   1.313   3.960  0.1545  0.1829 -0.1972
   76c3c     C1   81   1.884   1.130   4.148  0.2817 -0.0533  0.4121
   76c3c     C1   82   1.746   1.050   3.978  0.3316  0.2092 -0.2325
   76c3c     H1   83   1.699   1.313   4.109  0.1672  1.2627  0.8405
   76c3c     H1   84   1.706   1.325   3.932 -0.0622  1.4149  1.5330
   76c3c     H1   85   2.014   1.111   3.901 -0.4915 -0.9244  1.4730
   76c3c     H1   86   1.890   1.192   3.819  1.9067 -0.9521 -1.0925
   76c3c     HC   87   1.887   1.439   4.108 -1.1822 -0.8773 -0.4733
   76c3c     HC   88   1.856   1.462   3.935 -0.4277 -1.0819 -0.4414
   76c3c     HC   89   2.060   1.292   4.046 -0.6416 -2.1555 -0.1196
   76c3c     HC   90   2.052   1.357   3.878  0.1902  2.2651  0.9191
   76c3c     H1   91   1.801   1.125   4.218 -0.1558  1.4358  0.0306
   76c3c     H1   92   1.945   1.041   4.159  0.4509 -0.0411 -0.3596
   76c3c     H1   93   1.939   1.214   4.191  1.8503 -0.9154  0.1153
   76c3c     H1   94   1.801   0.960   3.951 -0.0959  0.6982 -2.8764
   76c3c     H1   95   1.696   1.026   4.072  0.3361  2.4847  0.3724
   76c3c     C2   96   1.642   1.072   3.865  0.4704 -0.1817 -0.1698
   76c3c     HC   97   1.689   1.110   3.774  1.0649  1.2392  0.7267
   76c3c     HC   98   1.572   1.147   3.904  0.1242 -0.6032  0.0199
   76c3c     CT   99   1.568   0.947   3.821 -0.3224 -0.0838 -0.3938
   76c3c     HC  100   1.509   0.903   3.900 -1.0659 -0.4900 -1.1726
   76c3c     HC  101   1.639   0.874   3.783  0.0239 -0.4355  0.9208
   76c3c     HC  102   1.521   0.966   3.724  1.9927  0.1240 -1.5169
   77c3c     N4  103   2.880   2.079   4.671 -0.2636  0.0854  0.7076
   77c3c     C1  104   2.759   2.007   4.628 -0.0582 -0.0737 -0.2355
   77c3c     C1  105   2.978   1.973   4.677  0.6688 -0.9753 -0.0672
   77c3c     C2  106   2.803   1.890   4.532  0.9110 -0.0155  0.4440
   77c3c     C2  107   2.948   1.873   4.560 -0.0565 -0.2621 -0.5100
   77c3c     C1  108   2.918   2.175   4.567 -0.1167  0.4667  0.6900
   77c3c     C1  109   2.862   2.160   4.798 -0.0772 -0.1307 -0.4014
   77c3c     H1  110   2.679   2.077   4.604 -0.3775  0.0605  1.1690
   77c3c     H1  111   2.718   1.952   4.713 -0.6338 -2.0901 -1.7674
   77c3c     H1  112   3.073   2.026   4.674 -0.3373  0.8822  0.0371
   77c3c     H1  113   2.976   1.918   4.771  2.0312  0.1717  0.6436
   77c3c     HC  114   2.785   1.908   4.426  1.0005  3.4876  0.9508
   77c3c     HC  115   2.751   1.801   4.567 -1.2341  0.0940 -2.2585
   77c3c     HC  116   3.004   1.910   4.474 -1.0108  0.6694 -0.7384
   77c3c     HC  117   2.975   1.776   4.601  0.0404  0.2348  0.6225
   77c3c     H1  118   2.847   2.257   4.569 -1.4296 -0.6012 -1.0441
   77c3c     H1  119   3.015   2.222   4.582  1.1591 -1.4721 -1.1907
   77c3c     H1  120   2.925   2.124   4.471 -1.9835 -1.2650  1.4236
   77c3c     H1  121   2.938   2.237   4.812  0.2920 -0.9178  2.0364
   77c3c     H1  122   2.768   2.217   4.797  0.0741  0.1220 -0.1799
   77c3c     C2  123   2.864   2.082   4.937  0.1548 -0.4387 -0.0503
   77c3c     HC  124   2.967   2.056   4.960  0.6800  1.4722 -0.1070
   77c3c     HC  125   2.808   1.989   4.937 -1.6296  0.6004  2.1367
   77c3c     CT  126   2.845   2.174   5.061  0.4355  0.0698  0.6889
   77c3c     HC  127   2.754   2.233   5.043  0.6580  0.9576  2.4049
   77c3c     HC  128   2.922   2.251   5.062  1.1730 -0.6792  1.4844
   77c3c     HC  129   2.842   2.121   5.156 -0.5234  0.1774  0.7288
   78c3c     N4  130   6.830   1.913   4.268  0.2080 -0.7550  0.5607
   78c3c     C1  131   6.792   1.948   4.411 -0.9251 -0.5501  0.1214
   78c3c     C1  132   6.922   1.802   4.285 -0.7596  0.3391  0.5235
   78c3c     C2  133   6.793   1.820   4.486 -1.0611 -0.2917 -0.2216
   78c3c     C2  134   6.881   1.724   4.407 -0.4956 -0.2114 -0.0287
   78c3c     C1  135   6.716   1.870   4.196 -0.1156  0.8414  0.1118
   78c3c     C1  136   6.881   2.028   4.192 -0.2081 -0.1081  0.4075
   78c3c     H1  137   6.697   2.000   4.417 -0.4953  0.2328  0.1586
   78c3c     H1  138   6.871   2.010   4.454 -1.2872  0.1565 -0.2362
   78c3c     H1  139   6.924   1.749   4.190 -0.1517 -1.1767  1.3767
   78c3c     H1  140   7.023   1.839   4.300 -1.1388  1.6793 -0.1233
   78c3c     HC  141   6.690   1.786   4.501 -1.0252 -0.7793 -1.0852
   78c3c     HC  142   6.841   1.833   4.583 -2.1608  1.9845  0.0367
   78c3c     HC  143   6.829   1.631   4.385 -0.1792  0.3822 -3.4981
   78c3c     HC  144   6.963   1.687   4.469  0.8473  1.2537 -0.8907
   78c3c     H1  145   6.645   1.951   4.178 -0.7249 -0.1629 -2.1819
   78c3c     H1  146   6.743   1.840   4.095  2.2388 -0.3281  1.0723
   78c3c     H1  147   6.666   1.784   4.241 -1.2487  2.4043  1.8909
   78c3c     H1  148   6.899   2.004   4.087  1.0677  2.1990  0.0729
   78c3c     H1  149   6.811   2.111   4.189  0.4114  0.3998 -0.1455
   78c3c     C2  150   7.016   2.087   4.238  0.0183  0.7996  0.3149
   78c3c     HC  151   7.097   2.020   4.209 -0.9371 -1.2512  2.2246
   78c3c     HC  152   7.010   2.108   4.345 -0.9723 -0.6416  0.5501
   78c3c     CT  153   7.050   2.224   4.175  0.0577  0.6684 -0.0486
   78c3c     HC  154   7.071   2.218   4.068 -1.1813 -1.4149 -0.2104
   78c3c     HC  155   7.140   2.262   4.223 -0.4595 -0.8177  2.1521
   78c3c     HC  156   6.985   2.307   4.201 -0.9850 -0.2828  0.4253
   79c3c     N4  157   3.252   1.837   3.276 -0.1927  0.5160  0.6958
   79c3c     C1  158   3.225   1.701   3.328  0.5020  0.4286  0.7965
   79c3c     C1  159   3.122   1.898   3.305  0.2491  0.2569  0.2148
   79c3c     C2  160   3.138   1.707   3.454 -0.5047 -0.6536 -0.7597
   79c3c     C2  161   3.075   1.850   3.439 -0.1559  0.3500  0.2968
   79c3c     C1  162   3.345   1.914   3.357  0.0226  0.2988  0.0712
   79c3c     C1  163   3.297   1.839   3.139 -0.5474 -0.2173  0.6480
   79c3c     H1  164   3.316   1.642   3.341  1.2816  0.8367 -2.3677
   79c3c     H1  165   3.156   1.644   3.265 -0.4652 -1.6660  3.6772
   79c3c     H1  166   3.113   2.006   3.294 -4.2947  0.3086  3.1581
   79c3c     H1  167   3.042   1.856   3.244 -0.9771  4.1460 -1.0692
   79c3c     HC  168   3.204   1.712   3.540  0.3572  0.1123 -1.4580
   79c3c     HC  169   3.064   1.629   3.473 -0.0585 -0.8188  0.3322
   79c3c     HC  170   3.118   1.917   3.514  0.4956  1.0730 -0.7143
   79c3c     HC  171   2.967   1.835   3.443 -0.5493  2.2918 -2.0141
   79c3c     H1  172   3.448   1.881   3.343  0.3576  0.4634  1.9769
   79c3c     H1  173   3.349   2.022   3.340  1.2154  0.3003  0.3252
   79c3c     H1  174   3.325   1.896   3.463 -0.5206  0.5630  0.0167
   79c3c     H1  175   3.329   1.941   3.122 -2.3276  0.2854  0.2329
   79c3c     H1  176   3.393   1.788   3.141 -0.3605  0.1492  0.8462
   79c3c     C2  177   3.200   1.798   3.030 -0.1949  0.5818 -0.0429
   79c3c     HC  178   3.110   1.860   3.033 -0.2409  0.4274  2.4746
   79c3c     HC  179   3.168   1.697   3.055  1.9874 -0.1433  0.0054
   79c3c     CT  180   3.254   1.799   2.888  0.6833 -0.5047 -0.4435
   79c3c     HC  181   3.271   1.903   2.859  2.0972 -1.0360 -1.5761
   79c3c     HC  182   3.181   1.753   2.820 -0.7508  2.6096 -1.0980
   79c3c     HC  183   3.349   1.746   2.880  1.5358  0.6587  1.6720
   80c3c     N4  184   2.343   3.091   4.867  0.3080  0.3399 -0.3235
   80c3c     C1  185   2.232   2.998   4.888  0.1781 -0.3155 -0.3447
   80c3c     C1  186   2.472   3.012   4.896 -0.1550 -1.3428 -0.0825
   80c3c     C2  187   2.296   2.868   4.833 -0.2597 -0.0131 -0.6514
   80c3c     C2  188   2.445   2.872   4.840 -0.1044 -0.5984  0.3364
   80c3c     C1  189   2.342   3.132   4.723  0.5497 -0.4660 -0.0265
   80c3c     C1  190   2.322   3.216   4.945 -0.0430  0.1451  0.1533
   80c3c     H1  191   2.148   3.036   4.830  0.9945  0.3699 -1.1072
   80c3c     H1  192   2.196   2.978   4.989 -0.0303  5.6566  0.9757
   80c3c     H1  193   2.562   3.060   4.857 -0.0848  0.5059  2.2398
   80c3c     H1  194   2.495   3.010   5.003  2.0769  0.2697 -0.4881
   80c3c     HC  195   2.262   2.849   4.731  1.4543 -2.5420 -0.7888
   80c3c     HC  196   2.257   2.786   4.893 -2.2748 -0.1634 -2.1028
   80c3c     HC  197   2.487   2.863   4.740  3.0155 -2.8590  1.7362
   80c3c     HC  198   2.470   2.779   4.890  0.8625 -0.5164  0.0235
   80c3c     H1  199   2.255   3.194   4.703 -1.3357 -2.5681  1.3066
   80c3c     H1  200   2.435   3.176   4.689  1.2973 -2.5279 -0.7080
   80c3c     H1  201   2.331   3.052   4.649  2.0778  1.7855 -2.7769
   80c3c     H1  202   2.412   3.275   4.933  0.7636 -0.8650  1.1400
   80c3c     H1  203   2.236   3.275   4.913  0.7634  0.4864 -1.4442
   80c3c     C2  204   2.294   3.211   5.100  0.3127  0.4499 -0.3801
   80c3c     HC  205   2.365   3.154   5.160 -0.5942  1.1643  1.4057
   80c3c     HC  206   2.206   3.150   5.120  0.8290 -0.3051 -0.4077
   80c3c     CT  207   2.279   3.353   5.157 -0.0938 -0.0710 -0.4055
   80c3c     HC  208   2.172   3.376   5.154 -0.3623 -1.0892  0.7677
   80c3c     HC  209   2.330   3.425   5.093 -0.5185 -0.7726 -1.5572
   80c3c     HC  210   2.325   3.345   5.255 -0.9731  0.2622  0.0407
   81c3c     N4  211   4.473   1.436   0.553  0.2060 -0.3664  0.0372
   81c3c     C1  212   4.566   1.353   0.464 -0.0272  0.3317 -0.4911
   81c3c     C1  213   4.432   1.338   0.652 -0.0778 -0.6658 -0.1414
   81c3c     C2  214   4.648   1.268   0.558 -0.6772 -0.6584  0.0409
   81c3c     C2  215   4.552   1.244   0.677 -0.3029  0.5137  0.0853
   81c3c     C1  216   4.545   1.546   0.625  0.8078 -0.1831 -0.2043
   81c3c     C1  217   4.361   1.499   0.480  0.0592 -0.7958 -0.4930
   81c3c     H1  218   4.626   1.407   0.391 -0.6849 -0.7761 -1.8879
   81c3c     H1  219   4.507   1.284   0.403  3.0743 -1.3202 -1.7464
   81c3c     H1  220   4.413   1.395   0.744  1.7973  0.2548 -0.2998
   81c3c     H1  221   4.336   1.292   0.628  0.1081 -1.3262  0.3697
   81c3c     HC  222   4.741   1.318   0.584  0.1092  0.0039 -3.7426
   81c3c     HC  223   4.682   1.187   0.493 -0.0217 -0.6175  0.3339
   81c3c     HC  224   4.598   1.275   0.771  1.1545 -0.8378 -0.1595
   81c3c     HC  225   4.528   1.138   0.682 -0.7226  0.6099  0.0949
   81c3c     H1  226   4.591   1.617   0.555  2.9021 -0.5689  0.7434
   81c3c     H1  227   4.482   1.603   0.692  0.4808 -1.3565  0.4988
   81c3c     H1  228   4.619   1.511   0.696  1.0407 -1.6859 -1.1559
   81c3c     H1  229   4.308   1.563   0.551 -0.2809 -2.5966  0.8935
   81c3c     H1  230   4.401   1.561   0.400  0.5103  0.0323  0.3613
   81c3c     C2  231   4.259   1.403   0.411  0.7474 -0.1855  0.1391
   81c3c     HC  232   4.200   1.353   0.488  0.5905 -1.1976 -0.6263
   81c3c     HC  233   4.301   1.328   0.344  0.7761 -0.1433  0.1092
   81c3c     CT  234   4.159   1.476   0.330 -0.3855  0.3220 -0.8626
   81c3c     HC  235   4.203   1.550   0.263  0.1148  0.2779 -0.5847
   81c3c     HC  236   4.105   1.548   0.392 -1.3472 -0.0369 -1.2737
   81c3c     HC  237   4.080   1.415   0.285 -1.5927  0.5265  0.9274
   82c3c     N4  238   4.954   2.577   0.326 -0.1770  0.3174  0.3187
   82c3c     C1  239   5.070   2.521   0.406  0.6003 -0.3863  0.2050
   82c3c     C1  240   5.014   2.693   0.255 -0.3752 -0.3723 -0.0329
   82c3c     C2  241   5.192   2.535   0.314 -0.1562 -0.2825 -0.1360
   82c3c     C2  242   5.164   2.666   0.245 -0.4561 -0.4039 -0.0030
   82c3c     C1  243   4.910   2.470   0.230 -0.4429  0.1984  0.3241
   82c3c     C1  244   4.833   2.622   0.405  0.4651 -0.2983  0.3166
   82c3c     H1  245   5.046   2.419   0.436  1.0846 -0.4902  0.2408
   82c3c     H1  246   5.089   2.566   0.503  0.9888 -1.9841  0.8830
   82c3c     H1  247   4.961   2.718   0.163 -0.0104  0.1580 -0.0983
   82c3c     H1  248   5.007   2.782   0.316 -0.4564 -1.2900  1.3183
   82c3c     HC  249   5.206   2.446   0.252  0.7504 -0.2279 -0.0181
   82c3c     HC  250   5.288   2.542   0.365 -0.4856  0.2825  0.4130
   82c3c     HC  251   5.207   2.659   0.145 -0.5912 -0.2603 -0.0714
   82c3c     HC  252   5.218   2.749   0.289 -2.0495 -0.0854  1.3865
   82c3c     H1  253   4.876   2.372   0.265 -3.2130 -0.2808 -3.4116
   82c3c     H1  254   4.832   2.503   0.161 -1.5312  0.4508  1.6630
   82c3c     H1  255   4.994   2.452   0.162  0.7952 -0.0980  1.9050
   82c3c     H1  256   4.747   2.644   0.342  0.5433 -2.1614 -0.4528
   82c3c     H1  257   4.794   2.540   0.464 -0.9100  0.7409  0.8816
   82c3c     C2  258   4.855   2.743   0.506 -0.0453 -0.2481 -0.3990
   82c3c     HC  259   4.879   2.841   0.463 -0.4296 -0.6970 -1.6411
   82c3c     HC  260   4.944   2.730   0.567  0.2230 -0.0826 -0.7525
   82c3c     CT  261   4.746   2.781   0.607 -0.1126  0.5877 -0.0364
   82c3c     HC  262   4.650   2.790   0.555  0.3548  0.0027 -1.0146
   82c3c     HC  263   4.772   2.868   0.667 -1.5466 -0.2164  1.8239
   82c3c     HC  264   4.741   2.698   0.678  0.1500 -0.9273 -1.7513
   83c3c     N4  265   4.847   2.072   3.288  0.1410 -0.0890 -0.3419
   83c3c     C1  266   4.903   2.112   3.156  0.0957  0.2326 -0.3886
   83c3c     C1  267   4.958   2.006   3.356 -0.1304 -0.1758 -0.1037
   83c3c     C2  268   5.007   2.001   3.118  0.2890 -0.1223  0.1406
   83c3c     C2  269   5.033   1.930   3.249 -0.4096  0.2943  0.5866
   83c3c     C1  270   4.812   2.192   3.358 -0.5868  0.5509  0.7346
   83c3c     C1  271   4.730   1.989   3.288  0.1420  0.4215 -0.3202
   83c3c     H1  272   4.970   2.195   3.181 -0.6626  0.7154  0.0434
   83c3c     H1  273   4.831   2.137   3.078 -1.4388  0.7783  1.1926
   83c3c     H1  274   5.021   2.085   3.395 -0.1077 -0.8626  1.2798
   83c3c     H1  275   4.932   1.945   3.443 -0.0295 -0.7001 -0.4392
   83c3c     HC  276   5.098   2.039   3.072  0.4727 -0.8414 -0.1105
   83c3c     HC  277   4.964   1.935   3.042 -1.1404 -0.8782  1.5568
   83c3c     HC  278   5.140   1.917   3.269 -0.1265  2.2358  0.4600
   83c3c     HC  279   4.983   1.834   3.235  1.2604 -0.6395  0.8966
   83c3c     H1  280   4.732   2.252   3.315 -0.3443  0.5750  0.3126
   83c3c     H1  281   4.785   2.178   3.462 -1.5109  0.1351  0.4407
   83c3c     H1  282   4.894   2.263   3.362  1.3462 -1.6652  1.8507
   83c3c     H1  283   4.719   1.947   3.388  3.2325 -1.4257 -0.6661
   83c3c     H1  284   4.650   2.059   3.264  1.0391  1.3681 -0.5806
   83c3c     C2  285   4.722   1.867   3.189  0.0714  0.1846 -0.0949
   83c3c     HC  286   4.788   1.786   3.219 -1.6850 -1.7483 -1.2695
   83c3c     HC  287   4.748   1.900   3.088 -0.0359  0.3435 -0.0708
   83c3c     CT  288   4.578   1.821   3.184 -0.0469  0.5709 -0.7333
   83c3c     HC  289   4.558   1.778   3.085 -0.7728 -1.6550  0.3576
   83c3c     HC  290   4.502   1.894   3.211 -0.4790  0.1460 -0.7999
   83c3c     HC  291   4.559   1.737   3.249  0.3371 -0.1065 -1.4848
   84c3c     N4  292   4.375   0.386   4.423 -0.1432  0.1104  0.2503
   84c3c     C1  293   4.300   0.470   4.322  0.6494  0.7376 -0.3135
   84c3c     C1  294   4.284   0.367   4.535  0.0401  0.2931 -0.1692
   84c3c     C2  295   4.157   0.405   4.327  0.0400 -0.5151 -0.8484
   84c3c     C2  296   4.146   0.349   4.466 -1.0069 -0.3223  0.6229
   84c3c     C1  297   4.395   0.258   4.355 -0.3796  0.2560  0.5006
   84c3c     C1  298   4.509   0.443   4.452 -0.5466  0.7994 -1.0334
   84c3c     H1  299   4.348   0.475   4.224 -1.6807  2.9333 -1.4084
   84c3c     H1  300   4.278   0.573   4.351  1.7454  0.1161  2.9905
   84c3c     H1  301   4.327   0.292   4.601 -0.4286 -2.0746 -2.4588
   84c3c     H1  302   4.268   0.463   4.583  0.0147 -0.2820  0.9669
   84c3c     HC  303   4.154   0.329   4.249 -0.7278 -1.6184  0.2495
   84c3c     HC  304   4.081   0.475   4.292 -0.7630 -1.0005 -0.1049
   84c3c     HC  305   4.120   0.243   4.463 -1.7956 -0.0949 -1.8833
   84c3c     HC  306   4.074   0.397   4.533 -3.6868 -2.1190 -0.8640
   84c3c     H1  307   4.461   0.273   4.270  1.6182 -1.8339  1.6332
   84c3c     H1  308   4.452   0.190   4.418 -0.0835 -0.2304 -0.2697
   84c3c     H1  309   4.307   0.200   4.327 -0.6178  0.2765  1.2106
   84c3c     H1  310   4.565   0.370   4.510 -0.3547  2.1466  0.5236
   84c3c     H1  311   4.560   0.445   4.356  0.6347 -0.8751 -0.4670
   84c3c     C2  312   4.502   0.585   4.522  0.0537  0.3579  0.0533
   84c3c     HC  313   4.442   0.577   4.613  2.0820 -0.0816  1.3873
   84c3c     HC  314   4.467   0.655   4.447 -0.1806  1.5849  1.2781
   84c3c     CT  315   4.632   0.645   4.558 -0.1788 -0.7159  0.0221
   84c3c     HC  316   4.614   0.752   4.565  1.5082 -0.3458 -1.1472
   84c3c     HC  317   4.709   0.649   4.481  1.2979  0.5488  1.5015
   84c3c     HC  318   4.677   0.603   4.649 -0.9874  0.3918  0.9492
   85c3c     N4  319   2.900   1.138   3.393 -0.3005 -0.3628  0.3236
   85c3c     C1  320   2.831   1.206   3.282 -0.6201 -0.1527 -0.3512
   85c3c     C1  321   3.018   1.223   3.411  0.1212  0.3748  0.0023
   85c3c     C2  322   2.843   1.356   3.307 -0.1344 -0.1308 -0.2760
   85c3c     C2  323   2.974   1.363   3.378 -0.5522  0.3047  0.1531
   85c3c     C1  324   2.807   1.142   3.511 -0.7988  0.0985  0.6866
   85c3c     C1  325   2.929   0.998   3.362 -1.1767 -0.3178  0.8865
   85c3c     H1  326   2.727   1.179   3.265 -0.6376 -0.5526  0.3966
   85c3c     H1  327   2.885   1.199   3.187  0.7209 -0.5712  0.4268
   85c3c     H1  328   3.057   1.218   3.513  2.2518 -1.9258 -0.8805
   85c3c     H1  329   3.103   1.202   3.347  1.6710  0.1414  2.0814
   85c3c     HC  330   2.759   1.386   3.370 -0.3100  3.4596 -2.1210
   85c3c     HC  331   2.848   1.411   3.213 -0.0371  2.4318  1.1864
   85c3c     HC  332   2.953   1.415   3.471  0.4712  0.8922  0.0609
   85c3c     HC  333   3.045   1.427   3.325  3.0049 -2.9142  0.7486
   85c3c     H1  334   2.851   1.115   3.607 -0.2006 -0.5388  0.2275
   85c3c     H1  335   2.765   1.242   3.525 -0.4670  0.4679 -0.8842
   85c3c     H1  336   2.724   1.077   3.485  0.7959 -0.9449 -1.9906
   85c3c     H1  337   2.982   0.961   3.451  0.6011  0.7332  0.2856
   85c3c     H1  338   2.838   0.939   3.351 -0.7946 -0.8983  0.8003
   85c3c     C2  339   3.039   0.963   3.260 -0.0092 -0.2924  0.4938
   85c3c     HC  340   3.136   0.998   3.295 -0.8221 -0.0238  2.5459
   85c3c     HC  341   3.017   1.006   3.163 -0.0726  1.4162  1.2461
   85c3c     CT  342   3.050   0.814   3.249 -0.7111  0.5733  0.2237
   85c3c     HC  343   2.952   0.768   3.241  0.0606 -1.2838  1.1119
   85c3c     HC  344   3.099   0.768   3.335 -1.9017 -0.7812  0.2101
   85c3c     HC  345   3.116   0.781   3.168 -0.7246 -2.4818  1.3782
   86c3c     N4  346   3.940   3.477   4.235  0.3273  0.2767  0.2930
   86c3c     C1  347   4.014   3.607   4.218 -0.4276  0.0963 -0.0515
   86c3c     C1  348   3.980   3.424   4.363 -0.7554  0.6729 -0.3535
   86c3c     C2  349   3.997   3.674   4.354  0.1863  0.4266  0.0562
   86c3c     C2  350   3.973   3.551   4.452 -0.1850  0.7186  0.2897
   86c3c     C1  351   3.795   3.508   4.234  0.4441  0.4227  0.1757
   86c3c     C1  352   3.958   3.387   4.125  0.1717 -0.1270 -0.7222
   86c3c     H1  353   3.966   3.666   4.139 -2.2180  0.3435  1.1842
   86c3c     H1  354   4.123   3.609   4.210 -0.4417  1.4903 -0.1590
   86c3c     H1  355   3.907   3.350   4.398 -1.3703  0.9532 -1.0315
   86c3c     H1  356   4.077   3.374   4.361 -1.7204 -1.2929  0.7339
   86c3c     HC  357   3.914   3.744   4.357  0.7481  1.1466 -0.9526
   86c3c     HC  358   4.084   3.735   4.379  0.1291 -0.9106  3.9480
   86c3c     HC  359   3.873   3.561   4.493  0.4903 -0.9044  2.4522
   86c3c     HC  360   4.048   3.558   4.532 -0.0638 -0.9608  0.3255
   86c3c     H1  361   3.768   3.558   4.141  1.9998  0.6562 -0.1714
   86c3c     H1  362   3.728   3.422   4.240 -0.8655  1.4689  0.6029
   86c3c     H1  363   3.761   3.579   4.309  1.8693  0.2033  1.0487
   86c3c     H1  364   3.942   3.283   4.156  0.1652  0.3089  0.7715
   86c3c     H1  365   3.892   3.407   4.040 -2.2295 -1.7959  0.6566
   86c3c     C2  366   4.096   3.383   4.062 -0.1377 -0.4772 -0.1298
   86c3c     HC  367   4.171   3.365   4.140  0.9556  1.3734 -0.7125
   86c3c     HC  368   4.123   3.477   4.014 -2.2445  0.7230  0.9667
   86c3c     CT  369   4.113   3.264   3.963 -0.2093  0.5163  0.5391
   86c3c     HC  370   4.098   3.174   4.023 -0.9397 -0.0572 -0.4864
   86c3c     HC  371   4.214   3.256   3.922  0.2983  2.3727  1.3696
   86c3c     HC  372   4.041   3.271   3.882  1.2522 -1.8944 -1.0295
   87c3c     N4  373   4.911   1.928   0.595 -0.4824  0.0152 -0.4881
   87c3c     C1  374   4.938   1.954   0.733 -0.1589 -0.2511  0.1504
   87c3c     C1  375   4.789   1.844   0.606  0.2517  0.2334  0.2208
   87c3c     C2  376   4.802   1.983   0.801  0.2757 -0.2873  0.0811
   87c3c     C2  377   4.704   1.918   0.707  0.5243 -0.1183 -0.4616
   87c3c     C1  378   4.875   2.052   0.521 -0.0403  0.3727 -0.1712
   87c3c     C1  379   5.021   1.872   0.516  0.0347  0.5359 -0.2905
   87c3c     H1  380   5.018   2.027   0.735 -0.6867  0.3074  1.3212
   87c3c     H1  381   4.990   1.867   0.774  0.9881  0.3877  0.0787
   87c3c     H1  382   4.737   1.837   0.511 -2.0551 -1.1579  1.5617
   87c3c     H1  383   4.812   1.746   0.647  0.9933  1.3635  2.6206
   87c3c     HC  384   4.781   2.090   0.805 -0.9243 -0.4924 -0.5798
   87c3c     HC  385   4.793   1.937   0.899 -1.3069  1.4025  0.7618
   87c3c     HC  386   4.654   1.993   0.646  0.9441  1.4911  1.1477
   87c3c     HC  387   4.638   1.847   0.758 -2.9812  3.1463 -0.2796
   87c3c     H1  388   4.956   2.111   0.479 -0.6360  0.9165 -0.5802
   87c3c     H1  389   4.812   2.030   0.434 -0.4927  0.8956  0.0197
   87c3c     H1  390   4.808   2.120   0.574  0.6408  0.7597  0.2015
   87c3c     H1  391   4.985   1.866   0.413 -1.9437  0.6534  0.3803
   87c3c     H1  392   5.110   1.934   0.516  0.8051 -0.5456  0.3587
   87c3c     C2  393   5.064   1.728   0.549  0.4729 -0.5773 -0.6057
   87c3c     HC  394   4.976   1.665   0.533  0.3711 -0.3795 -0.8261
   87c3c     HC  395   5.102   1.722   0.651 -0.1716  1.3888 -0.2138
   87c3c     CT  396   5.193   1.681   0.469  0.2929 -1.0391  1.0856
   87c3c     HC  397   5.218   1.583   0.509  0.5157 -1.1179  0.7628
   87c3c     HC  398   5.285   1.739   0.484  0.2344 -0.9881  1.2500
   87c3c     HC  399   5.179   1.682   0.361  0.3142 -0.2912  1.0870
   88c3c     N4  400   3.021   2.729   5.048  0.0091  0.0797  0.4402
   88c3c     C1  401   2.905   2.808   5.076  0.4013 -0.0422 -0.1363
   88c3c     C1  402   2.995   2.602   5.119  0.2972  0.2828 -0.4495
   88c3c     C2  403   2.780   2.719   5.058 -0.2352  0.2013 -0.1757
   88c3c     C2  404   2.846   2.578   5.069 -0.3217 -0.0902 -0.1876
   88c3c     C1  405   3.037   2.706   4.901  0.1963 -0.2491 -0.1678
   88c3c     C1  406   3.151   2.787   5.082  0.3799 -0.2283 -0.0328
   88c3c     H1  407   2.905   2.902   5.020 -0.9144  0.1305  0.1414
   88c3c     H1  408   2.914   2.835   5.181 -2.7080 -1.1376  0.4603
   88c3c     H1  409   3.067   2.527   5.088  0.8286 -0.1423  1.7416
   88c3c     H1  410   2.987   2.604   5.228  0.6469 -2.2059 -0.3501
   88c3c     HC  411   2.720   2.731   4.967  0.6278  1.7211 -0.5678
   88c3c     HC  412   2.705   2.731   5.136  1.2373  1.2759  1.1013
   88c3c     HC  413   2.839   2.530   4.971 -1.5040  2.1937 -1.2484
   88c3c     HC  414   2.795   2.512   5.139  0.0167 -0.0849  0.0668
   88c3c     H1  415   3.064   2.795   4.845 -0.5426  0.9259  1.3259
   88c3c     H1  416   3.125   2.648   4.874  1.2060  1.3533 -0.3768
   88c3c     H1  417   2.951   2.657   4.855  1.4273 -2.0364 -0.6221
   88c3c     H1  418   3.236   2.722   5.065  0.8134  0.6576 -1.3722
   88c3c     H1  419   3.159   2.885   5.035 -2.5345  0.3959  0.6593
   88c3c     C2  420   3.169   2.823   5.231 -0.1957  0.2144 -0.3539
   88c3c     HC  421   3.154   2.734   5.293  1.3229  0.5497  0.5298
   88c3c     HC  422   3.115   2.913   5.261 -0.9159 -0.4764  0.4689
   88c3c     CT  423   3.319   2.851   5.256 -0.5109  1.0899  0.3476
   88c3c     HC  424   3.377   2.760   5.265 -0.3830  1.0422 -0.9260
   88c3c     HC  425   3.331   2.892   5.356  1.0583 -1.5521  1.2984
   88c3c     HC  426   3.357   2.921   5.182 -0.3725 -0.0859 -0.7001
   89c3c     N4  427   4.593   1.806   4.232  0.1493  0.1297  0.0313
   89c3c     C1  428   4.505   1.914   4.274 -0.9297 -0.1504  0.2082
   89c3c     C1  429   4.494   1.695   4.228 -0.0669 -0.2022 -0.8398
   89c3c     C2  430   4.378   1.912   4.193  0.2527  0.2367  0.2619
   89c3c     C2  431   4.368   1.759   4.164  0.5793  0.7347 -0.2156
   89c3c     C1  432   4.660   1.825   4.105  0.1999  0.7364 -0.2621
   89c3c     C1  433   4.701   1.769   4.325 -0.4788  0.0289 -0.4316
   89c3c     H1  434   4.557   2.010   4.279  0.8637 -1.1607  1.3934
   89c3c     H1  435   4.473   1.882   4.374  1.4217 -1.6913  0.4977
   89c3c     H1  436   4.539   1.611   4.175 -0.5180 -1.2254  0.3631
   89c3c     H1  437   4.467   1.657   4.327 -0.2190 -0.0181 -0.8104
   89c3c     HC  438   4.388   1.969   4.101  0.1239 -0.2399 -0.0537
   89c3c     HC  439   4.292   1.943   4.252  0.3462 -0.4304  0.7629
   89c3c     HC  440   4.364   1.745   4.056  0.4637 -0.6604 -0.0329
   89c3c     HC  441   4.274   1.720   4.203  0.3799 -1.1702 -2.5166
   89c3c     H1  442   4.748   1.890   4.114  2.4833 -2.1490 -0.9530
   89c3c     H1  443   4.695   1.738   4.050 -2.7381 -0.5062 -0.2648
   89c3c     H1  444   4.599   1.875   4.030  2.0640  1.6858 -1.1976
   89c3c     H1  445   4.754   1.684   4.283 -0.5962 -0.3440  0.1643
   89c3c     H1  446   4.782   1.842   4.327  0.0662 -0.5706 -0.6593
   89c3c     C2  447   4.666   1.739   4.473  0.2869 -0.4464  0.2347
   89c3c     HC  448   4.612   1.645   4.486 -1.5211  0.1809 -2.2858
   89c3c     HC  449   4.602   1.816   4.516  0.6841  0.6428 -1.0942
   89c3c     CT  450   4.793   1.734   4.562 -0.0897 -0.1417 -0.0522
   89c3c     HC  451   4.760   1.711   4.664 -0.9910  1.3966  0.0175
   89c3c     HC  452   4.829   1.836   4.572 -1.6543  0.4781 -0.6291
   89c3c     HC  453   4.872   1.669   4.525 -1.3763 -1.5522 -0.3941
   90c3c     N4  454   3.789   2.388   4.069 -0.3598  0.1413  0.1502
   90c3c     C1  455   3.771   2.526   4.131  0.0564 -0.6823  0.9877
   90c3c     C1  456   3.653   2.373   4.013  0.2233  0.0902  0.1001
   90c3c     C2  457   3.684   2.604   4.034  0.0532  0.5278  0.1271
   90c3c     C2  458   3.607   2.507   3.955 -0.7189  0.4895 -0.4684
   90c3c     C1  459   3.889   2.402   3.962 -0.2692  0.4844 -0.6346
   90c3c     C1  460   3.836   2.286   4.162  0.4076  0.0765 -1.3079
   90c3c     H1  461   3.865   2.577   4.155 -0.4154  0.3114  0.7703
   90c3c     H1  462   3.723   2.513   4.228  0.9906  0.8138  1.6841
   90c3c     H1  463   3.645   2.290   3.943  0.0304  0.2726 -0.0919
   90c3c     H1  464   3.585   2.335   4.089 -1.6971 -1.8595 -2.5199
   90c3c     HC  465   3.738   2.666   3.963 -1.0822  0.8328 -0.4873
   90c3c     HC  466   3.619   2.668   4.093 -1.4979 -0.3077 -0.6447
   90c3c     HC  467   3.631   2.515   3.849  0.1783 -1.0402 -0.3993
   90c3c     HC  468   3.501   2.529   3.962 -0.5466  1.3177 -0.5116
   90c3c     H1  469   3.984   2.448   3.989  1.3941 -3.5142  0.6391
   90c3c     H1  470   3.915   2.308   3.914 -0.0942  0.4555 -0.4817
   90c3c     H1  471   3.864   2.470   3.880  2.2999  1.9970 -0.2312
   90c3c     H1  472   3.849   2.187   4.118 -1.7840  0.0865 -2.0375
   90c3c     H1  473   3.940   2.309   4.184  0.2027 -0.5837  0.4228
   90c3c     C2  474   3.757   2.267   4.295  0.1191  0.2548  0.1269
   90c3c     HC  475   3.652   2.248   4.275  0.4915 -1.3425 -0.3857
   90c3c     HC  476   3.759   2.357   4.356  1.1857  0.7569 -0.6217
   90c3c     CT  477   3.812   2.157   4.388  0.0356  0.4361  0.0829
   90c3c     HC  478   3.727   2.090   4.403 -1.6422  2.3703 -0.5415
   90c3c     HC  479   3.852   2.195   4.482  2.9016 -0.7570 -0.6047
   90c3c     HC  480   3.891   2.106   4.333 -1.8625 -0.3354 -1.9912
   91c3c     N4  481   0.918   1.517   3.928  0.2074  0.4223 -0.4134
   91c3c     C1  482   0.883   1.430   3.821  0.1548  0.0355  1.0935
   91c3c     C1  483   1.062   1.525   3.904  0.0318  0.6998 -0.1368
   91c3c     C2  484   0.972   1.469   3.698  0.0125  0.4781 -0.6549
   91c3c     C2  485   1.095   1.533   3.755 -0.0464  0.2543 -0.7447
   91c3c     C1  486   0.862   1.648   3.912  0.3665 -0.7623  0.1820
   91c3c     C1  487   0.871   1.472   4.060 -0.5679 -0.0115  0.3618
   91c3c     H1  488   0.774   1.421   3.821  0.3140 -2.2805 -0.4946
   91c3c     H1  489   0.910   1.327   3.842 -0.6294 -0.8271 -1.8904
   91c3c     H1  490   1.112   1.603   3.962 -1.2320 -0.3043  2.3884
   91c3c     H1  491   1.104   1.430   3.936 -1.1855 -0.1291 -0.9450
   91c3c     HC  492   0.909   1.538   3.642 -0.9704  0.1714  0.0515
   91c3c     HC  493   0.983   1.381   3.635  0.8368 -0.5666  0.9322
   91c3c     HC  494   1.091   1.636   3.718 -0.4663  1.4561  2.4511
   91c3c     HC  495   1.186   1.487   3.717  0.3957 -1.8131  2.6031
   91c3c     H1  496   0.753   1.640   3.913  0.3981 -1.4332 -1.1694
   91c3c     H1  497   0.871   1.711   4.001 -3.2785 -0.0889  0.1627
   91c3c     H1  498   0.889   1.704   3.822  1.5366 -0.6515  0.5960
   91c3c     H1  499   0.886   1.551   4.134 -2.8135 -0.0401  0.8893
   91c3c     H1  500   0.764   1.462   4.044 -0.4133 -0.3083 -0.4784
   91c3c     C2  501   0.906   1.325   4.096 -0.1902  0.4654 -0.5956
   91c3c     HC  502   1.009   1.293   4.083 -0.5133 -0.8497  0.0565
   91c3c     HC  503   0.844   1.256   4.039  0.0272 -1.2465  1.2336
   91c3c     CT  504   0.883   1.311   4.252 -0.8290 -0.2943  0.0665
   91c3c     HC  505   0.791   1.357   4.291 -0.8165 -0.6384  0.5137
   91c3c     HC  506   0.970   1.333   4.314 -0.2545 -0.8729 -0.5303
   91c3c     HC  507   0.872   1.205   4.274 -2.4279 -0.1335  0.1043
   92c3c     N4  508   2.905   1.316   4.177 -0.2044 -0.2978  0.5510
   92c3c     C1  509   2.843   1.424   4.095  0.0794 -0.4207  0.1818
   92c3c     C1  510   2.854   1.191   4.112  0.2607 -0.9760  0.1933
   92c3c     C2  511   2.848   1.369   3.949 -0.5624 -0.2250 -0.6979
   92c3c     C2  512   2.861   1.222   3.957  0.3941 -0.4509 -0.3390
   92c3c     C1  513   3.048   1.324   4.170  0.2148 -0.0431  0.6498
   92c3c     C1  514   2.874   1.331   4.318  0.1780 -0.4571 -0.2842
   92c3c     H1  515   2.892   1.521   4.103  1.7175 -1.1288 -0.9505
   92c3c     H1  516   2.737   1.435   4.119 -0.2335 -2.8170 -0.0114
   92c3c     H1  517   2.904   1.098   4.141 -0.6256 -1.2171  0.9665
   92c3c     H1  518   2.749   1.171   4.132 -0.3680  0.8136 -1.2181
   92c3c     HC  519   2.925   1.407   3.881  0.3701 -2.2368 -0.8209
   92c3c     HC  520   2.757   1.405   3.901 -1.4064 -0.5253  0.6647
   92c3c     HC  521   2.959   1.189   3.924  0.2332 -1.2578 -0.0189
   92c3c     HC  522   2.785   1.167   3.902 -1.4293  1.8472 -0.2167
   92c3c     H1  523   3.092   1.408   4.223 -0.2824  1.2797 -0.9995
   92c3c     H1  524   3.085   1.234   4.218 -0.7504 -0.5691  0.4223
   92c3c     H1  525   3.075   1.342   4.065 -2.4439  0.7187  0.0696
   92c3c     H1  526   2.950   1.274   4.372 -2.3762 -2.6370  1.1395
   92c3c     H1  527   2.888   1.431   4.360 -2.0683 -0.5076  0.6512
   92c3c     C2  528   2.731   1.267   4.360  0.3789 -1.0335  0.9714
   92c3c     HC  529   2.725   1.158   4.357 -2.7670 -0.8748  0.1021
   92c3c     HC  530   2.648   1.302   4.298  0.4513  1.1603  2.0712
   92c3c     CT  531   2.700   1.302   4.509  0.3218 -0.3348  0.6762
   92c3c     HC  532   2.617   1.240   4.542 -2.0775  1.2427 -2.1298
   92c3c     HC  533   2.687   1.410   4.514  1.4909 -0.2014  0.9739
   92c3c     HC  534   2.783   1.281   4.576 -1.4314 -2.5085  2.2608
   93c3c     N4  535   3.306   4.054   4.912  1.0066 -0.1434  0.7618
   93c3c     C1  536   3.283   4.153   5.018  0.5336 -0.3879 -0.2452
   93c3c     C1  537   3.335   4.135   4.792 -0.0993 -0.1602 -0.0705
   93c3c     C2  538   3.395   4.254   4.992 -0.3547 -0.1077 -0.0768
   93c3c     C2  539   3.426   4.245   4.844 -0.8882  0.4850  0.5169
   93c3c     C1  540   3.422   3.963   4.938 -0.3725  0.5748 -0.4569
   93c3c     C1  541   3.192   3.955   4.895 -0.6254 -0.0205 -0.0986
   93c3c     H1  542   3.289   4.119   5.121  0.8488 -1.6330 -0.6565
   93c3c     H1  543   3.186   4.200   5.003  0.9332  0.4714 -0.1431
   93c3c     H1  544   3.378   4.083   4.707 -2.0688 -2.4099  0.2548
   93c3c     H1  545   3.242   4.184   4.764  0.5972  1.3870  0.2628
   93c3c     HC  546   3.480   4.221   5.051 -2.9906 -1.7505  2.9991
   93c3c     HC  547   3.355   4.348   5.031 -1.4030 -1.1277  1.3666
   93c3c     HC  548   3.532   4.227   4.827 -0.9793  0.9484 -0.5847
   93c3c     HC  549   3.406   4.337   4.789  0.4536 -0.2408 -1.2296
   93c3c     H1  550   3.401   3.874   4.996  1.2251  0.6339  0.2166
   93c3c     H1  551   3.458   3.917   4.846 -0.6053  1.7158 -1.1309
   93c3c     H1  552   3.514   4.010   4.974 -0.0925 -0.5059  0.2413
   93c3c     H1  553   3.212   3.876   4.823  1.0550  0.6599 -0.4125
   93c3c     H1  554   3.181   3.908   4.992 -0.5793  0.7860  0.3019
   93c3c     C2  555   3.055   4.010   4.843  0.0308  0.4307 -0.2665
   93c3c     HC  556   3.058   4.064   4.749 -0.0732 -0.7177 -0.9389
   93c3c     HC  557   3.024   4.092   4.908  0.3066 -0.5523  1.1355
   93c3c     CT  558   2.934   3.910   4.833 -0.2563 -0.4661 -0.2325
   93c3c     HC  559   2.855   3.967   4.784  0.8179  1.0712 -0.2078
   93c3c     HC  560   2.886   3.896   4.930 -2.4483  4.3963 -0.4696
   93c3c     HC  561   2.945   3.814   4.783 -0.5457  0.1648 -1.5179
   94c3c     N4  562   4.536   2.092   1.153  0.1269 -0.3729  0.4981
   94c3c     C1  563   4.529   1.947   1.118 -0.4093  0.1443 -0.3099
   94c3c     C1  564   4.526   2.157   1.019  0.2765  0.0647  0.2935
   94c3c     C2  565   4.427   1.936   1.003 -0.5599  0.0540 -0.5543
   94c3c     C2  566   4.431   2.071   0.933 -0.3306 -0.3521  0.4811
   94c3c     C1  567   4.417   2.127   1.232 -0.3189 -0.2559  0.0643
   94c3c     C1  568   4.652   2.129   1.234 -0.8383 -0.8346  0.4025
   94c3c     H1  569   4.503   1.882   1.202  0.6818 -2.0385 -1.6191
   94c3c     H1  570   4.625   1.909   1.083 -0.4654 -0.4976  0.2178
   94c3c     H1  571   4.496   2.261   1.021 -2.1478 -0.5927 -0.3758
   94c3c     H1  572   4.620   2.145   0.964 -0.3179 -0.5350 -0.6112
   94c3c     HC  573   4.326   1.931   1.042 -0.7676 -1.0234 -1.2162
   94c3c     HC  574   4.461   1.854   0.940 -0.0410 -0.5249  0.4481
   94c3c     HC  575   4.334   2.121   0.931 -0.8824 -1.4609 -0.5492
   94c3c     HC  576   4.463   2.066   0.829  1.7629 -0.4492  1.1114
   94c3c     H1  577   4.418   2.077   1.328 -1.6575 -0.6039 -0.0941
   94c3c     H1  578   4.416   2.233   1.258  0.2764  0.0792 -1.2214
   94c3c     H1  579   4.323   2.103   1.181 -0.1847 -0.1129 -0.2545
   94c3c     H1  580   4.633   2.226   1.280  0.0816 -0.3562 -0.2115
   94c3c     H1  581   4.664   2.056   1.314  0.5252 -0.7915  0.2620
   94c3c     C2  582   4.780   2.150   1.156  0.3818 -0.1780  0.1571
   94c3c     HC  583   4.775   2.242   1.099 -0.6449  0.1294  0.7275
   94c3c     HC  584   4.804   2.065   1.092  2.5969  0.6631 -0.1782
   94c3c     CT  585   4.893   2.171   1.262 -0.1827  0.4737  0.2430
   94c3c     HC  586   4.859   2.263   1.310  1.0502  1.3808 -0.5785
   94c3c     HC  587   4.993   2.196   1.226 -0.1640  0.8926  0.5746
   94c3c     HC  588   4.876   2.090   1.332 -3.6967  0.5668 -0.3715
   95c3c     N4  589   4.188   0.173   6.331 -0.4908  0.0495 -0.1539
   95c3c     C1  590   4.308   0.257   6.319 -0.6222  0.0701  0.3045
   95c3c     C1  591   4.222   0.046   6.260  0.0040 -0.0158  0.3516
   95c3c     C2  592   4.426   0.157   6.326  0.0440 -0.0839 -0.3699
   95c3c     C2  593   4.371   0.019   6.287 -0.0658  0.0350  0.1548
   95c3c     C1  594   4.156   0.144   6.472  0.2647  0.3740  0.3330
   95c3c     C1  595   4.072   0.240   6.280  0.4757 -0.1099 -0.3118
   95c3c     H1  596   4.314   0.338   6.391  1.5685  0.6855 -0.5483
   95c3c     H1  597   4.314   0.301   6.219 -0.4102  0.7275  0.6116
   95c3c     H1  598   4.155  -0.039   6.274  0.0156 -0.1482 -0.3784
   95c3c     H1  599   4.219   0.059   6.152 -1.5844  0.2323  0.4178
   95c3c     HC  600   4.466   0.152   6.427 -2.7458 -0.2786  0.7812
   95c3c     HC  601   4.510   0.192   6.266  1.3430 -1.0364  0.8761
   95c3c     HC  602   4.372  -0.051   6.371 -1.6097 -1.3685 -0.9493
   95c3c     HC  603   4.422  -0.024   6.201 -0.1605  1.6978 -0.7491
   95c3c     H1  604   4.120   0.235   6.521 -1.9949  0.5924 -1.6674
   95c3c     H1  605   4.082   0.066   6.490 -1.5396  1.9662 -0.0158
   95c3c     H1  606   4.242   0.110   6.530  0.5222 -1.5017 -1.0871
   95c3c     H1  607   3.987   0.174   6.298 -0.0160  0.8340  0.9138
   95c3c     H1  608   4.057   0.326   6.346  1.6710  0.0535 -0.2475
   95c3c     C2  609   4.068   0.294   6.133  0.2405  0.0233 -0.7606
   95c3c     HC  610   4.076   0.209   6.066 -2.1277 -0.0741 -0.9536
   95c3c     HC  611   4.149   0.363   6.109 -0.0246  0.8319  0.5663
   95c3c     CT  612   3.940   0.366   6.103  0.1622  0.3609  0.0368
   95c3c     HC  613   3.935   0.404   6.001 -2.2462  0.9207  0.3156
   95c3c     HC  614   3.927   0.457   6.162 -1.5504 -0.4833  1.0114
   95c3c     HC  615   3.855   0.301   6.120 -0.1121  1.1224  1.6441
   96c3c     N4  616   4.534   2.486   6.266  0.2662 -0.6911  0.1261
   96c3c     C1  617   4.656   2.411   6.262 -0.0074  1.0190 -0.0221
   96c3c     C1  618   4.560   2.599   6.358  0.0442  0.4372 -0.6251
   96c3c     C2  619   4.724   2.431   6.399 -0.2747  0.1964  0.1595
   96c3c     C2  620   4.662   2.553   6.461  0.0610 -0.1772 -0.3563
   96c3c     C1  621   4.510   2.548   6.139 -0.3684  0.3567 -0.1242
   96c3c     C1  622   4.416   2.403   6.302 -0.9534  0.1956 -0.0957
   96c3c     H1  623   4.735   2.455   6.201  0.4743 -2.3935 -1.9739
   96c3c     H1  624   4.646   2.306   6.236  0.8755  1.0546 -0.5291
   96c3c     H1  625   4.618   2.678   6.310  0.4670  0.9350  0.7098
   96c3c     H1  626   4.470   2.652   6.389 -0.1399 -0.0795 -0.2783
   96c3c     HC  627   4.830   2.456   6.390  0.1478 -1.6216 -0.1517
   96c3c     HC  628   4.721   2.338   6.455  0.5494  0.2911  0.3736
   96c3c     HC  629   4.727   2.638   6.482 -0.9112  0.6120 -0.5048
   96c3c     HC  630   4.612   2.526   6.554 -2.1166 -0.8358 -1.6798
   96c3c     H1  631   4.498   2.481   6.054 -4.3038 -0.9749  1.3609
   96c3c     H1  632   4.413   2.598   6.142 -0.6003 -0.1028  0.1463
   96c3c     H1  633   4.585   2.621   6.109  1.2882 -1.6472 -0.9709
   96c3c     H1  634   4.326   2.464   6.294 -0.0073  2.1025  3.1467
   96c3c     H1  635   4.394   2.327   6.227  0.2364 -0.3111  0.0515
   96c3c     C2  636   4.416   2.331   6.440 -1.0189 -0.4355 -1.0359
   96c3c     HC  637   4.442   2.412   6.509 -1.3291 -0.9282 -0.3371
   96c3c     HC  638   4.507   2.271   6.441  0.6475  2.0073 -1.1109
   96c3c     CT  639   4.286   2.257   6.473  0.1953 -0.7835  0.3318
   96c3c     HC  640   4.276   2.193   6.385 -0.2190 -0.1708 -0.0704
   96c3c     HC  641   4.199   2.322   6.472  0.8643  0.1530  1.3952
   96c3c     HC  642   4.289   2.189   6.557  0.3191 -1.3159 -0.1032
   97c3c     N4  643   4.913   2.482   5.246  0.0437 -0.4900 -0.0316
   97c3c     C1  644   5.016   2.510   5.348  0.0437  0.0312 -0.3016
   97c3c     C1  645   4.800   2.573   5.280 -0.1266  0.4635 -0.2505
   97c3c     C2  646   5.014   2.664   5.372  0.2027 -1.1470  0.2750
   97c3c     C2  647   4.872   2.700   5.337 -0.4154 -0.1076  0.4122
   97c3c     C1  648   4.966   2.524   5.115 -0.5339 -0.5055  0.3244
   97c3c     C1  649   4.879   2.339   5.232  0.2336  0.0962 -0.4466
   97c3c     H1  650   5.109   2.467   5.310  1.8975  1.8465  2.0700
   97c3c     H1  651   4.981   2.462   5.439  1.5560 -1.5232 -0.5257
   97c3c     H1  652   4.737   2.594   5.194 -0.6253 -1.8820 -0.5002
   97c3c     H1  653   4.737   2.531   5.358  1.0562  0.7247  0.8702
   97c3c     HC  654   5.087   2.711   5.307  0.0389  0.0128  0.9140
   97c3c     HC  655   5.041   2.692   5.474 -0.0124  1.3400 -0.3246
   97c3c     HC  656   4.873   2.788   5.273 -0.4950 -0.5781 -0.2427
   97c3c     HC  657   4.826   2.728   5.432 -0.0813  1.1366  0.2098
   97c3c     H1  658   5.045   2.464   5.070 -1.1363 -1.2295  0.2199
   97c3c     H1  659   4.884   2.522   5.043 -0.1954 -0.8295 -0.0554
   97c3c     H1  660   5.003   2.626   5.108 -1.3965 -0.3123 -1.9308
   97c3c     H1  661   4.812   2.326   5.147 -0.3461  0.4142 -0.0382
   97c3c     H1  662   4.969   2.280   5.214 -0.1196 -1.5870  2.8379
   97c3c     C2  663   4.819   2.274   5.365  0.4651 -0.1263  0.1698
   97c3c     HC  664   4.728   2.328   5.389  0.9788  0.5931  0.5300
   97c3c     HC  665   4.892   2.288   5.445  0.7168 -1.3261  0.1648
   97c3c     CT  666   4.785   2.126   5.348 -0.2425  0.3819  0.5386
   97c3c     HC  667   4.879   2.072   5.335 -0.7609 -0.5552  0.6486
   97c3c     HC  668   4.719   2.106   5.263  0.1358  0.9053  0.1255
   97c3c     HC  669   4.752   2.078   5.440  2.7176 -2.0217  0.4336
   98c3c     N4  670   3.938   0.248   0.073 -0.7913  0.1748 -0.3454
   98c3c     C1  671   4.038   0.197   0.162 -0.4260 -0.1265 -0.6013
   98c3c     C1  672   3.990   0.210  -0.056 -0.4762 -0.2227 -0.0129
   98c3c     C2  673   4.078   0.056   0.107  0.1244 -0.0084  0.3303
   98c3c     C2  674   4.049   0.070  -0.044  0.0755 -0.1957 -0.3890
   98c3c     C1  675   3.815   0.186   0.112 -0.0588 -0.1368  0.5403
   98c3c     C1  676   3.910   0.391   0.083 -0.1946  0.2338  0.3867
   98c3c     H1  677   4.012   0.199   0.268 -1.5991  2.3111 -0.9014
   98c3c     H1  678   4.128   0.257   0.157 -0.0725 -0.3707  2.0122
   98c3c     H1  679   3.916   0.212  -0.137 -1.9544  0.3843  1.3135
   98c3c     H1  680   4.072   0.268  -0.098 -0.0255 -1.5497 -1.0195
   98c3c     HC  681   4.023  -0.023   0.157 -0.0556  0.0626  0.2450
   98c3c     HC  682   4.182   0.030   0.121 -0.0829 -0.9274  0.1756
   98c3c     HC  683   3.972  -0.001  -0.073  0.7082 -0.3155 -1.8198
   98c3c     HC  684   4.137   0.047  -0.104 -0.2644  0.4328 -1.1441
   98c3c     H1  685   3.779   0.225   0.207 -0.5689 -0.6314  0.5526
   98c3c     H1  686   3.744   0.219   0.036 -1.9476 -1.0589  1.8748
   98c3c     H1  687   3.814   0.077   0.111  0.3138 -0.1359 -1.3616
   98c3c     H1  688   3.819   0.412   0.027  0.2458 -1.9017 -1.1531
   98c3c     H1  689   3.883   0.418   0.186 -0.0324  1.4047  0.1335
   98c3c     C2  690   4.027   0.486   0.043 -0.4798 -0.6498  0.5607
   98c3c     HC  691   4.054   0.473  -0.062 -0.4262  1.0001  0.3605
   98c3c     HC  692   4.119   0.467   0.097 -0.8136 -1.2202  0.9353
   98c3c     CT  693   3.984   0.632   0.051 -0.0385 -0.0847 -0.3714
   98c3c     HC  694   3.902   0.652  -0.018 -1.0015 -2.4748  0.0517
   98c3c     HC  695   4.062   0.702   0.021 -0.5089  0.7985  0.4312
   98c3c     HC  696   3.951   0.646   0.154 -0.3000  1.4967 -0.6578
   99c3c     N4  697   2.439   1.786   4.293 -0.0618 -0.0850 -1.0494
   99c3c     C1  698   2.480   1.774   4.159 -0.2288  0.1186  0.3477
   99c3c     C1  699   2.501   1.666   4.357 -0.1323 -0.3116 -0.3236
   99c3c     C2  700   2.621   1.725   4.155  0.0248  0.2359  0.0892
   99c3c     C2  701   2.640   1.654   4.295  0.3747  0.3389  0.4457
   99c3c     C1  702   2.481   1.911   4.356 -0.1724 -0.7456 -0.6471
   99c3c     C1  703   2.291   1.783   4.305 -0.7008 -0.2256  0.2806
   99c3c     H1  704   2.463   1.861   4.095 -3.1073  0.6284  1.7256
   99c3c     H1  705   2.422   1.698   4.107 -0.5886 -0.6233  1.8082
   99c3c     H1  706   2.501   1.667   4.466  3.3515 -1.1121 -0.2605
   99c3c     H1  707   2.447   1.575   4.332 -0.7820 -0.0861  0.2186
   99c3c     HC  708   2.701   1.798   4.146 -0.0099  0.4094  1.1044
   99c3c     HC  709   2.627   1.656   4.072 -2.6695 -1.4455  1.2361
   99c3c     HC  710   2.715   1.708   4.352  1.8706 -0.9737 -0.2366
   99c3c     HC  711   2.672   1.550   4.281 -0.5894  0.1966 -0.8735
   99c3c     H1  712   2.429   1.995   4.309 -0.8680 -1.3309 -0.9345
   99c3c     H1  713   2.462   1.922   4.462  0.4696  0.2377 -0.6257
   99c3c     H1  714   2.587   1.932   4.343 -0.2653  0.8428  0.9678
   99c3c     H1  715   2.273   1.772   4.411  2.3905 -2.0853  0.6838
   99c3c     H1  716   2.243   1.876   4.273  1.2065  0.9816  0.8298
   99c3c     C2  717   2.214   1.663   4.239 -0.4563  0.0986 -0.0203
   99c3c     HC  718   2.224   1.574   4.301 -4.0319 -0.1101  0.3664
   99c3c     HC  719   2.241   1.633   4.138 -0.0452  1.6744 -0.4028
   99c3c     CT  720   2.061   1.674   4.243 -0.9438 -0.2767 -0.0281
   99c3c     HC  721   2.038   1.770   4.196 -1.0382 -1.0975 -1.7179
   99c3c     HC  722   2.020   1.684   4.343  0.3704  0.8599  0.4160
   99c3c     HC  723   2.010   1.591   4.193 -0.8608 -0.3912  0.0766
  100c3c     N4  724   1.903   2.696   4.247 -0.1363  0.0699  0.3459
  100c3c     C1  725   1.934   2.554   4.255 -0.1816 -0.2461  0.0252
  100c3c     C1  726   2.037   2.750   4.254 -0.4937  0.3379 -0.4634
  100c3c     C2  727   2.060   2.525   4.169  0.0052 -0.6906 -1.0153
  100c3c     C2  728   2.125   2.664   4.163 -0.0630 -0.4568 -0.0184
  100c3c     C1  729   1.839   2.730   4.116 -0.5866  0.7260  0.1672
  100c3c     C1  730   1.806   2.751   4.341  0.6022 -0.0612  0.1984
  100c3c     H1  731   1.838   2.506   4.232 -0.4564 -0.4384  1.5346
  100c3c     H1  732   1.964   2.533   4.358 -0.2562 -0.6642 -0.0364
  100c3c     H1  733   2.046   2.856   4.232 -0.3040  0.5198  0.4744
  100c3c     H1  734   2.080   2.740   4.354 -0.0951 -1.1232 -0.7743
  100c3c     HC  735   2.038   2.480   4.072  0.4360 -0.9425 -0.9966
  100c3c     HC  736   2.131   2.457   4.214 -0.4527 -1.1377 -0.9627
  100c3c     HC  737   2.129   2.697   4.059  1.3281  0.0208  0.1763
  100c3c     HC  738   2.228   2.658   4.199 -0.2754 -1.7468  0.4069
  100c3c     H1  739   1.741   2.684   4.105 -0.5965  1.1674 -1.6210
  100c3c     H1  740   1.818   2.837   4.107 -0.0919  0.8047 -0.0679
  100c3c     H1  741   1.908   2.711   4.034 -0.4475  0.4674  0.3432
  100c3c     H1  742   1.779   2.855   4.323 -0.8743 -0.6922 -1.2874
  100c3c     H1  743   1.715   2.691   4.333  0.4032  0.2738 -0.0464
  100c3c     C2  744   1.863   2.758   4.486  0.3293  0.4590  0.6565
  100c3c     HC  745   1.946   2.829   4.492  1.4217 -0.5739 -1.5119
  100c3c     HC  746   1.912   2.667   4.521 -0.6454 -0.3744 -0.1263
  100c3c     CT  747   1.756   2.800   4.587  0.9904 -0.5930  0.2295
  100c3c     HC  748   1.773   2.750   4.682  0.0728 -1.2302  0.0645
  100c3c     HC  749   1.655   2.783   4.549  0.2610  3.3318  0.2293
  100c3c     HC  750   1.765   2.908   4.602  0.5186 -0.6685  1.0507
  101c3c     N4  751   4.129   1.495   2.915 -0.1481 -0.8097  0.3717
  101c3c     C1  752   4.151   1.452   2.773 -0.3335 -0.1070  0.3925
  101c3c     C1  753   4.021   1.406   2.961  0.3215  0.7891 -0.8530
  101c3c     C2  754   4.011   1.428   2.715 -0.5261  0.4172 -0.5685
  101c3c     C2  755   3.927   1.397   2.840 -0.5454  0.2805  0.9860
  101c3c     C1  756   4.241   1.460   2.998 -0.0222  0.9930 -0.0934
  101c3c     C1  757   4.111   1.639   2.943  0.0297  0.3932 -0.0470
  101c3c     H1  758   4.218   1.366   2.760  1.8080  1.3623  1.3596
  101c3c     H1  759   4.204   1.529   2.718 -0.2656 -1.0467 -0.8797
  101c3c     H1  760   4.059   1.304   2.974  1.8493  1.4662  0.1063
  101c3c     H1  761   3.976   1.445   3.052  2.7947  0.3739  0.6026
  101c3c     HC  762   4.006   1.352   2.637  1.2333  0.0492 -0.3428
  101c3c     HC  763   3.977   1.522   2.673 -0.9774  0.3591 -0.3371
  101c3c     HC  764   3.886   1.295   2.835  0.2028 -0.0377  1.3046
  101c3c     HC  765   3.842   1.466   2.837 -1.8971 -1.3538  0.3840
  101c3c     H1  766   4.337   1.509   2.991  0.6426 -0.5645 -2.6648
  101c3c     H1  767   4.215   1.474   3.103 -0.1787 -1.8706  0.2965
  101c3c     H1  768   4.271   1.356   2.989 -1.0027  0.4004  2.8850
  101c3c     H1  769   4.107   1.650   3.052 -0.9503  0.1599 -0.0579
  101c3c     H1  770   4.203   1.685   2.908 -0.3376  1.6735  0.6221
  101c3c     C2  771   3.991   1.718   2.892  0.8699 -0.0311  0.6713
  101c3c     HC  772   3.901   1.663   2.919 -0.7571  2.4310  0.4248
  101c3c     HC  773   3.993   1.715   2.783 -1.3533 -0.2745  0.6108
  101c3c     CT  774   3.992   1.868   2.922 -0.4257  0.5008  0.1823
  101c3c     HC  775   3.911   1.916   2.868 -0.6769  1.0087  1.0234
  101c3c     HC  776   4.082   1.913   2.879  0.7379  0.1681  2.2203
  101c3c     HC  777   3.981   1.891   3.027  0.4299 -2.2241  0.9207
  102c3c     N4  778   5.468   2.015   5.311 -0.5148 -0.2440  0.2766
  102c3c     C1  779   5.522   2.061   5.179 -0.0711 -0.4611 -0.0934
  102c3c     C1  780   5.592   1.995   5.381 -0.6095  0.5199 -0.0367
  102c3c     C2  781   5.629   2.158   5.208 -0.8542  0.1695  0.2094
  102c3c     C2  782   5.683   2.111   5.343 -0.0939 -0.5094  0.1128
  102c3c     C1  783   5.392   2.123   5.373  0.1597  0.2877 -0.0087
  102c3c     C1  784   5.382   1.896   5.302  0.2188 -0.4579 -0.6250
  102c3c     H1  785   5.451   2.098   5.106  0.9900  0.2151 -0.7978
  102c3c     H1  786   5.582   1.986   5.127  1.3135  0.2183  0.4798
  102c3c     H1  787   5.570   1.972   5.485 -0.1214  0.6011  0.0880
  102c3c     H1  788   5.636   1.905   5.339 -1.3771  0.3420 -0.4583
  102c3c     HC  789   5.595   2.261   5.212  0.5380  0.6962 -0.8660
  102c3c     HC  790   5.698   2.152   5.123 -0.1313 -1.0275  0.8611
  102c3c     HC  791   5.664   2.195   5.410  2.8704  0.8576 -0.7147
  102c3c     HC  792   5.790   2.090   5.339  0.2557  0.8668  1.5150
  102c3c     H1  793   5.296   2.147   5.329 -0.8598  2.2477  3.1444
  102c3c     H1  794   5.374   2.104   5.478  2.2549 -0.3379  0.2572
  102c3c     H1  795   5.437   2.222   5.377  0.1648  0.3323 -0.9164
  102c3c     H1  796   5.378   1.866   5.407  0.6368 -0.2704 -0.5534
  102c3c     H1  797   5.280   1.924   5.274 -0.3552 -1.5190  0.3514
  102c3c     C2  798   5.429   1.780   5.212 -0.3948 -0.0653 -0.4097
  102c3c     HC  799   5.528   1.745   5.242  0.3339  2.0977 -0.2320
  102c3c     HC  800   5.436   1.809   5.108  0.6151  0.0365 -0.3147
  102c3c     CT  801   5.340   1.656   5.226 -0.4943 -0.1931 -0.0667
  102c3c     HC  802   5.343   1.612   5.326 -0.9827 -1.2239 -0.5003
  102c3c     HC  803   5.363   1.575   5.158 -1.0657 -1.0153  0.7068
  102c3c     HC  804   5.237   1.690   5.217 -0.4706  0.1231  0.7320
  103c3c     N4  805   4.484   0.387   3.555  0.0808  0.6303  0.6448
  103c3c     C1  806   4.613   0.372   3.497  0.2959  0.8209  0.1801
  103c3c     C1  807   4.477   0.526   3.591 -0.1765 -0.6610 -0.1852
  103c3c     C2  808   4.619   0.498   3.412 -0.7044 -0.2291 -0.0360
  103c3c     C2  809   4.536   0.604   3.474 -0.1929 -0.7759 -1.0350
  103c3c     C1  810   4.378   0.364   3.448  0.0395  0.0569  0.7420
  103c3c     C1  811   4.461   0.277   3.659  0.4403 -0.0282  0.3488
  103c3c     H1  812   4.614   0.287   3.429 -0.8846  0.1624  0.9757
  103c3c     H1  813   4.697   0.376   3.567 -0.4046  0.4024  1.0500
  103c3c     H1  814   4.372   0.552   3.607  0.0515  0.0065  0.2553
  103c3c     H1  815   4.521   0.549   3.688  0.0269 -0.3586 -0.3455
  103c3c     HC  816   4.570   0.482   3.316 -2.3633 -1.6233  1.0286
  103c3c     HC  817   4.720   0.535   3.393 -0.4241  0.3934  2.5085
  103c3c     HC  818   4.473   0.643   3.394 -0.1091 -1.0575 -1.2373
  103c3c     HC  819   4.581   0.690   3.523 -2.2406  0.1264 -0.7107
  103c3c     H1  820   4.368   0.447   3.379  1.2962  0.8123  1.4392
  103c3c     H1  821   4.399   0.275   3.389 -1.7255 -0.2095  0.5030
  103c3c     H1  822   4.281   0.358   3.497 -0.5907 -2.1902 -0.7200
  103c3c     H1  823   4.356   0.275   3.686  0.8674 -0.8781  2.0573
  103c3c     H1  824   4.475   0.178   3.615  0.2461 -0.3645  1.0370
  103c3c     C2  825   4.536   0.288   3.792  0.5660 -1.1188 -0.0521
  103c3c     HC  826   4.502   0.378   3.843  0.0992 -2.0563  1.3118
  103c3c     HC  827   4.641   0.298   3.768  0.5384  1.0028  0.5946
  103c3c     CT  828   4.531   0.169   3.892 -0.5271 -0.6612  0.6263
  103c3c     HC  829   4.593   0.089   3.853 -1.8705  0.1810 -3.4882
  103c3c     HC  830   4.447   0.111   3.928 -1.1466  0.4531  0.9837
  103c3c     HC  831   4.595   0.191   3.978 -0.7440  0.0569  0.6124
  104c3c     N4  832   2.380   4.939   4.908  0.3604  0.2548  0.1460
  104c3c     C1  833   2.318   4.979   4.781  0.5611 -0.4962  0.0157
  104c3c     C1  834   2.292   5.017   5.001  0.8750 -0.5410  0.1704
  104c3c     C2  835   2.171   4.982   4.794 -0.3848 -0.8985  1.0516
  104c3c     C2  836   2.153   5.030   4.936 -0.0155 -0.5221 -0.2245
  104c3c     C1  837   2.368   4.795   4.919 -0.6219 -0.3479  0.0164
  104c3c     C1  838   2.524   4.976   4.906  0.3920  0.4938  1.0550
  104c3c     H1  839   2.358   4.925   4.695  1.6622 -0.5390  0.5435
  104c3c     H1  840   2.343   5.084   4.762  0.1286 -0.5479 -0.8902
  104c3c     H1  841   2.295   4.977   5.102  2.0574 -0.3365  0.2250
  104c3c     H1  842   2.323   5.121   5.004 -0.6619  0.0237 -2.2122
  104c3c     HC  843   2.139   4.878   4.782  0.2146 -0.7384 -2.3514
  104c3c     HC  844   2.120   5.046   4.723  0.6644 -1.5778 -0.3448
  104c3c     HC  845   2.085   4.967   4.994 -0.4516  1.5881  1.6243
  104c3c     HC  846   2.137   5.137   4.941 -0.4203 -0.6275  1.2166
  104c3c     H1  847   2.401   4.756   5.016 -0.6243  0.0266  0.1694
  104c3c     H1  848   2.268   4.751   4.918 -0.0845 -1.6021 -2.0911
  104c3c     H1  849   2.434   4.752   4.844 -0.3593 -0.5283  0.3516
  104c3c     H1  850   2.577   4.910   4.976  0.4792  0.0155  0.5384
  104c3c     H1  851   2.557   4.952   4.805 -0.3141  2.2280  0.4007
  104c3c     C2  852   2.558   5.123   4.937  0.5894  0.2615  0.5089
  104c3c     HC  853   2.563   5.146   5.043  0.4140 -1.1947  0.8353
  104c3c     HC  854   2.492   5.188   4.879  3.0435  1.8254 -0.5831
  104c3c     CT  855   2.700   5.166   4.871  0.4663 -0.2218 -0.4782
  104c3c     HC  856   2.718   5.271   4.897  1.9990 -1.6383  4.7625
  104c3c     HC  857   2.690   5.152   4.763 -0.4999 -1.6577 -0.2139
  104c3c     HC  858   2.775   5.106   4.921 -1.2558 -1.1206  1.0783
  105c3c     N4  859   5.172   2.652   4.611  0.2923 -0.1355 -0.1302
  105c3c     C1  860   5.165   2.703   4.466  0.3485 -0.6461  0.4123
  105c3c     C1  861   5.292   2.724   4.660 -0.0672 -0.5820 -0.2556
  105c3c     C2  862   5.190   2.855   4.482  0.4262 -0.3409 -0.0886
  105c3c     C2  863   5.285   2.862   4.603  0.3844 -0.0901 -0.0173
  105c3c     C1  864   5.055   2.680   4.697 -0.6132  0.7307 -0.3021
  105c3c     C1  865   5.198   2.510   4.619  0.0771 -0.0962 -0.1533
  105c3c     H1  866   5.066   2.685   4.425 -1.0220  0.4740  3.0972
  105c3c     H1  867   5.247   2.658   4.410  1.4188  1.6582  0.0571
  105c3c     H1  868   5.297   2.724   4.769 -1.4052  0.7046 -0.1790
  105c3c     H1  869   5.388   2.682   4.632  1.2756  0.4756  2.5394
  105c3c     HC  870   5.104   2.920   4.498  0.1492 -0.6486 -0.3158
  105c3c     HC  871   5.233   2.884   4.387  1.2037 -1.6087 -0.1327
  105c3c     HC  872   5.244   2.940   4.666  0.9646 -1.0617  1.5912
  105c3c     HC  873   5.386   2.895   4.577  1.1228 -2.9500 -0.9889
  105c3c     H1  874   4.961   2.645   4.655  1.1282  0.0502 -3.8397
  105c3c     H1  875   5.067   2.642   4.799  0.8105  1.8768 -0.0186
  105c3c     H1  876   5.044   2.787   4.716 -0.6656  0.8145 -0.8025
  105c3c     H1  877   5.233   2.478   4.717 -1.9312 -0.8596  0.3342
  105c3c     H1  878   5.108   2.451   4.600 -0.6868  0.8204  0.5476
  105c3c     C2  879   5.302   2.452   4.517  0.1200  0.2235 -0.2223
  105c3c     HC  880   5.396   2.508   4.517 -0.8011  1.8034  1.0126
  105c3c     HC  881   5.268   2.447   4.414 -0.6711 -1.5669  0.1087
  105c3c     CT  882   5.335   2.305   4.547  0.0242 -0.3183 -0.3874
  105c3c     HC  883   5.419   2.271   4.487 -0.3236 -0.9292 -0.5388
  105c3c     HC  884   5.249   2.241   4.524  0.4048 -0.0621 -2.5772
  105c3c     HC  885   5.351   2.290   4.654  0.9475 -2.3742 -0.8003
  106c3c     N4  886   3.580   3.259   3.650  0.2113 -0.1142  0.5546
  106c3c     C1  887   3.593   3.295   3.508  0.2120  0.3136  0.8716
  106c3c     C1  888   3.718   3.287   3.692  0.6985 -0.0379 -0.2720
  106c3c     C2  889   3.658   3.429   3.505 -0.2675 -0.2494  0.3892
  106c3c     C2  890   3.756   3.418   3.629  0.3009  0.5492  0.0660
  106c3c     C1  891   3.483   3.351   3.717 -0.4527  0.4851  0.3771
  106c3c     C1  892   3.536   3.120   3.673 -0.3130  0.5689 -0.1117
  106c3c     H1  893   3.503   3.293   3.447 -0.1698 -0.7355  1.4579
  106c3c     H1  894   3.664   3.229   3.457  0.2005  0.3809  0.7685
  106c3c     H1  895   3.726   3.301   3.800  0.3437 -0.9582 -0.1232
  106c3c     H1  896   3.790   3.208   3.672 -1.4729 -1.8168 -1.2688
  106c3c     HC  897   3.587   3.511   3.515  0.2096  0.3609 -1.0748
  106c3c     HC  898   3.711   3.450   3.412 -1.0944  2.8033  0.5499
  106c3c     HC  899   3.755   3.504   3.695 -1.4312 -0.5627  1.5297
  106c3c     HC  900   3.857   3.416   3.587  1.1078  2.3091  1.8576
  106c3c     H1  901   3.386   3.344   3.668  0.4819 -1.4706 -1.2479
  106c3c     H1  902   3.461   3.309   3.815 -1.9105  0.6873  0.1522
  106c3c     H1  903   3.509   3.455   3.736  0.3172 -0.1661  3.1437
  106c3c     H1  904   3.507   3.104   3.777 -1.4176  1.7403 -0.2193
  106c3c     H1  905   3.446   3.093   3.616  0.1681 -0.6283 -0.3163
  106c3c     C2  906   3.639   3.009   3.633 -0.2545 -0.8555  0.3676
  106c3c     HC  907   3.722   3.013   3.703  0.3243  1.3121 -0.4055
  106c3c     HC  908   3.669   3.007   3.529 -1.2947 -0.6218  0.0495
  106c3c     CT  909   3.570   2.872   3.658  0.4208 -0.2644 -0.1774
  106c3c     HC  910   3.518   2.867   3.754  1.2414 -0.7762  0.2419
  106c3c     HC  911   3.648   2.796   3.656  0.0411 -0.7252  1.4651
  106c3c     HC  912   3.496   2.855   3.579  1.7719  0.1192 -1.5325
  107c3c     N4  913   1.976   0.874   3.162  0.3203  0.1114  0.7883
  107c3c     C1  914   1.947   0.963   3.269 -0.0174 -0.1952 -0.6462
  107c3c     C1  915   1.885   0.929   3.063  0.6790 -0.2030  0.4493
  107c3c     C2  916   1.957   1.104   3.209 -0.4953 -1.0668  0.0666
  107c3c     C2  917   1.903   1.083   3.070 -0.0561 -0.2835  0.3194
  107c3c     C1  918   2.120   0.897   3.126  0.1892 -1.0591 -0.2181
  107c3c     C1  919   1.952   0.734   3.193 -0.2086  0.1881 -0.0235
  107c3c     H1  920   2.009   0.965   3.359  1.1376 -1.1618 -1.4050
  107c3c     H1  921   1.846   0.960   3.312  0.1991  0.3267 -0.0986
  107c3c     H1  922   1.926   0.889   2.971  0.1340 -0.0105  0.1227
  107c3c     H1  923   1.783   0.893   3.075  1.1969 -1.7924  0.2913
  107c3c     HC  924   2.058   1.145   3.202 -0.8558 -0.0140  0.9641
  107c3c     HC  925   1.905   1.182   3.264 -0.8936  0.2779 -2.1524
  107c3c     HC  926   1.969   1.121   2.992  1.6347 -1.9890  0.8897
  107c3c     HC  927   1.814   1.146   3.070  1.1540  1.4393 -0.2277
  107c3c     H1  928   2.184   0.864   3.208 -0.2584  1.6091  1.2576
  107c3c     H1  929   2.143   0.835   3.040 -0.2726 -0.8944 -0.4615
  107c3c     H1  930   2.154   0.998   3.104  0.4689 -0.7225  1.6671
  107c3c     H1  931   1.969   0.683   3.098  2.4422  0.0654  0.4776
  107c3c     H1  932   2.024   0.702   3.268 -0.0362 -2.6270 -1.3016
  107c3c     C2  933   1.812   0.685   3.243  0.9305 -0.4134  0.0959
  107c3c     HC  934   1.741   0.700   3.162 -0.5276  1.5904  1.6726
  107c3c     HC  935   1.784   0.742   3.332  0.2611  0.0594 -0.4175
  107c3c     CT  936   1.807   0.539   3.285  0.2039  0.2112  0.0307
  107c3c     HC  937   1.836   0.470   3.206 -2.0222  0.7920 -1.3465
  107c3c     HC  938   1.703   0.512   3.304 -0.4323  1.0309 -2.0557
  107c3c     HC  939   1.882   0.526   3.363  0.9991 -1.5344 -0.9747
  108c3c     N4  940   5.318   2.010   6.868 -0.1388  0.1636  0.1971
  108c3c     C1  941   5.257   1.916   6.773  0.1672  0.5997  0.2355
  108c3c     C1  942   5.372   1.921   6.965  0.1531 -0.1641 -0.3366
  108c3c     C2  943   5.371   1.818   6.741  0.2314  0.5243 -0.0430
  108c3c     C2  944   5.435   1.804   6.883 -0.3515 -0.4444  0.0572
  108c3c     C1  945   5.427   2.096   6.805 -0.0381  0.3561  0.1635
  108c3c     C1  946   5.215   2.101   6.912 -0.0954  0.2173 -0.0351
  108c3c     H1  947   5.210   1.970   6.691  0.1414  0.7496  0.3497
  108c3c     H1  948   5.174   1.860   6.816 -1.0205  1.0492 -1.3999
  108c3c     H1  949   5.444   1.971   7.031  0.0587 -1.3586  0.6858
  108c3c     H1  950   5.293   1.876   7.025  0.7524 -0.9056 -0.1010
  108c3c     HC  951   5.434   1.859   6.662  0.0596  1.5239  0.3306
  108c3c     HC  952   5.331   1.723   6.707 -0.7751 -0.0872  2.6601
  108c3c     HC  953   5.544   1.810   6.879 -0.3178 -0.9451  0.1240
  108c3c     HC  954   5.410   1.713   6.938  1.2708 -1.0054 -0.0921
  108c3c     H1  955   5.411   2.144   6.708 -0.6320 -1.0629 -0.4529
  108c3c     H1  956   5.463   2.164   6.882  0.5725 -1.3499  1.4162
  108c3c     H1  957   5.517   2.037   6.788  1.5567  2.7540 -0.0010
  108c3c     H1  958   5.256   2.178   6.978  0.2340 -1.1378  1.3718
  108c3c     H1  959   5.184   2.169   6.833 -0.3917  1.5282  1.1786
  108c3c     C2  960   5.095   2.052   6.983 -0.9460  0.5409 -0.1615
  108c3c     HC  961   5.125   1.992   7.070 -0.5451 -0.1867 -0.7948
  108c3c     HC  962   5.028   1.988   6.926 -0.4561 -1.6978  1.6894
  108c3c     CT  963   5.009   2.164   7.041  0.4138  0.5464  0.5099
  108c3c     HC  964   5.060   2.233   7.109 -1.4035  1.7138  0.7186
  108c3c     HC  965   4.923   2.121   7.093  0.3329 -1.4754 -1.2438
  108c3c     HC  966   4.965   2.225   6.962  1.5709 -0.1962 -0.7179
  109c3c     N4  967   4.579   2.660   3.394 -0.0309  0.3594  0.2389
  109c3c     C1  968   4.704   2.733   3.402  0.5148  0.2143 -0.2369
  109c3c     C1  969   4.579   2.597   3.258  0.4660  0.1178 -0.6562
  109c3c     C2  970   4.804   2.644   3.336 -0.2809  0.8040 -0.4028
  109c3c     C2  971   4.731   2.575   3.226  0.2183  0.0566  0.3277
  109c3c     C1  972   4.577   2.552   3.492  0.1120 -0.0811  0.0685
  109c3c     C1  973   4.461   2.755   3.416  0.1049 -0.0338  0.0680
  109c3c     H1  974   4.739   2.759   3.502 -2.0180  0.5175  0.6199
  109c3c     H1  975   4.700   2.826   3.346 -2.3521  0.3209  0.0467
  109c3c     H1  976   4.517   2.507   3.251  0.6513 -0.2190  1.6578
  109c3c     H1  977   4.532   2.656   3.179 -1.8079  0.6642  1.0533
  109c3c     HC  978   4.832   2.572   3.414 -0.2146 -0.1962 -1.3340
  109c3c     HC  979   4.896   2.685   3.296  1.0279  0.0056  1.6955
  109c3c     HC  980   4.743   2.467   3.231  1.9896  0.2587  0.6179
  109c3c     HC  981   4.758   2.606   3.125 -0.9612  0.3582  0.0946
  109c3c     H1  982   4.604   2.585   3.592 -1.7593 -0.1239  0.6087
  109c3c     H1  983   4.479   2.506   3.489  0.0983 -0.0020 -0.7649
  109c3c     H1  984   4.642   2.472   3.457  1.3934  0.7625  0.4771
  109c3c     H1  985   4.371   2.693   3.422 -0.6017  0.9730  0.0706
  109c3c     H1  986   4.464   2.790   3.519  0.2951  0.4723 -0.1095
  109c3c     C2  987   4.432   2.878   3.324 -0.4637 -0.4726  0.1601
  109c3c     HC  988   4.447   2.853   3.219 -0.1250 -1.3638  0.4106
  109c3c     HC  989   4.500   2.960   3.345 -1.4158  0.6225 -0.9836
  109c3c     CT  990   4.295   2.934   3.356 -0.1198 -0.0765 -0.2483
  109c3c     HC  991   4.220   2.858   3.336 -1.7880  0.9804  1.7224
  109c3c     HC  992   4.272   3.028   3.306  0.7754  0.0476 -0.4282
  109c3c     HC  993   4.279   2.955   3.462 -0.3053 -2.7528  0.2905
  110c3c     N4  994   4.306   1.371   1.576  0.3487 -0.0580  0.4554
  110c3c     C1  995   4.371   1.412   1.707 -0.0689  0.1326  0.5159
  110c3c     C1  996   4.399   1.411   1.476 -0.1308 -0.1320 -0.5120
  110c3c     C2  997   4.530   1.388   1.685 -0.0117 -0.8958  0.4389
  110c3c     C2  998   4.536   1.376   1.532 -0.0780 -0.2553 -0.5199
  110c3c     C1  999   4.292   1.228   1.571 -0.3394 -0.0636  0.0260
  110c3c     C1 1000   4.174   1.429   1.553  0.1427 -0.5316  0.2091
  110c3c     H1 1001   4.324   1.352   1.785  0.4702  0.3044  0.9755
  110c3c     H1 1002   4.356   1.517   1.733 -0.8634 -0.0385  0.7520
  110c3c     H1 1003   4.385   1.361   1.380  0.5004  0.2656 -0.8192
  110c3c     H1 1004   4.416   1.516   1.453 -0.6503  0.6419  2.4087
  110c3c     HC 1005   4.562   1.292   1.725  0.7136 -0.2738  1.3536
  110c3c     HC 1006   4.591   1.471   1.719 -0.5143 -0.8039  1.1212
  110c3c     HC 1007   4.563   1.274   1.508  1.5028  0.1505 -0.5307
  110c3c     HC 1008   4.613   1.446   1.498 -1.6609  2.8184  1.9573
  110c3c     H1 1009   4.208   1.194   1.632  0.0688  0.7448  1.0519
  110c3c     H1 1010   4.273   1.185   1.472  1.0699 -1.7402  0.4632
  110c3c     H1 1011   4.381   1.182   1.613  0.4843 -1.5693 -3.2075
  110c3c     H1 1012   4.123   1.367   1.479 -1.7103  1.0701  0.0976
  110c3c     H1 1013   4.119   1.410   1.646  1.1861 -2.3454  0.4800
  110c3c     C2 1014   4.161   1.574   1.517  0.0346  0.0083 -0.2067
  110c3c     HC 1015   4.197   1.588   1.415  1.5682 -0.6878  0.2104
  110c3c     HC 1016   4.228   1.636   1.576  0.1017 -0.7132  0.4949
  110c3c     CT 1017   4.026   1.633   1.528  0.5193 -0.1802  0.4141
  110c3c     HC 1018   3.944   1.590   1.470  0.6667  0.5713 -0.3684
  110c3c     HC 1019   4.029   1.738   1.499  0.0838  0.2991  2.0726
  110c3c     HC 1020   3.995   1.637   1.632 -0.9542 -0.3298 -0.0127
  111c3c     N4 1021   4.747   1.403   3.556 -0.2463  0.4708  0.0876
  111c3c     C1 1022   4.861   1.323   3.497 -0.0128 -0.2604  0.7056
  111c3c     C1 1023   4.711   1.480   3.436  0.0283  0.2152 -0.2763
  111c3c     C2 1024   4.822   1.285   3.353 -0.4987 -0.0898 -0.2991
  111c3c     C2 1025   4.731   1.395   3.314  0.9582  0.3330 -0.1414
  111c3c     C1 1026   4.636   1.314   3.581  0.6177 -0.1614 -0.1029
  111c3c     C1 1027   4.786   1.472   3.681  1.0072  0.4005  0.4614
  111c3c     H1 1028   4.894   1.245   3.566  1.5608 -0.3834 -0.1672
  111c3c     H1 1029   4.955   1.377   3.486 -0.0440 -0.2388  0.5479
  111c3c     H1 1030   4.613   1.527   3.437  1.1685  2.6629 -1.4061
  111c3c     H1 1031   4.770   1.572   3.442  1.5640 -0.7618  0.1269
  111c3c     HC 1032   4.770   1.189   3.353 -0.1524 -0.3005 -1.6486
  111c3c     HC 1033   4.904   1.268   3.283 -0.5685 -0.4637 -0.2892
  111c3c     HC 1034   4.637   1.359   3.272  0.8770 -1.1123  1.2328
  111c3c     HC 1035   4.783   1.450   3.236  2.2710  0.8060  1.0423
  111c3c     H1 1036   4.653   1.229   3.647 -0.2782 -0.1178  0.1999
  111c3c     H1 1037   4.553   1.376   3.614  0.7121 -0.4057  0.5897
  111c3c     H1 1038   4.598   1.265   3.490  2.7813  0.4636 -1.3690
  111c3c     H1 1039   4.706   1.540   3.710  1.5364  1.1858  0.0672
  111c3c     H1 1040   4.779   1.400   3.762  0.8141  0.0283  0.1182
  111c3c     C2 1041   4.928   1.542   3.680 -0.3848 -0.2166  0.2536
  111c3c     HC 1042   4.947   1.605   3.594  0.6099  0.6179  1.0754
  111c3c     HC 1043   5.018   1.481   3.679  1.6810  2.7410 -0.1112
  111c3c     CT 1044   4.938   1.636   3.800 -0.4483 -0.4085  0.5373
  111c3c     HC 1045   4.870   1.719   3.785  0.6730  0.0338 -2.4316
  111c3c     HC 1046   5.032   1.687   3.821 -0.0892 -1.0916  0.6068
  111c3c     HC 1047   4.901   1.583   3.888 -3.1837 -0.4408 -0.5717
  112c3c     N4 1048   1.338   2.337   5.070 -0.2862 -0.0730 -0.7266
  112c3c     C1 1049   1.474   2.374   5.047 -0.0182  0.1693  0.0020
  112c3c     C1 1050   1.296   2.450   5.153 -0.0211 -0.2284  0.5035
  112c3c     C2 1051   1.478   2.524   5.025  0.4485  0.0335  0.3938
  112c3c     C2 1052   1.348   2.577   5.089  0.4829  0.6038  0.4811
  112c3c     C1 1053   1.264   2.346   4.946  0.5351  0.4828  0.0862
  112c3c     C1 1054   1.322   2.206   5.131  0.3857 -0.4829 -0.1579
  112c3c     H1 1055   1.523   2.315   4.970 -0.2366 -0.1195  0.0834
  112c3c     H1 1056   1.522   2.371   5.145  0.8839  0.0973 -0.4442
  112c3c     H1 1057   1.188   2.443   5.162 -0.0553 -0.1781  0.1344
  112c3c     H1 1058   1.322   2.443   5.259 -1.7308 -2.2429  0.8177
  112c3c     HC 1059   1.490   2.565   4.924  4.2626 -2.5479 -0.2930
  112c3c     HC 1060   1.565   2.562   5.077 -0.8617  4.1822 -0.2326
  112c3c     HC 1061   1.286   2.623   5.012  3.0741  2.4317 -0.5934
  112c3c     HC 1062   1.368   2.657   5.160  0.5722  0.5387  0.5287
  112c3c     H1 1063   1.300   2.277   4.870 -0.6288 -0.0783  0.0348
  112c3c     H1 1064   1.159   2.321   4.963  0.3407  0.6348 -0.8730
  112c3c     H1 1065   1.269   2.444   4.899 -0.2114 -0.0322 -1.0734
  112c3c     H1 1066   1.219   2.185   5.160  0.2132  1.8713  1.0641
  112c3c     H1 1067   1.341   2.127   5.058  1.1644 -0.0626 -0.4194
  112c3c     C2 1068   1.406   2.168   5.253 -0.1225  0.2087  0.4952
  112c3c     HC 1069   1.393   2.244   5.330  1.7475 -0.3619  1.4030
  112c3c     HC 1070   1.512   2.173   5.227 -0.6275  0.8183 -1.5505
  112c3c     CT 1071   1.364   2.029   5.308  0.0719  0.1330  1.0819
  112c3c     HC 1072   1.256   2.017   5.317 -0.0195 -1.0957 -1.2524
  112c3c     HC 1073   1.409   2.015   5.407  1.6424 -3.1060 -0.0322
  112c3c     HC 1074   1.403   1.959   5.234  1.5394 -0.2514  2.1781
  113c3c     N4 1075   3.665   1.507   4.191  0.7234 -0.3436  0.1235
  113c3c     C1 1076   3.565   1.578   4.270 -0.7716 -0.0996 -0.4353
  113c3c     C1 1077   3.718   1.409   4.290 -1.2183  0.0747 -0.1723
  113c3c     C2 1078   3.516   1.473   4.371  0.5865 -0.4740 -0.2795
  113c3c     C2 1079   3.602   1.351   4.358 -0.3055  0.2523 -0.7874
  113c3c     C1 1080   3.582   1.450   4.076  0.2264 -0.4474  0.3455
  113c3c     C1 1081   3.775   1.590   4.142  0.4617 -0.8867  0.0962
  113c3c     H1 1082   3.487   1.631   4.216  1.6357  1.9245 -2.0241
  113c3c     H1 1083   3.624   1.650   4.327 -0.9779  1.2424 -1.8912
  113c3c     H1 1084   3.780   1.337   4.237 -0.5318 -1.2468  2.3553
  113c3c     H1 1085   3.772   1.471   4.362  1.2109  0.1110 -1.9308
  113c3c     HC 1086   3.409   1.458   4.355  0.3027 -0.9016  1.8488
  113c3c     HC 1087   3.524   1.516   4.470 -1.4632 -1.1840  0.2175
  113c3c     HC 1088   3.551   1.276   4.298  0.8748 -0.4150 -0.9724
  113c3c     HC 1089   3.635   1.308   4.453  1.8062 -0.1461 -1.6715
  113c3c     H1 1090   3.554   1.526   4.003  1.9082  0.1997  0.3687
  113c3c     H1 1091   3.648   1.376   4.030  1.3531  1.1646 -0.6701
  113c3c     H1 1092   3.491   1.396   4.103 -0.3808 -0.9664 -2.6376
  113c3c     H1 1093   3.836   1.522   4.083  0.6877  1.2839 -2.2425
  113c3c     H1 1094   3.747   1.663   4.066 -1.4174 -0.7573  0.8926
  113c3c     C2 1095   3.862   1.677   4.231  0.0554 -0.0575  0.2914
  113c3c     HC 1096   3.900   1.621   4.316  1.6787  0.3971 -0.1065
  113c3c     HC 1097   3.805   1.759   4.275  0.8453  1.8717 -2.1509
  113c3c     CT 1098   3.997   1.729   4.171 -0.2775  0.0536  0.0120
  113c3c     HC 1099   4.083   1.671   4.204  0.0848 -1.0184 -2.6682
  113c3c     HC 1100   4.003   1.831   4.210 -2.1901  0.1376  0.1120
  113c3c     HC 1101   4.000   1.733   4.062 -2.0905  2.2717 -0.0020
  114c3c     N4 1102   2.010   2.123   3.898 -0.0800  0.0521 -0.2993
  114c3c     C1 1103   2.078   2.009   3.971 -0.9962 -0.1255  0.4902
  114c3c     C1 1104   2.109   2.227   3.912  0.2088 -0.1417  0.1338
  114c3c     C2 1105   2.224   2.017   3.922  0.0759 -0.1012  0.2395
  114c3c     C2 1106   2.251   2.166   3.887  0.2432 -0.5510 -0.5334
  114c3c     C1 1107   1.982   2.088   3.759  0.3256 -0.2738  0.0804
  114c3c     C1 1108   1.880   2.155   3.950  0.7754  0.0532  0.5082
  114c3c     H1 1109   2.041   1.910   3.945 -1.0305  0.1009 -0.3571
  114c3c     H1 1110   2.069   2.017   4.079 -3.4859 -0.5698  0.3448
  114c3c     H1 1111   2.084   2.304   3.840  0.3082  1.9214  2.2095
  114c3c     H1 1112   2.112   2.259   4.017 -1.2097 -0.5057  0.2862
  114c3c     HC 1113   2.234   1.966   3.826 -1.2955  2.0195 -1.0885
  114c3c     HC 1114   2.292   1.979   3.997  1.7381  1.6562 -0.3392
  114c3c     HC 1115   2.293   2.182   3.788 -1.0622  2.0239 -0.7213
  114c3c     HC 1116   2.329   2.200   3.954 -0.0168  0.0507 -0.5353
  114c3c     H1 1117   1.898   2.019   3.750 -0.7323  0.9035  0.7501
  114c3c     H1 1118   1.951   2.181   3.711 -0.5755 -0.6251 -0.0365
  114c3c     H1 1119   2.068   2.046   3.706 -0.0322 -0.5038 -0.3219
  114c3c     H1 1120   1.836   2.231   3.886 -0.3573 -0.4002  0.7467
  114c3c     H1 1121   1.822   2.064   3.939  2.8480 -1.5409  2.3022
  114c3c     C2 1122   1.868   2.193   4.098 -0.1550  0.3734 -0.3781
  114c3c     HC 1123   1.916   2.286   4.126  0.7781 -0.2448  0.1011
  114c3c     HC 1124   1.890   2.104   4.157 -0.6671 -0.4267 -1.3785
  114c3c     CT 1125   1.726   2.233   4.125 -0.1476  0.0270  0.1844
  114c3c     HC 1126   1.693   2.241   4.229  1.4631 -2.6329  0.9271
  114c3c     HC 1127   1.655   2.167   4.076 -0.9050  1.1408 -0.2441
  114c3c     HC 1128   1.717   2.339   4.099 -0.5586  0.4432  1.9516
  115c3c     N4 1129   4.388   1.937   4.973  0.2793  0.2591 -0.5393
  115c3c     C1 1130   4.447   1.855   4.871  0.5334  0.1003 -0.6425
  115c3c     C1 1131   4.469   1.909   5.094  0.3221  0.2930  0.1074
  115c3c     C2 1132   4.595   1.867   4.897 -0.3932 -0.3909 -0.1681
  115c3c     C2 1133   4.613   1.891   5.044 -0.5449  0.1957 -0.4934
  115c3c     C1 1134   4.411   2.079   4.945 -0.7012 -0.8128 -0.8486
  115c3c     C1 1135   4.244   1.917   4.999 -0.0237  0.1901  0.0768
  115c3c     H1 1136   4.421   1.890   4.771  1.3658 -0.8700 -1.2113
  115c3c     H1 1137   4.415   1.751   4.870 -0.8193  0.4825  0.2570
  115c3c     H1 1138   4.456   1.983   5.172 -1.4586 -1.1990  1.2813
  115c3c     H1 1139   4.438   1.815   5.141  1.1269  0.2560  0.5743
  115c3c     HC 1140   4.634   1.942   4.829 -2.2810 -0.3410 -1.2584
  115c3c     HC 1141   4.644   1.773   4.870  0.6678 -0.0419  0.5161
  115c3c     HC 1142   4.665   1.986   5.057 -1.0256  0.3603  0.3085
  115c3c     HC 1143   4.669   1.810   5.092  1.4464  1.5113 -0.5322
  115c3c     H1 1144   4.355   2.103   4.855 -0.0724  0.4265 -0.9170
  115c3c     H1 1145   4.379   2.144   5.026 -1.1899  0.7368 -2.2685
  115c3c     H1 1146   4.515   2.107   4.924 -0.3781 -1.7631 -0.5733
  115c3c     H1 1147   4.206   1.982   5.078  0.0151 -0.2212  0.4399
  115c3c     H1 1148   4.201   1.949   4.905 -0.9793  1.1132  0.8120
  115c3c     C2 1149   4.206   1.771   5.027  0.5697  0.5723  0.0293
  115c3c     HC 1150   4.267   1.720   5.102  0.3572  1.5085  0.8514
  115c3c     HC 1151   4.212   1.709   4.938  0.2304 -0.5329  0.7568
  115c3c     CT 1152   4.065   1.766   5.089  1.0235 -0.4842  0.4830
  115c3c     HC 1153   3.995   1.822   5.026 -0.2623 -0.6361  1.7443
  115c3c     HC 1154   4.062   1.806   5.191 -0.7917 -1.0474  0.6762
  115c3c     HC 1155   4.020   1.667   5.092 -1.4199  0.5430 -0.6098
  116c3c     N4 1156   4.152   2.584   4.461 -0.0733  0.0160  0.0391
  116c3c     C1 1157   4.246   2.505   4.543 -0.2669 -0.3547  0.7991
  116c3c     C1 1158   4.109   2.490   4.353  0.0154  0.1520  0.1900
  116c3c     C2 1159   4.201   2.357   4.536  0.3217 -0.0957  0.3391
  116c3c     C2 1160   4.096   2.352   4.423 -0.3526 -0.3840  0.1330
  116c3c     C1 1161   4.032   2.618   4.537 -0.4788  0.3709  0.0027
  116c3c     C1 1162   4.204   2.710   4.413  0.8367 -0.0140  0.4719
  116c3c     H1 1163   4.259   2.549   4.642 -0.8070  0.4073  0.5316
  116c3c     H1 1164   4.345   2.501   4.497 -1.3636 -0.0137 -1.6942
  116c3c     H1 1165   4.021   2.516   4.293  0.8006  1.2449 -0.5170
  116c3c     H1 1166   4.185   2.488   4.274 -1.0454 -1.0647 -0.8221
  116c3c     HC 1167   4.156   2.345   4.635 -0.4915 -0.1265 -0.0348
  116c3c     HC 1168   4.273   2.275   4.531  0.3592  0.0412 -1.7555
  116c3c     HC 1169   3.995   2.347   4.462 -0.0945  0.9355  1.0258
  116c3c     HC 1170   4.117   2.269   4.356  1.4119 -0.1162  0.3229
  116c3c     H1 1171   4.042   2.689   4.619 -0.2384 -0.6459  0.8662
  116c3c     H1 1172   3.949   2.647   4.474 -0.2817  0.3714 -0.2576
  116c3c     H1 1173   3.996   2.528   4.587 -0.4082  1.0946  1.3784
  116c3c     H1 1174   4.126   2.775   4.374  0.3194 -0.3095  1.0034
  116c3c     H1 1175   4.237   2.763   4.503 -0.2894  0.3535  0.6709
  116c3c     C2 1176   4.315   2.709   4.309 -0.6571 -0.1881  0.3009
  116c3c     HC 1177   4.265   2.676   4.218 -0.3332  0.6341 -0.1839
  116c3c     HC 1178   4.393   2.639   4.337 -2.0015 -1.7475  0.2070
  116c3c     CT 1179   4.383   2.855   4.292 -0.3007 -0.1626 -0.6447
  116c3c     HC 1180   4.399   2.901   4.390  0.8380  0.1152 -0.9564
  116c3c     HC 1181   4.329   2.924   4.228 -0.9655 -1.8938 -1.9977
  116c3c     HC 1182   4.479   2.847   4.243 -0.1279  3.4818 -1.0160
  117c3c     N4 1183   2.305   1.910   5.307 -0.1564 -0.3599  0.2607
  117c3c     C1 1184   2.319   1.832   5.431  0.2581  0.2238  0.0263
  117c3c     C1 1185   2.399   1.852   5.214  0.2401 -0.2226 -0.3831
  117c3c     C2 1186   2.328   1.689   5.384  0.0022  0.2102  0.8790
  117c3c     C2 1187   2.382   1.705   5.240  0.1772  0.0039 -0.1898
  117c3c     C1 1188   2.173   1.907   5.246  0.4258 -0.1249  0.3018
  117c3c     C1 1189   2.331   2.053   5.316  0.4346 -0.3229  0.3698
  117c3c     H1 1190   2.240   1.847   5.505 -1.6906 -3.7753 -1.1454
  117c3c     H1 1191   2.417   1.849   5.476 -0.2728  0.0434  1.2734
  117c3c     H1 1192   2.393   1.881   5.109  0.0825 -0.6993 -0.5054
  117c3c     H1 1193   2.501   1.865   5.250  0.0018  0.9688 -0.1077
  117c3c     HC 1194   2.237   1.630   5.377  0.8557 -0.8746 -1.2470
  117c3c     HC 1195   2.399   1.632   5.445  0.8509 -1.2959 -1.4639
  117c3c     HC 1196   2.317   1.655   5.168 -0.8723 -0.6798  1.1961
  117c3c     HC 1197   2.479   1.657   5.242 -0.2945 -0.9397  1.6134
  117c3c     H1 1198   2.095   1.939   5.315 -0.9713 -0.6389 -1.0249
  117c3c     H1 1199   2.156   1.971   5.159 -2.2389  0.9923  1.6003
  117c3c     H1 1200   2.143   1.805   5.222 -0.1660  0.0062  0.4683
  117c3c     H1 1201   2.327   2.106   5.221 -0.6445 -0.8802  0.0959
  117c3c     H1 1202   2.248   2.096   5.372 -1.6744 -1.5780 -1.7152
  117c3c     C2 1203   2.452   2.096   5.394  0.6105 -0.0014 -0.3041
  117c3c     HC 1204   2.539   2.048   5.350 -0.8780 -2.3983 -0.7789
  117c3c     HC 1205   2.441   2.059   5.496  1.1259  0.1471 -0.1952
  117c3c     CT 1206   2.471   2.249   5.376 -0.8813 -0.8860  0.3025
  117c3c     HC 1207   2.376   2.302   5.380 -1.8865 -2.7368  1.8614
  117c3c     HC 1208   2.517   2.270   5.279 -0.7472  1.5540  0.8688
  117c3c     HC 1209   2.535   2.294   5.452  0.8279 -2.7592  0.0108
  118c3c     N4 1210   5.186   2.211   3.889  0.3992 -0.0998 -0.4807
  118c3c     C1 1211   5.294   2.292   3.834 -0.1016  0.6334 -0.3822
  118c3c     C1 1212   5.119   2.306   3.982  0.0358  0.1281 -0.3173
  118c3c     C2 1213   5.245   2.435   3.823  0.1496  0.3443 -0.2621
  118c3c     C2 1214   5.120   2.446   3.906  0.0132  0.8013  0.2940
  118c3c     C1 1215   5.095   2.171   3.782  0.2222  0.4341 -0.0466
  118c3c     C1 1216   5.232   2.084   3.952  0.0917 -0.2834 -0.0047
  118c3c     H1 1217   5.338   2.256   3.740  0.6257 -1.1304  0.6104
  118c3c     H1 1218   5.379   2.293   3.903  2.7486  0.8957 -3.7281
  118c3c     H1 1219   5.022   2.272   4.017 -1.3411  0.9838 -3.1619
  118c3c     H1 1220   5.188   2.311   4.066 -1.6380 -1.2448  1.1842
  118c3c     HC 1221   5.229   2.464   3.719  1.9465 -0.1170 -0.6739
  118c3c     HC 1222   5.323   2.504   3.854  1.0865 -0.5427 -0.6083
  118c3c     HC 1223   5.028   2.460   3.850  1.2652  0.6373 -1.8739
  118c3c     HC 1224   5.134   2.521   3.984  2.3207  0.7772 -0.0507
  118c3c     H1 1225   5.156   2.128   3.703 -0.2294 -1.3077  0.5308
  118c3c     H1 1226   5.024   2.093   3.810 -0.3952  1.4009  1.1709
  118c3c     H1 1227   5.041   2.254   3.736 -1.3337  0.4699  1.7366
  118c3c     H1 1228   5.151   2.029   4.000 -0.0892 -0.7376 -0.8180
  118c3c     H1 1229   5.268   2.014   3.877  0.5830  1.1412 -1.1145
  118c3c     C2 1230   5.346   2.101   4.057  0.0328  0.1624 -0.8345
  118c3c     HC 1231   5.315   2.161   4.143  1.6206  0.3435 -0.3666
  118c3c     HC 1232   5.438   2.146   4.021 -0.0551  0.9893 -0.0442
  118c3c     CT 1233   5.392   1.960   4.106  0.4613  0.0500 -0.7689
  118c3c     HC 1234   5.433   1.897   4.027 -2.3772 -1.9658 -0.7143
  118c3c     HC 1235   5.303   1.906   4.138 -1.1262  2.3427 -1.2120
  118c3c     HC 1236   5.468   1.962   4.184  0.3962  1.4936 -0.7266
  119c3c     N4 1237   5.099   2.004   1.878 -0.3173 -0.4026 -0.2504
  119c3c     C1 1238   5.182   2.106   1.944 -0.1968 -0.1450 -0.0800
  119c3c     C1 1239   5.138   1.885   1.957 -0.4022 -1.1909  0.3105
  119c3c     C2 1240   5.164   2.071   2.095 -0.1506  0.0290 -0.0283
  119c3c     C2 1241   5.146   1.925   2.104  0.9805 -0.0728  0.0875
  119c3c     C1 1242   4.953   2.018   1.892  0.4139 -0.4356  0.4669
  119c3c     C1 1243   5.127   1.994   1.733  0.6598  0.1795  0.1628
  119c3c     H1 1244   5.140   2.206   1.930 -2.0355 -0.9686 -0.6781
  119c3c     H1 1245   5.288   2.112   1.921 -0.5105  0.0836 -1.5175
  119c3c     H1 1246   5.075   1.804   1.921 -0.2874 -1.2539  0.2526
  119c3c     H1 1247   5.243   1.865   1.934 -0.0684 -0.4327  1.0993
  119c3c     HC 1248   5.081   2.130   2.135 -0.7749 -1.3784  0.8148
  119c3c     HC 1249   5.259   2.092   2.144 -0.4096 -0.1612  0.5586
  119c3c     HC 1250   5.053   1.896   2.153  0.1934  2.0722 -0.1035
  119c3c     HC 1251   5.219   1.881   2.172 -1.0561 -0.8148  1.8618
  119c3c     H1 1252   4.915   2.113   1.853 -0.9925 -1.4719 -0.7568
  119c3c     H1 1253   4.894   1.944   1.838  0.3852 -0.4469  0.5143
  119c3c     H1 1254   4.921   2.016   1.996 -3.2241 -2.5519 -0.5886
  119c3c     H1 1255   5.063   1.920   1.683  1.9522 -0.2407 -0.8945
  119c3c     H1 1256   5.104   2.087   1.681 -1.9385  0.0670  1.0212
  119c3c     C2 1257   5.269   1.967   1.699  0.5075 -0.4539 -1.1049
  119c3c     HC 1258   5.303   1.873   1.743 -2.1781 -0.8326  0.2425
  119c3c     HC 1259   5.334   2.050   1.727 -1.7901  0.8415  0.5102
  119c3c     CT 1260   5.269   1.944   1.548 -0.2611 -0.3152 -0.2263
  119c3c     HC 1261   5.215   2.021   1.493 -0.2423 -0.3894 -0.3487
  119c3c     HC 1262   5.230   1.848   1.515 -0.4074  0.0062 -1.0130
  119c3c     HC 1263   5.372   1.941   1.513  0.1153 -2.5152  1.0190
  120c3c     N4 1264   2.688   2.232   3.636  0.4474 -0.2306 -0.3461
  120c3c     C1 1265   2.809   2.238   3.544 -0.2694 -0.0739  0.1325
  120c3c     C1 1266   2.606   2.125   3.582  0.0715  0.2915 -0.6430
  120c3c     C2 1267   2.841   2.087   3.531  0.7323 -0.4052 -0.2639
  120c3c     C2 1268   2.702   2.013   3.558  0.3558 -0.6909  0.3095
  120c3c     C1 1269   2.724   2.206   3.778 -0.0582 -0.0780 -0.2910
  120c3c     C1 1270   2.620   2.361   3.639  0.0177  0.2217  0.2614
  120c3c     H1 1271   2.890   2.294   3.591 -0.6349  1.2951 -0.8229
  120c3c     H1 1272   2.790   2.275   3.443  0.2720 -2.0268 -0.7084
  120c3c     H1 1273   2.535   2.084   3.654  0.2922 -0.6189 -0.9392
  120c3c     H1 1274   2.546   2.152   3.495 -2.1372  0.7223  0.9608
  120c3c     HC 1275   2.918   2.061   3.603  0.1984 -0.4792  0.2862
  120c3c     HC 1276   2.873   2.054   3.432  0.5219 -2.9450  0.4609
  120c3c     HC 1277   2.705   1.945   3.644  1.5401 -1.0024  0.0185
  120c3c     HC 1278   2.677   1.951   3.472  2.6745  1.7301 -2.2112
  120c3c     H1 1279   2.777   2.284   3.833  1.1209 -1.0870  0.0539
  120c3c     H1 1280   2.637   2.185   3.839  0.2695 -0.3628  0.0887
  120c3c     H1 1281   2.791   2.120   3.792 -0.2741 -0.0441  0.9456
  120c3c     H1 1282   2.534   2.338   3.701  0.4008 -2.7966 -0.2571
  120c3c     H1 1283   2.688   2.434   3.683 -1.3376  2.5211 -1.3541
  120c3c     C2 1284   2.565   2.429   3.508  0.3879  0.5211 -0.8261
  120c3c     HC 1285   2.512   2.358   3.445 -0.0827 -0.3104  0.4945
  120c3c     HC 1286   2.647   2.460   3.443  0.8992  2.1840  0.5699
  120c3c     CT 1287   2.477   2.547   3.541 -0.4129  0.2889 -0.4348
  120c3c     HC 1288   2.415   2.539   3.630 -0.5590  1.0470 -0.4650
  120c3c     HC 1289   2.401   2.564   3.464 -1.8883 -0.3661  0.8679
  120c3c     HC 1290   2.535   2.638   3.557  2.3195 -1.8610  2.4426
  121c3c     N4 1291   5.904   2.265   4.567 -0.0446  0.0204 -0.3178
  121c3c     C1 1292   5.854   2.397   4.612 -0.4521  0.1447 -0.1616
  121c3c     C1 1293   5.918   2.273   4.423  0.4466 -0.8509  0.4822
  121c3c     C2 1294   5.931   2.496   4.520 -0.3069 -0.5070  0.1431
  121c3c     C2 1295   5.958   2.418   4.391 -0.1554 -0.3701 -0.1257
  121c3c     C1 1296   6.036   2.249   4.634  0.1298 -0.2511  0.3405
  121c3c     C1 1297   5.824   2.149   4.617  0.4096 -0.0941 -0.2224
  121c3c     H1 1298   5.857   2.413   4.720  0.0201 -0.2598 -0.1096
  121c3c     H1 1299   5.749   2.408   4.589 -0.3334  0.6788 -0.4340
  121c3c     H1 1300   5.984   2.199   4.378  2.4930  0.5400  1.1205
  121c3c     H1 1301   5.822   2.255   4.374  1.3739 -3.0257 -0.6171
  121c3c     HC 1302   6.026   2.533   4.559 -1.2142  0.8444  1.1271
  121c3c     HC 1303   5.876   2.588   4.501  0.7071  0.0644 -0.0777
  121c3c     HC 1304   6.062   2.421   4.358 -0.0346  0.1663  0.2971
  121c3c     HC 1305   5.908   2.464   4.305 -0.9946 -0.3409  0.3704
  121c3c     H1 1306   6.028   2.243   4.742  0.2210 -0.6388  0.3264
  121c3c     H1 1307   6.077   2.152   4.604 -1.0796 -1.2844  1.9069
  121c3c     H1 1308   6.111   2.319   4.599  0.7957 -1.1675 -0.1096
  121c3c     H1 1309   5.866   2.057   4.577  1.0453  0.4543 -0.8172
  121c3c     H1 1310   5.833   2.141   4.726  0.1097 -0.1945 -0.2043
  121c3c     C2 1311   5.675   2.149   4.586 -0.0100 -0.6856 -0.6576
  121c3c     HC 1312   5.654   2.160   4.480 -1.2533  1.9452 -0.1755
  121c3c     HC 1313   5.621   2.225   4.642  0.7605 -0.7369  0.1593
  121c3c     CT 1314   5.608   2.024   4.640 -0.6459 -0.6271 -0.3017
  121c3c     HC 1315   5.651   1.934   4.595 -2.7743 -0.7418 -2.1722
  121c3c     HC 1316   5.503   2.033   4.613 -0.6017 -0.0956 -0.3090
  121c3c     HC 1317   5.624   2.026   4.748 -0.3211 -1.4607 -0.3288
  122c3c     N4 1318   2.425   1.311   3.063 -0.1950 -0.1084  0.2032
  122c3c     C1 1319   2.418   1.435   2.977 -0.2805 -0.1721 -0.4126
  122c3c     C1 1320   2.500   1.353   3.188  0.2498  1.0781  0.0990
  122c3c     C2 1321   2.419   1.552   3.074  0.4395  0.3932 -0.4519
  122c3c     C2 1322   2.483   1.504   3.205 -0.4691  0.3112 -0.0613
  122c3c     C1 1323   2.292   1.280   3.111 -0.2175  0.2248  0.7811
  122c3c     C1 1324   2.485   1.205   2.980 -0.1287 -0.3420 -0.2223
  122c3c     H1 1325   2.329   1.434   2.914  0.0651 -1.0438 -0.8996
  122c3c     H1 1326   2.501   1.450   2.908 -1.5780 -0.6356 -2.1140
  122c3c     H1 1327   2.484   1.288   3.273  1.2770 -1.7063 -1.7704
  122c3c     H1 1328   2.605   1.337   3.163 -0.7700 -1.6665 -2.7383
  122c3c     HC 1329   2.320   1.590   3.100  0.8530  1.2118 -0.0527
  122c3c     HC 1330   2.477   1.634   3.030  0.9678 -0.7730 -1.9711
  122c3c     HC 1331   2.407   1.528   3.280 -0.3409  1.3891 -0.2712
  122c3c     HC 1332   2.578   1.551   3.230 -0.7639  0.3653  0.9995
  122c3c     H1 1333   2.224   1.263   3.027  2.2426 -0.5652 -1.1279
  122c3c     H1 1334   2.291   1.182   3.159 -0.7845  0.3902  1.1044
  122c3c     H1 1335   2.255   1.352   3.184  0.6878 -0.3437  1.8065
  122c3c     H1 1336   2.495   1.118   3.045  0.5033 -0.6429 -0.7101
  122c3c     H1 1337   2.415   1.188   2.899 -1.3353 -2.0286  1.1441
  122c3c     C2 1338   2.628   1.232   2.927  0.1289 -0.0437  0.3870
  122c3c     HC 1339   2.698   1.205   3.005 -1.7494 -1.7545  1.5509
  122c3c     HC 1340   2.660   1.326   2.884 -0.1695 -0.1746 -0.1313
  122c3c     CT 1341   2.654   1.142   2.800 -0.1472  1.3490  0.0376
  122c3c     HC 1342   2.569   1.146   2.732 -1.2292 -0.6698  1.2147
  122c3c     HC 1343   2.666   1.036   2.824 -1.1543  1.2095 -0.0460
  122c3c     HC 1344   2.744   1.172   2.747  1.2118 -0.0932  1.4657
  123c3c     N4 1345   1.738   1.551   3.232  0.5759 -0.2832 -0.4581
  123c3c     C1 1346   1.607   1.613   3.259 -0.5251  0.6608 -0.3498
  123c3c     C1 1347   1.709   1.454   3.123  0.0134  0.4033 -0.2259
  123c3c     C2 1348   1.531   1.624   3.127  0.2923  0.2843  0.7163
  123c3c     C2 1349   1.603   1.522   3.036  0.1869 -0.1629  0.0634
  123c3c     C1 1350   1.832   1.649   3.181  0.3274 -0.0119 -0.1821
  123c3c     C1 1351   1.806   1.495   3.350 -0.3445 -0.2506  0.4397
  123c3c     H1 1352   1.609   1.711   3.307 -0.2843  0.4089  0.1588
  123c3c     H1 1353   1.545   1.550   3.323  1.0681  1.5379  2.1576
  123c3c     H1 1354   1.790   1.425   3.057 -2.0276 -1.3268 -2.0506
  123c3c     H1 1355   1.660   1.360   3.150 -0.1325  1.1672  2.2695
  123c3c     HC 1356   1.527   1.721   3.078  1.3638 -0.3598 -0.6989
  123c3c     HC 1357   1.426   1.596   3.132  0.3002  0.1594  0.2880
  123c3c     HC 1358   1.645   1.562   2.944 -0.0664 -2.0088 -0.8932
  123c3c     HC 1359   1.535   1.444   3.000  0.2911 -1.4196  2.4845
  123c3c     H1 1360   1.856   1.728   3.252  0.2364 -0.1923  0.0503
  123c3c     H1 1361   1.931   1.618   3.149 -0.0283  0.2381 -1.5694
  123c3c     H1 1362   1.788   1.704   3.098  0.3175 -1.8936 -1.4491
  123c3c     H1 1363   1.899   1.455   3.310 -0.7405 -1.2783  0.5479
  123c3c     H1 1364   1.832   1.565   3.430  1.3382  1.3246 -1.4326
  123c3c     C2 1365   1.729   1.376   3.409 -0.2344  0.0235 -0.0105
  123c3c     HC 1366   1.755   1.299   3.336  0.4980 -0.4985  0.7916
  123c3c     HC 1367   1.622   1.394   3.412 -0.3921 -1.0901  1.6845
  123c3c     CT 1368   1.775   1.318   3.545 -0.0523 -0.2502  0.3585
  123c3c     HC 1369   1.723   1.223   3.561 -1.1339  0.6017  2.1810
  123c3c     HC 1370   1.737   1.388   3.620 -2.3786 -1.2772  0.1789
  123c3c     HC 1371   1.882   1.317   3.563 -0.0609 -0.7473  0.4009
  124c3c     N4 1372   3.523   4.097   3.757  0.6267  0.4084  0.2347
  124c3c     C1 1373   3.529   3.951   3.770  0.4241 -0.6052  0.3606
  124c3c     C1 1374   3.663   4.130   3.728  0.4709 -0.0550  0.1666
  124c3c     C2 1375   3.640   3.900   3.679 -0.6512  0.8382  0.2117
  124c3c     C2 1376   3.723   4.017   3.646 -0.1574  0.5526 -0.0262
  124c3c     C1 1377   3.438   4.121   3.638 -0.1251 -0.1209 -0.0392
  124c3c     C1 1378   3.447   4.157   3.872 -0.1655  0.3152  0.2685
  124c3c     H1 1379   3.432   3.906   3.751  1.4220 -2.8302  0.2834
  124c3c     H1 1380   3.555   3.916   3.870  1.4936 -1.8592 -0.3412
  124c3c     H1 1381   3.668   4.234   3.699 -0.2836  0.2095  0.9494
  124c3c     H1 1382   3.720   4.129   3.822 -0.5359  1.0532  0.8086
  124c3c     HC 1383   3.585   3.865   3.592  2.0846  3.7573 -2.8391
  124c3c     HC 1384   3.692   3.812   3.717 -2.2013 -0.3028 -0.2477
  124c3c     HC 1385   3.723   4.036   3.539  0.4899 -1.4023 -0.3878
  124c3c     HC 1386   3.828   4.012   3.674  0.5978 -1.3480 -2.9690
  124c3c     H1 1387   3.333   4.098   3.653 -0.0109  0.1781  1.2668
  124c3c     H1 1388   3.425   4.228   3.626  1.3451  0.2218  1.2552
  124c3c     H1 1389   3.464   4.076   3.542 -0.8335 -2.4201  0.8187
  124c3c     H1 1390   3.429   4.263   3.853  1.8253  0.3629 -1.4887
  124c3c     H1 1391   3.349   4.110   3.880  0.4224 -1.3501 -1.8474
  124c3c     C2 1392   3.533   4.169   4.003  0.3333  0.2016  0.6677
  124c3c     HC 1393   3.610   4.245   3.986  0.8983 -0.1278  1.7102
  124c3c     HC 1394   3.590   4.077   4.010  1.2442  0.5966 -1.3331
  124c3c     CT 1395   3.464   4.196   4.138  0.7853  0.2074 -0.2318
  124c3c     HC 1396   3.408   4.289   4.141 -0.7612 -0.7703  2.5013
  124c3c     HC 1397   3.539   4.207   4.217  0.9683 -0.9033 -0.2373
  124c3c     HC 1398   3.397   4.120   4.177  1.4149 -0.3124 -0.1494
  125c3c     N4 1399   4.096   2.107   3.434  0.5950  0.1082 -0.6864
  125c3c     C1 1400   4.037   2.222   3.359  0.4185  0.0210 -0.0854
  125c3c     C1 1401   4.051   2.131   3.572  0.2916  0.4506 -1.0695
  125c3c     C2 1402   3.901   2.245   3.425  0.5817 -1.0660 -0.8696
  125c3c     C2 1403   3.906   2.181   3.558  0.4051  0.2295 -0.4204
  125c3c     C1 1404   4.030   1.993   3.370  0.2622 -0.6487 -0.8642
  125c3c     C1 1405   4.235   2.105   3.427 -0.0024 -0.0327  0.0668
  125c3c     H1 1406   4.033   2.213   3.250 -1.1479  0.4633 -0.0770
  125c3c     H1 1407   4.097   2.311   3.374 -1.7075  1.4154  0.2824
  125c3c     H1 1408   4.051   2.042   3.636  0.0649 -0.3049 -2.1216
  125c3c     H1 1409   4.099   2.219   3.616  0.7133  0.6279 -1.8756
  125c3c     HC 1410   3.813   2.218   3.366 -1.4483  0.9022  1.1640
  125c3c     HC 1411   3.887   2.352   3.440  1.5145 -0.9181 -1.0142
  125c3c     HC 1412   3.838   2.096   3.558  0.1631  0.4166 -1.2995
  125c3c     HC 1413   3.888   2.242   3.647  0.1234  0.8454 -0.9005
  125c3c     H1 1414   4.077   1.982   3.273 -0.1300  1.4117 -1.3105
  125c3c     H1 1415   4.030   1.900   3.427  0.1240  0.4962  1.0834
  125c3c     H1 1416   3.921   2.003   3.363  0.4581  1.9032 -0.6572
  125c3c     H1 1417   4.269   2.017   3.483 -0.5162  0.5240  1.2731
  125c3c     H1 1418   4.271   2.095   3.325  3.3323  1.3417  1.0667
  125c3c     C2 1419   4.315   2.219   3.491 -0.0537  0.5499 -0.6713
  125c3c     HC 1420   4.328   2.192   3.595 -1.7020 -2.3804 -1.1861
  125c3c     HC 1421   4.261   2.314   3.487 -3.3916 -1.3199 -3.0506
  125c3c     CT 1422   4.451   2.237   3.424 -0.2526  0.1325  0.2257
  125c3c     HC 1423   4.492   2.136   3.419  0.4520  0.4814 -1.3940
  125c3c     HC 1424   4.523   2.299   3.476  1.0910  1.2309 -2.8252
  125c3c     HC 1425   4.431   2.273   3.323 -2.8111 -0.2446  0.5532
  126fsi    FSI 1426   3.575   0.425   3.238 -0.3684 -0.1062 -0.3967
  126fsi    SBT 1427   3.647   0.556   3.304  0.2315  0.1069  0.2713
  126fsi    NBT 1428   3.529   0.660   3.293 -0.4440 -0.1848  0.1964
  126fsi    OBT 1429   3.677   0.522   3.440  0.5892  0.3050 -0.2316
  126fsi    OBT 1430   3.758   0.588   3.217 -0.0793 -0.4748  0.4287
  126fsi    SBT 1431   3.514   0.795   3.370 -0.9311  0.4691 -0.1923
  126fsi    OBT 1432   3.468   0.904   3.290 -0.2466  0.3511 -0.2354
  126fsi    OBT 1433   3.628   0.813   3.460 -0.2137  0.0365  0.7458
  126fsi    FSI 1434   3.394   0.770   3.467 -0.1739 -0.2532 -0.6900
  127fsi    FSI 1435   6.269   1.904   4.649  0.0461  0.2775  0.0201
  127fsi    SBT 1436   6.394   1.988   4.616 -0.0421  0.0087 -0.3831
  127fsi    NBT 1437   6.411   1.958   4.461  0.1131  0.5762  0.2334
  127fsi    OBT 1438   6.354   2.119   4.653  0.1601  0.0699 -0.1329
  127fsi    OBT 1439   6.501   1.925   4.689  0.0363 -0.0728 -0.0778
  127fsi    SBT 1440   6.346   2.041   4.339 -0.2811 -0.1110  0.1825
  127fsi    OBT 1441   6.206   2.068   4.357  0.3826 -0.2547  0.0391
  127fsi    OBT 1442   6.392   1.978   4.221 -0.0973 -0.1085  0.1542
  127fsi    FSI 1443   6.421   2.182   4.348 -0.2580 -0.0964  0.6599
  128fsi    FSI 1444   5.006   2.475   4.279  0.0404  0.0774  0.1285
  128fsi    SBT 1445   4.896   2.385   4.354 -0.2751  0.2357 -0.0653
  128fsi    NBT 1446   4.987   2.271   4.400 -0.5663 -0.2553 -0.0811
  128fsi    OBT 1447   4.846   2.473   4.459  0.2713  0.0418 -0.5428
  128fsi    OBT 1448   4.789   2.358   4.257 -0.1749  0.0188  0.3269
  128fsi    SBT 1449   4.968   2.118   4.374 -0.2748  0.2312 -0.0257
  128fsi    OBT 1450   5.035   2.036   4.475 -0.4864 -0.4618 -0.0939
  128fsi    OBT 1451   4.980   2.079   4.237 -0.3889  0.3039  0.1581
  128fsi    FSI 1452   4.817   2.092   4.404 -0.5388 -0.3311 -0.2323
  129fsi    FSI 1453   4.913   0.371   3.626 -0.1708 -0.1242  0.1799
  129fsi    SBT 1454   4.914   0.448   3.764 -0.2371 -0.1546 -0.4180
  129fsi    NBT 1455   4.782   0.536   3.751  0.0123 -0.3023 -0.9831
  129fsi    OBT 1456   4.903   0.344   3.862 -0.6775 -0.5405 -0.2573
  129fsi    OBT 1457   5.036   0.521   3.752 -0.6046  0.0447 -0.1165
  129fsi    SBT 1458   4.731   0.649   3.855 -0.1832  0.3367  0.0299
  129fsi    OBT 1459   4.648   0.746   3.796  0.6438  0.5198 -0.0122
  129fsi    OBT 1460   4.836   0.691   3.947  0.0261 -0.1410 -0.4171
  129fsi    FSI 1461   4.631   0.566   3.946  0.5346 -0.2535 -0.2159
  130fsi    FSI 1462   4.639   1.174   1.056  0.2246  0.4722 -0.2070
  130fsi    SBT 1463   4.549   1.242   1.164  0.1097  0.2436  0.3078
  130fsi    NBT 1464   4.486   1.360   1.083 -0.4317 -0.0971  0.0796
  130fsi    OBT 1465   4.459   1.134   1.198  0.0375 -0.1290 -0.1101
  130fsi    OBT 1466   4.647   1.287   1.262 -0.6588 -0.3846 -0.1121
  130fsi    SBT 1467   4.499   1.519   1.101 -0.1136 -0.6081 -0.0938
  130fsi    OBT 1468   4.472   1.577   0.973 -0.0841  0.6452 -0.2367
  130fsi    OBT 1469   4.609   1.566   1.180  0.7539  0.2009 -0.3439
  130fsi    FSI 1470   4.378   1.556   1.189  0.6193 -0.1238  0.5222
  131fsi    FSI 1471   3.943   1.113   3.151 -0.3580  0.3551  0.1726
  131fsi    SBT 1472   3.838   1.006   3.206  0.7696  0.2721  0.2747
  131fsi    NBT 1473   3.834   0.908   3.088  0.0470  0.0414 -0.4360
  131fsi    OBT 1474   3.909   0.964   3.321  0.5258 -0.0996  0.5304
  131fsi    OBT 1475   3.718   1.087   3.211  0.1567 -0.0197 -0.1437
  131fsi    SBT 1476   3.734   0.909   2.972 -0.2531  0.0983  0.0716
  131fsi    OBT 1477   3.592   0.948   2.989 -0.3383 -0.2449  0.0836
  131fsi    OBT 1478   3.748   0.782   2.901 -0.1364 -0.5348  0.2770
  131fsi    FSI 1479   3.784   1.011   2.877  0.1598 -1.1369  0.8192
  132fsi    FSI 1480   5.694   2.724   4.247 -0.0473  0.3021 -0.0599
  132fsi    SBT 1481   5.585   2.640   4.325 -0.2809  0.2135 -0.3805
  132fsi    NBT 1482   5.626   2.488   4.302 -0.6950 -0.3035 -0.0312
  132fsi    OBT 1483   5.611   2.674   4.463  0.4942  0.4484  0.3520
  132fsi    OBT 1484   5.462   2.685   4.272 -0.0341  0.1963  0.4776
  132fsi    SBT 1485   5.558   2.391   4.194  0.2593  0.2282 -0.0550
  132fsi    OBT 1486   5.414   2.405   4.173 -0.7292 -0.0089 -0.0768
  132fsi    OBT 1487   5.607   2.256   4.214 -0.3764 -0.0774 -0.1671
  132fsi    FSI 1488   5.622   2.428   4.057  0.1587  0.3639  0.2005
  133fsi    FSI 1489   3.332   3.434   4.258  0.0983 -0.9697  0.2050
  133fsi    SBT 1490   3.404   3.368   4.127 -0.1258 -0.3054 -0.1914
  133fsi    NBT 1491   3.504   3.471   4.079  0.4211 -0.5817  0.0781
  133fsi    OBT 1492   3.456   3.250   4.181 -0.1155 -0.5094  0.3550
  133fsi    OBT 1493   3.291   3.345   4.037  0.5763 -0.7661 -0.5628
  133fsi    SBT 1494   3.462   3.607   4.009 -0.0267  0.1723 -0.2380
  133fsi    OBT 1495   3.323   3.628   3.994  0.4782 -0.3642  0.2025
  133fsi    OBT 1496   3.546   3.652   3.904 -0.6031  0.6622 -0.4100
  133fsi    FSI 1497   3.503   3.708   4.120 -0.0585 -0.5857 -0.1233
  134fsi    FSI 1498   3.516   0.744   3.964 -0.0424  0.3559 -0.2285
  134fsi    SBT 1499   3.602   0.833   3.873 -0.1185  0.3641  0.0845
  134fsi    NBT 1500   3.677   0.918   3.978 -0.0736  0.1704 -0.0777
  134fsi    OBT 1501   3.690   0.742   3.804 -0.1543 -0.6384 -0.4286
  134fsi    OBT 1502   3.517   0.900   3.789  0.1936 -0.0347  0.4242
  134fsi    SBT 1503   3.637   1.059   4.024  0.6130 -0.0911  0.2734
  134fsi    OBT 1504   3.524   1.121   3.958  0.5734 -0.2234 -0.1159
  134fsi    OBT 1505   3.757   1.136   4.049 -0.4293  0.4210 -0.3387
  134fsi    FSI 1506   3.579   1.036   4.169  0.2021 -0.1990  0.4877
  135fsi    FSI 1507   2.221   0.352   3.040  0.2570  0.1653 -0.0305
  135fsi    SBT 1508   2.293   0.476   3.104  0.0237 -0.2052 -0.0147
  135fsi    NBT 1509   2.227   0.494   3.249  0.0813  0.7099  0.7164
  135fsi    OBT 1510   2.434   0.445   3.104 -0.1650 -0.0978 -0.0101
  135fsi    OBT 1511   2.254   0.584   3.012 -0.2205  0.2974  0.0302
  135fsi    SBT 1512   2.285   0.472   3.394  0.1436 -0.0906  0.2384
  135fsi    OBT 1513   2.218   0.552   3.498  0.3239  0.0156 -0.0417
  135fsi    OBT 1514   2.432   0.463   3.398 -0.2466  0.1627  0.4797
  135fsi    FSI 1515   2.226   0.335   3.420  0.4262  0.1719 -0.5107
  136fsi    FSI 1516   2.261   1.397   3.621 -0.0708 -0.1718 -0.5375
  136fsi    SBT 1517   2.146   1.452   3.529  0.1430 -0.4576 -0.0295
  136fsi    NBT 1518   2.043   1.517   3.630 -0.2670  0.0374  0.2541
  136fsi    OBT 1519   2.225   1.549   3.453  0.1815  0.1320  0.5615
  136fsi    OBT 1520   2.095   1.336   3.464 -0.3330  0.6750 -0.1110
  136fsi    SBT 1521   2.032   1.664   3.692  0.0947  0.1348  0.6115
  136fsi    OBT 1522   1.902   1.729   3.669  0.5589  0.2229  0.3192
  136fsi    OBT 1523   2.151   1.751   3.680 -0.4218 -0.5180  0.0495
  136fsi    FSI 1524   2.040   1.641   3.844  0.5964  0.4740  0.7682
  137fsi    FSI 1525   4.522   2.565   0.894 -0.8192  0.6006 -0.4043
  137fsi    SBT 1526   4.546   2.459   0.780  0.1405 -0.2317 -0.1093
  137fsi    NBT 1527   4.674   2.375   0.820 -0.3573 -0.0020 -0.4238
  137fsi    OBT 1528   4.431   2.373   0.786 -1.2379 -0.2730  0.0633
  137fsi    OBT 1529   4.560   2.534   0.655 -0.3989 -0.4723  0.1295
  137fsi    SBT 1530   4.830   2.412   0.799  0.0948  0.1268 -0.1765
  137fsi    OBT 1531   4.921   2.320   0.864 -0.4572  0.1433  0.5188
  137fsi    OBT 1532   4.859   2.552   0.819 -0.1386  0.7104 -0.2401
  137fsi    FSI 1533   4.858   2.378   0.652  0.2959 -0.0767  0.3132
  138fsi    FSI 1534   4.976   2.738   4.041  0.5290 -0.3034 -0.0060
  138fsi    SBT 1535   4.840   2.803   4.088  0.3629 -0.1002 -0.2294
  138fsi    NBT 1536   4.753   2.814   3.958 -0.2211  0.5670 -0.2816
  138fsi    OBT 1537   4.790   2.709   4.186  0.2080  0.5121  0.3275
  138fsi    OBT 1538   4.864   2.935   4.133 -0.0161 -0.7513 -0.2564
  138fsi    SBT 1539   4.611   2.757   3.910  0.3750 -0.1687  0.3211
  138fsi    OBT 1540   4.552   2.642   3.977  0.3518  0.1689  0.3234
  138fsi    OBT 1541   4.603   2.755   3.767  0.3325 -0.5900  0.8981
  138fsi    FSI 1542   4.520   2.873   3.946 -0.1414  0.2881 -0.7210
  139fsi    FSI 1543   4.492   1.722   6.605  0.5546 -0.1516  0.4098
  139fsi    SBT 1544   4.578   1.684   6.731  0.0713 -0.3127  0.3656
  139fsi    NBT 1545   4.492   1.568   6.792  0.2640 -0.1215  0.4378
  139fsi    OBT 1546   4.703   1.644   6.676 -0.9874  0.1315 -0.7085
  139fsi    OBT 1547   4.572   1.804   6.805 -0.8093  0.5530 -0.4647
  139fsi    SBT 1548   4.367   1.566   6.884 -0.2819  0.0413  0.1172
  139fsi    OBT 1549   4.367   1.663   6.989  0.7816 -0.0774 -0.0324
  139fsi    OBT 1550   4.335   1.434   6.929 -0.2029  1.3160 -0.1136
  139fsi    FSI 1551   4.250   1.606   6.797 -0.1102  0.1747 -0.0321
  140fsi    FSI 1552   4.372   0.896   4.214  0.2076 -0.0408  0.0782
  140fsi    SBT 1553   4.435   0.806   4.100  0.1916  0.3057 -0.1283
  140fsi    NBT 1554   4.302   0.735   4.042 -0.1561  0.2440 -0.5055
  140fsi    OBT 1555   4.500   0.887   4.004  0.7026 -0.2373 -0.4508
  140fsi    OBT 1556   4.513   0.713   4.171 -0.1749  0.4212 -0.0425
  140fsi    SBT 1557   4.246   0.717   3.893 -0.5192  0.3018  0.0426
  140fsi    OBT 1558   4.306   0.793   3.789 -0.0048 -0.0779  0.1332
  140fsi    OBT 1559   4.101   0.722   3.906 -0.5015 -0.1750  0.1883
  140fsi    FSI 1560   4.273   0.558   3.871 -0.1118  0.3616  0.6718
  141fsi    FSI 1561   4.867   1.877   1.436 -0.6412  0.1348 -0.4524
  141fsi    SBT 1562   4.772   1.759   1.493  0.0655 -0.5109  0.3425
  141fsi    NBT 1563   4.628   1.793   1.437 -0.0400 -0.6264  0.6039
  141fsi    OBT 1564   4.821   1.641   1.435  0.1576  0.5262 -0.2461
  141fsi    OBT 1565   4.790   1.770   1.637  0.4632 -0.1002 -0.0561
  141fsi    SBT 1566   4.500   1.818   1.520  0.2192  0.0220 -0.0054
  141fsi    OBT 1567   4.488   1.739   1.642  0.4392  0.3813 -0.4154
  141fsi    OBT 1568   4.383   1.837   1.430 -0.8359  0.7219 -0.0854
  141fsi    FSI 1569   4.518   1.965   1.577 -0.1192  0.1823 -0.1562
  142fsi    FSI 1570   4.783   2.271   4.908  0.1763  0.2305 -0.6928
  142fsi    SBT 1571   4.811   2.298   4.759 -0.1302  0.2429 -0.3040
  142fsi    NBT 1572   4.719   2.197   4.678 -0.4878  0.4870  0.3691
  142fsi    OBT 1573   4.773   2.439   4.746 -0.8218  0.3497 -0.3576
  142fsi    OBT 1574   4.948   2.272   4.738 -0.0826 -0.0772 -0.4425
  142fsi    SBT 1575   4.579   2.229   4.620  0.3790  0.0577 -0.1264
  142fsi    OBT 1576   4.499   2.314   4.704 -0.1127  0.1559 -0.1073
  142fsi    OBT 1577   4.510   2.111   4.568 -0.4150 -0.3229  0.6272
  142fsi    FSI 1578   4.612   2.312   4.491 -0.0969 -0.3100 -0.5528
  143fsi    FSI 1579   4.203   2.835   3.988  0.1982  0.0027  0.2545
  143fsi    SBT 1580   4.134   2.695   3.975 -0.1346  0.5884  0.3302
  143fsi    NBT 1581   4.075   2.690   3.823 -0.1630 -0.1040 -1.3212
  143fsi    OBT 1582   4.244   2.606   3.991 -0.0958 -0.1288  0.2854
  143fsi    OBT 1583   4.034   2.702   4.075  0.1190  0.1282 -0.0075
  143fsi    SBT 1584   4.140   2.633   3.695 -0.4139  0.1143  0.8520
  143fsi    OBT 1585   4.042   2.548   3.629 -0.2293  0.7096 -0.1735
  143fsi    OBT 1586   4.275   2.581   3.702  0.4791  0.0017  0.5249
  143fsi    FSI 1587   4.145   2.753   3.601 -0.0682  0.5637 -0.2992
  144fsi    FSI 1588   4.985   2.577   1.669  0.1598 -0.3186 -0.1022
  144fsi    SBT 1589   4.986   2.433   1.746  0.4584  0.5280 -0.0857
  144fsi    NBT 1590   4.917   2.333   1.639 -0.2233  0.1716 -0.4178
  144fsi    OBT 1591   5.125   2.410   1.766 -0.0979  0.3525 -0.0684
  144fsi    OBT 1592   4.901   2.455   1.858 -0.0400  0.4253  0.6480
  144fsi    SBT 1593   4.775   2.278   1.623  0.3331 -0.3240 -0.5574
  144fsi    OBT 1594   4.684   2.346   1.711 -0.1248 -0.5374 -0.4128
  144fsi    OBT 1595   4.766   2.136   1.597 -0.5327 -0.1768  0.4757
  144fsi    FSI 1596   4.725   2.339   1.489  0.3347 -0.5693 -0.2456
  145fsi    FSI 1597   5.384   2.119   4.878 -0.3984  0.5471 -0.1348
  145fsi    SBT 1598   5.303   1.986   4.853  0.1630  0.2065 -0.2238
  145fsi    NBT 1599   5.209   1.968   4.987 -0.3876  0.7073  0.0722
  145fsi    OBT 1600   5.241   2.003   4.724  0.1578 -0.2226 -0.0727
  145fsi    OBT 1601   5.410   1.894   4.862 -0.0765  0.1164  0.1677
  145fsi    SBT 1602   5.051   1.967   5.005 -0.2734  0.0256 -0.0720
  145fsi    OBT 1603   4.975   1.986   4.885 -0.0610 -0.3745  0.0950
  145fsi    OBT 1604   5.014   2.039   5.121  0.2188  0.3166  0.0144
  145fsi    FSI 1605   5.032   1.820   5.039  0.2660  0.1033 -0.3898
  146fsi    FSI 1606   4.294   1.711   2.167  0.0241  0.1984 -0.2045
  146fsi    SBT 1607   4.439   1.679   2.117 -0.0789  0.2170  0.0663
  146fsi    NBT 1608   4.515   1.793   2.192  0.5298  0.1007 -0.3388
  146fsi    OBT 1609   4.461   1.544   2.164  0.0717 -0.0864 -0.5751
  146fsi    OBT 1610   4.434   1.707   1.975 -0.0398 -0.0638 -0.7447
  146fsi    SBT 1611   4.604   1.783   2.320 -0.0628 -0.1331  0.3538
  146fsi    OBT 1612   4.680   1.662   2.332 -0.0892 -0.0604 -0.5211
  146fsi    OBT 1613   4.543   1.833   2.439  0.3610 -0.1722  0.7872
  146fsi    FSI 1614   4.707   1.899   2.276 -0.0235  0.0389 -0.2917
  147fsi    FSI 1615   1.477   2.193   3.614  0.0610 -0.4700  0.0421
  147fsi    SBT 1616   1.597   2.156   3.710 -0.1818  0.1238  0.1414
  147fsi    NBT 1617   1.678   2.289   3.723 -0.6281  0.8951 -0.1485
  147fsi    OBT 1618   1.531   2.125   3.832  0.1910 -0.5790 -0.1732
  147fsi    OBT 1619   1.658   2.056   3.635 -0.3055  0.2598 -0.4096
  147fsi    SBT 1620   1.654   2.420   3.801  0.3887  0.6369  0.1445
  147fsi    OBT 1621   1.771   2.482   3.855 -0.7976  0.2757 -0.0433
  147fsi    OBT 1622   1.540   2.421   3.888  0.0848 -0.2690  0.3319
  147fsi    FSI 1623   1.605   2.510   3.686  0.5105 -0.1126  0.5280
  148fsi    FSI 1624   1.996   1.381   2.653 -0.0365  0.0822 -0.2800
  148fsi    SBT 1625   1.986   1.305   2.787  0.6411 -0.0030 -0.1526
  148fsi    NBT 1626   2.122   1.230   2.785  0.5471 -0.0312  0.2035
  148fsi    OBT 1627   1.992   1.409   2.888 -0.1163  0.4132  0.0910
  148fsi    OBT 1628   1.867   1.231   2.779  0.0464  0.2361 -0.4391
  148fsi    SBT 1629   2.154   1.080   2.765  0.1121 -0.2808 -0.0023
  148fsi    OBT 1630   2.047   0.994   2.719 -0.1265 -0.0454 -0.1925
  148fsi    OBT 1631   2.240   1.029   2.871  0.4726  0.3193  0.3144
  148fsi    FSI 1632   2.252   1.082   2.642 -0.2244 -0.0292 -0.2972
  149fsi    FSI 1633   1.661   1.546   4.256 -0.3838 -0.3371  0.5402
  149fsi    SBT 1634   1.563   1.603   4.374  0.1620  0.0806  0.1785
  149fsi    NBT 1635   1.634   1.729   4.425  0.0996  0.0861  0.4819
  149fsi    OBT 1636   1.438   1.631   4.306  0.0645  0.0846 -0.0821
  149fsi    OBT 1637   1.567   1.499   4.471 -0.1628  0.1858 -0.5608
  149fsi    SBT 1638   1.596   1.881   4.409 -0.1447  0.1473  0.2841
  149fsi    OBT 1639   1.575   1.931   4.276  0.5267 -0.4950 -0.0054
  149fsi    OBT 1640   1.668   1.966   4.496  0.3328  0.4701  0.6826
  149fsi    FSI 1641   1.449   1.887   4.476  0.0592  0.0406  0.0795
  150fsi    FSI 1642   3.242   0.823   4.084 -0.3825  0.4906 -0.3290
  150fsi    SBT 1643   3.155   0.923   4.004 -0.3316 -0.0120 -0.3022
  150fsi    NBT 1644   3.217   0.923   3.858  0.8023 -0.5026 -0.1128
  150fsi    OBT 1645   3.017   0.878   4.020  0.3485 -0.7927 -0.2917
  150fsi    OBT 1646   3.189   1.041   4.070 -0.0754 -0.5881  0.4076
  150fsi    SBT 1647   3.142   0.921   3.721 -0.0489  0.0613 -0.5443
  150fsi    OBT 1648   3.221   0.985   3.618 -0.1422  0.0115 -0.1571
  150fsi    OBT 1649   3.004   0.967   3.721  0.0340  0.1539 -0.4801
  150fsi    FSI 1650   3.145   0.771   3.689 -0.3078  0.1542  0.4788
  151fsi    FSI 1651   5.431   2.652   0.840  0.0618 -0.0846  0.0503
  151fsi    SBT 1652   5.290   2.614   0.796  0.0893 -0.0248  0.6045
  151fsi    NBT 1653   5.199   2.732   0.840  0.3083  0.1666  0.3695
  151fsi    OBT 1654   5.296   2.593   0.656  0.5532 -0.0846  0.3750
  151fsi    OBT 1655   5.263   2.498   0.882 -0.0968 -0.3156  0.1545
  151fsi    SBT 1656   5.152   2.861   0.766  0.1233 -0.0640  0.0905
  151fsi    OBT 1657   5.016   2.899   0.792  0.5552 -0.2112 -0.3981
  151fsi    OBT 1658   5.201   2.873   0.632 -0.3291  0.0681  0.4029
  151fsi    FSI 1659   5.226   2.976   0.850  0.1791  0.1530  0.2643
  152fsi    FSI 1660   3.195   4.751   4.604  0.4134  0.8140  0.4388
  152fsi    SBT 1661   3.061   4.667   4.637  0.5095 -0.2880 -0.1733
  152fsi    NBT 1662   3.032   4.693   4.785 -0.0788  0.0657  0.4212
  152fsi    OBT 1663   2.969   4.727   4.545  0.1072 -0.1171  0.6938
  152fsi    OBT 1664   3.100   4.536   4.607  0.3538  0.6244  0.4572
  152fsi    SBT 1665   2.931   4.782   4.853 -0.1518 -0.3073 -0.0687
  152fsi    OBT 1666   2.856   4.864   4.767 -0.0144  0.1821 -0.2103
  152fsi    OBT 1667   2.968   4.853   4.973  0.5035  0.4903 -0.3066
  152fsi    FSI 1668   2.829   4.677   4.903 -0.9151  0.3578 -0.2854
  153fsi    FSI 1669   5.400   2.160   3.268  0.1506 -0.3122  0.1898
  153fsi    SBT 1670   5.319   2.210   3.401  0.1245  0.0571 -0.6266
  153fsi    NBT 1671   5.198   2.280   3.335  0.2243 -0.2555 -0.0733
  153fsi    OBT 1672   5.282   2.092   3.475 -1.0189  0.3686 -0.6056
  153fsi    OBT 1673   5.419   2.298   3.457  0.4420  0.0047 -0.3877
  153fsi    SBT 1674   5.143   2.422   3.337 -0.1185 -0.0420 -0.6425
  153fsi    OBT 1675   5.116   2.470   3.468 -0.3362  0.4481 -1.5278
  153fsi    OBT 1676   5.037   2.440   3.243 -0.1793 -0.4752 -0.3454
  153fsi    FSI 1677   5.262   2.518   3.288  0.5308  0.1718 -0.6450
  154fsi    FSI 1678   1.841   0.732   3.680 -0.0288 -0.3514  0.2004
  154fsi    SBT 1679   1.964   0.833   3.683  0.4641 -0.4477 -0.1467
  154fsi    NBT 1680   2.006   0.823   3.829 -0.3380  0.6286  0.1173
  154fsi    OBT 1681   2.065   0.797   3.586  0.4593 -0.5509  0.3791
  154fsi    OBT 1682   1.904   0.961   3.665  0.5260  0.5335 -0.1632
  154fsi    SBT 1683   2.140   0.773   3.898  0.2129  0.0584  0.2440
  154fsi    OBT 1684   2.159   0.829   4.028 -0.7699 -0.0853 -0.7387
  154fsi    OBT 1685   2.250   0.763   3.807 -0.6219  0.8658  0.0333
  154fsi    FSI 1686   2.097   0.621   3.926 -0.3627 -0.5659  0.1041
  155fsi    FSI 1687   0.648   2.004   4.431  0.0517  0.0231  0.0978
  155fsi    SBT 1688   0.566   2.042   4.308  0.0585  0.1527 -0.0698
  155fsi    NBT 1689   0.543   1.894   4.252  0.4728  0.5390  0.4458
  155fsi    OBT 1690   0.441   2.096   4.359  0.0839 -0.6355 -0.2340
  155fsi    OBT 1691   0.648   2.134   4.232  0.2215  0.2228 -0.5751
  155fsi    SBT 1692   0.615   1.824   4.128  0.0277  0.0207  0.3917
  155fsi    OBT 1693   0.689   1.709   4.160  0.0327  0.7076  0.5076
  155fsi    OBT 1694   0.668   1.918   4.029 -0.6063  0.5101 -0.4813
  155fsi    FSI 1695   0.489   1.758   4.065  0.2129  0.3914 -0.2123
  156fsi    FSI 1696   2.554   2.345   4.657  0.0651 -0.3655  0.5341
  156fsi    SBT 1697   2.609   2.487   4.653 -0.2317 -0.1685  0.3476
  156fsi    NBT 1698   2.475   2.573   4.654  0.0997 -0.0485 -0.5935
  156fsi    OBT 1699   2.688   2.493   4.774 -0.1696 -0.4693  0.4251
  156fsi    OBT 1700   2.678   2.492   4.527  0.1062  0.1838  0.2573
  156fsi    SBT 1701   2.371   2.604   4.543 -0.0401 -0.0373  0.0832
  156fsi    OBT 1702   2.239   2.603   4.588 -0.4691 -0.0572 -0.1414
  156fsi    OBT 1703   2.402   2.549   4.419  0.1141 -0.2310 -0.3293
  156fsi    FSI 1704   2.393   2.758   4.524 -0.2423  0.5308 -0.1256
  157fsi    FSI 1705   1.981   1.955   4.409 -0.1864 -0.1239 -0.7572
  157fsi    SBT 1706   2.054   2.014   4.539  0.6115 -0.5279 -0.0902
  157fsi    NBT 1707   2.194   2.070   4.479 -0.3635  0.1984 -0.4557
  157fsi    OBT 1708   1.959   2.118   4.586  0.5487  0.2203  0.9043
  157fsi    OBT 1709   2.076   1.893   4.613 -0.1680 -0.2447 -0.2751
  157fsi    SBT 1710   2.218   2.209   4.412 -0.0120 -0.3271 -0.1339
  157fsi    OBT 1711   2.157   2.319   4.482  0.5104  0.0357 -0.6363
  157fsi    OBT 1712   2.215   2.215   4.267 -0.2743  0.7371  0.1221
  157fsi    FSI 1713   2.369   2.229   4.461  0.0729  0.4220  0.3280
  158fsi    FSI 1714   2.960   0.528   3.470  0.5044  0.1959 -0.0706
  158fsi    SBT 1715   2.822   0.605   3.462 -0.0570  0.3362 -0.2456
  158fsi    NBT 1716   2.737   0.511   3.554 -0.5696 -0.2870  0.4120
  158fsi    OBT 1717   2.855   0.733   3.517 -0.0778 -0.3297  0.1211
  158fsi    OBT 1718   2.784   0.599   3.325 -0.0439 -0.5861 -0.5486
  158fsi    SBT 1719   2.666   0.542   3.697  0.3888  0.0535 -0.0072
  158fsi    OBT 1720   2.539   0.601   3.686  0.8124 -0.3969 -0.3080
  158fsi    OBT 1721   2.759   0.596   3.793  0.0140 -0.1463 -0.8273
  158fsi    FSI 1722   2.639   0.401   3.758  0.1577  0.0023 -0.0983
  159fsi    FSI 1723   1.375   1.661   4.903  0.0597  0.0724  0.2131
  159fsi    SBT 1724   1.401   1.736   4.772  0.0043 -0.4212 -0.1143
  159fsi    NBT 1725   1.313   1.663   4.659 -0.4466 -0.0379  0.0324
  159fsi    OBT 1726   1.355   1.867   4.798  0.5855 -0.0500  0.2331
  159fsi    OBT 1727   1.541   1.715   4.749 -0.0138 -0.1669 -0.3311
  159fsi    SBT 1728   1.179   1.683   4.588  0.1422 -0.0748  0.4489
  159fsi    OBT 1729   1.162   1.588   4.482 -0.6055 -0.1546 -0.4732
  159fsi    OBT 1730   1.148   1.822   4.563 -0.4461  0.0663 -0.3535
  159fsi    FSI 1731   1.079   1.638   4.699 -0.1734 -0.0620  0.1760
  160fsi    FSI 1732   5.396   2.313   0.600 -0.0311  0.2049 -0.2894
  160fsi    SBT 1733   5.271   2.229   0.568  0.3181  0.2910  0.0745
  160fsi    NBT 1734   5.302   2.083   0.615  0.4181 -0.6543 -0.0884
  160fsi    OBT 1735   5.167   2.293   0.642  0.2010 -0.0937 -0.5322
  160fsi    OBT 1736   5.254   2.230   0.425 -0.0436 -0.0572  0.1231
  160fsi    SBT 1737   5.305   2.025   0.756 -0.0390  0.0221  0.1363
  160fsi    OBT 1738   5.260   1.891   0.755  0.6466  0.5097  0.3206
  160fsi    OBT 1739   5.255   2.108   0.860 -0.1880 -0.1294 -0.1261
  160fsi    FSI 1740   5.463   2.017   0.783 -0.1009  0.5722 -0.0635
  161fsi    FSI 1741   4.692   2.036   3.875  0.1239  0.5488 -0.0226
  161fsi    SBT 1742   4.700   2.096   3.735  0.1457  0.0925 -0.2116
  161fsi    NBT 1743   4.772   2.229   3.769  0.4018  0.0037 -0.4325
  161fsi    OBT 1744   4.779   2.001   3.662 -0.5261 -0.1978  0.2519
  161fsi    OBT 1745   4.561   2.105   3.703 -0.1166 -0.1505 -0.3452
  161fsi    SBT 1746   4.722   2.378   3.789 -0.0015  0.4782 -0.1930
  161fsi    OBT 1747   4.579   2.390   3.783 -0.3769  0.1254  0.2911
  161fsi    OBT 1748   4.806   2.470   3.713 -0.4795  0.3970 -0.1552
  161fsi    FSI 1749   4.769   2.400   3.940  0.1766  0.1132  0.3465
  162fsi    FSI 1750   3.141   3.448   3.520  0.5074  0.1548  0.2069
  162fsi    SBT 1751   3.171   3.545   3.641 -0.1936  0.2251  0.0530
  162fsi    NBT 1752   3.046   3.642   3.639 -0.7268  0.3526 -0.8684
  162fsi    OBT 1753   3.175   3.457   3.751  0.1028  0.3193  0.3091
  162fsi    OBT 1754   3.293   3.614   3.606  0.0109  0.1287 -0.7634
  162fsi    SBT 1755   2.932   3.649   3.749  0.7242 -0.4796 -0.0471
  162fsi    OBT 1756   2.840   3.756   3.728  1.1293  0.3266  0.2357
  162fsi    OBT 1757   2.988   3.641   3.882  0.1229 -0.2681  0.4258
  162fsi    FSI 1758   2.851   3.515   3.729  0.0558  0.1000 -0.3238
  163fsi    FSI 1759   5.291   0.966   3.620  0.2356  0.3889  0.4291
  163fsi    SBT 1760   5.196   0.835   3.604 -0.0054 -0.5455 -0.2504
  163fsi    NBT 1761   5.073   0.866   3.505 -0.1380 -0.2404 -0.1672
  163fsi    OBT 1762   5.293   0.742   3.544 -0.2232  0.9756  0.4042
  163fsi    OBT 1763   5.159   0.789   3.739  0.2615 -0.5849  0.5502
  163fsi    SBT 1764   4.922   0.891   3.548 -0.0866  0.1506  0.2926
  163fsi    OBT 1765   4.835   0.943   3.447 -0.0334  0.0638  0.6613
  163fsi    OBT 1766   4.917   0.950   3.676  0.2521  0.0500  0.0091
  163fsi    FSI 1767   4.868   0.745   3.569 -0.0710  0.0546 -1.0571
  164fsi    FSI 1768   5.157   1.684   6.261 -0.4439  0.2494 -0.7549
  164fsi    SBT 1769   5.102   1.787   6.371 -0.2141  0.0080  0.4428
  164fsi    NBT 1770   5.225   1.877   6.405 -0.1861 -0.2510  0.1012
  164fsi    OBT 1771   4.991   1.848   6.306 -0.2579 -0.0269  0.0267
  164fsi    OBT 1772   5.068   1.702   6.484 -0.2940 -0.1089 -0.3657
  164fsi    SBT 1773   5.255   2.020   6.355 -0.1940 -0.2826 -0.4306
  164fsi    OBT 1774   5.253   2.117   6.463  0.2745  0.6770  0.2283
  164fsi    OBT 1775   5.195   2.051   6.228 -0.3746  0.7543 -0.1764
  164fsi    FSI 1776   5.413   2.013   6.315  0.5337 -0.3608  0.2959
  165fsi    FSI 1777   5.058   2.538   1.308  0.2230 -0.2350  0.0807
  165fsi    SBT 1778   5.010   2.530   1.161 -0.3368 -0.2213 -0.3668
  165fsi    NBT 1779   4.859   2.493   1.167 -0.1319 -0.0376  0.1525
  165fsi    OBT 1780   5.038   2.656   1.095 -0.0121  0.0790 -0.6074
  165fsi    OBT 1781   5.087   2.415   1.117 -0.2898 -0.9266 -0.0069
  165fsi    SBT 1782   4.737   2.595   1.166  0.0327 -0.2229 -0.2205
  165fsi    OBT 1783   4.617   2.519   1.182  0.2162 -0.0692  0.2350
  165fsi    OBT 1784   4.749   2.698   1.068  0.1026 -0.5885 -0.0126
  165fsi    FSI 1785   4.745   2.668   1.302  0.1863  0.1186 -0.0743
  166fsi    FSI 1786   2.518   4.190   4.679  0.3106 -1.0731  0.9500
  166fsi    SBT 1787   2.533   4.265   4.545 -0.3957  0.2270  0.0455
  166fsi    NBT 1788   2.623   4.378   4.583  0.0544  0.0926 -0.2629
  166fsi    OBT 1789   2.583   4.165   4.456 -0.1028  0.3191 -0.3077
  166fsi    OBT 1790   2.402   4.308   4.519  0.8125  0.5735 -0.2371
  166fsi    SBT 1791   2.788   4.389   4.576  0.1798  0.4776 -0.2066
  166fsi    OBT 1792   2.835   4.468   4.462  0.8370  0.3935  1.2736
  166fsi    OBT 1793   2.859   4.267   4.615  0.3592  0.0827  0.5695
  166fsi    FSI 1794   2.808   4.488   4.698  0.5695 -0.1979  0.0372
  167fsi    FSI 1795   4.731   0.326   4.164 -0.6177 -0.1410  0.5166
  167fsi    SBT 1796   4.855   0.287   4.240  0.6017 -0.2306 -0.3893
  167fsi    NBT 1797   4.839   0.138   4.262 -0.1197  0.4440 -0.2116
  167fsi    OBT 1798   4.966   0.334   4.163 -0.2309  0.6255  0.1652
  167fsi    OBT 1799   4.829   0.355   4.367 -0.9289 -0.4195  0.2764
  167fsi    SBT 1800   4.851   0.025   4.155 -0.2075 -0.0401 -0.4236
  167fsi    OBT 1801   4.906  -0.090   4.212  0.2637 -0.2056 -0.2522
  167fsi    OBT 1802   4.902   0.062   4.021  0.3654  0.3802  0.3965
  167fsi    FSI 1803   4.701  -0.020   4.134  0.5865 -0.3311 -0.5841
  168fsi    FSI 1804   3.671   0.738   4.256 -0.3074 -0.5693 -0.2495
  168fsi    SBT 1805   3.800   0.668   4.218  0.1281 -0.2580 -0.1033
  168fsi    NBT 1806   3.898   0.785   4.169 -0.0247  0.3993 -0.7426
  168fsi    OBT 1807   3.848   0.596   4.330 -0.0554 -0.4937  0.3753
  168fsi    OBT 1808   3.758   0.593   4.104  0.0116  0.0592 -0.1443
  168fsi    SBT 1809   3.950   0.895   4.270  0.1626  0.6809  0.2861
  168fsi    OBT 1810   3.852   0.940   4.363 -0.3717 -0.6249  0.0525
  168fsi    OBT 1811   4.026   1.001   4.208 -0.1444  0.0218 -0.3102
  168fsi    FSI 1812   4.056   0.827   4.359 -0.2266 -0.3665 -0.2662
  169fsi    FSI 1813   4.085   1.922   4.681  0.6349  0.3563  0.1818
  169fsi    SBT 1814   4.116   1.875   4.533 -0.1867  0.0748  0.1421
  169fsi    NBT 1815   4.246   1.786   4.550 -0.4294 -0.3684 -0.3461
  169fsi    OBT 1816   3.994   1.802   4.498 -0.6399 -0.3819  0.0901
  169fsi    OBT 1817   4.144   1.994   4.458 -0.8209 -0.2850  0.7886
  169fsi    SBT 1818   4.269   1.640   4.598  0.1007 -0.1504  0.4519
  169fsi    OBT 1819   4.169   1.596   4.694 -0.4646 -0.2620 -0.4404
  169fsi    OBT 1820   4.409   1.624   4.632  0.0571 -0.7063 -0.1858
  169fsi    FSI 1821   4.254   1.544   4.473  0.4868  0.6022 -0.7980
  170fsi    FSI 1822   4.699   1.043   4.124 -0.0509 -0.9229 -0.5721
  170fsi    SBT 1823   4.778   1.102   4.003  0.0555  0.5762 -0.1525
  170fsi    NBT 1824   4.777   1.254   4.031 -1.2061  0.4126  0.0393
  170fsi    OBT 1825   4.905   1.038   4.024  0.1321 -0.5751 -0.4973
  170fsi    OBT 1826   4.695   1.066   3.893 -0.1186 -1.0132 -0.1754
  170fsi    SBT 1827   4.825   1.323   4.158 -0.2100 -0.1840  0.4227
  170fsi    OBT 1828   4.852   1.456   4.139  0.0913  0.2431 -0.1175
  170fsi    OBT 1829   4.902   1.252   4.257  0.3812 -0.3128 -0.8461
  170fsi    FSI 1830   4.692   1.333   4.229  0.5831  0.1932 -0.2582
  171fsi    FSI 1831   2.264   2.062   4.913 -0.6159 -0.0337  0.5325
  171fsi    SBT 1832   2.175   2.194   4.935 -0.0994 -0.0996 -0.4542
  171fsi    NBT 1833   2.258   2.286   5.024  0.2120  0.0358 -0.8111
  171fsi    OBT 1834   2.158   2.242   4.803  0.2251 -0.1493  0.1717
  171fsi    OBT 1835   2.058   2.143   4.999  0.0891 -0.0715  0.0946
  171fsi    SBT 1836   2.348   2.412   4.990 -0.1041 -0.0445  0.2043
  171fsi    OBT 1837   2.359   2.512   5.100  0.6658 -0.2476  0.0806
  171fsi    OBT 1838   2.314   2.467   4.861 -0.4423 -0.1944  1.0209
  171fsi    FSI 1839   2.491   2.348   4.974 -0.3962  0.0856 -0.5238
  172fsi    FSI 1840   2.511   0.857   2.977 -0.0728  0.0940 -0.3207
  172fsi    SBT 1841   2.609   0.814   3.089  0.4052  0.1755 -0.1028
  172fsi    NBT 1842   2.508   0.772   3.201  0.9161  0.2367 -0.0199
  172fsi    OBT 1843   2.683   0.697   3.045 -0.0791  0.5509  0.4081
  172fsi    OBT 1844   2.692   0.930   3.121 -0.2802 -0.2229 -0.0478
  172fsi    SBT 1845   2.471   0.859   3.330  0.1606 -0.4045 -0.2126
  172fsi    OBT 1846   2.379   0.788   3.423  0.9515 -1.1848  0.9127
  172fsi    OBT 1847   2.441   0.991   3.294 -0.1989 -0.1688 -0.0850
  172fsi    FSI 1848   2.601   0.875   3.413 -0.3579  0.3592  0.2319
  173fsi    FSI 1849   2.549   1.482   4.852  0.0883 -0.5196 -0.8272
  173fsi    SBT 1850   2.634   1.613   4.867 -0.1461 -0.2194  0.5081
  173fsi    NBT 1851   2.566   1.713   4.773 -0.0124 -0.3757  0.3423
  173fsi    OBT 1852   2.622   1.654   5.005  0.0796 -0.4126 -0.1166
  173fsi    OBT 1853   2.764   1.576   4.810 -0.1568  0.0642 -0.0873
  173fsi    SBT 1854   2.449   1.808   4.804 -0.2417 -0.6703 -0.4085
  173fsi    OBT 1855   2.354   1.753   4.896 -0.1806 -0.5449 -0.4962
  173fsi    OBT 1856   2.385   1.871   4.688  0.2462 -0.7796 -0.3933
  173fsi    FSI 1857   2.522   1.924   4.882  0.1014 -0.4104 -0.0178
  174fsi    FSI 1858   3.845   1.902   3.959  0.5291  0.0056 -0.2462
  174fsi    SBT 1859   3.714   1.983   3.902 -0.5426 -0.3669 -0.1441
  174fsi    NBT 1860   3.638   2.023   4.035  0.4100  0.1344  0.6846
  174fsi    OBT 1861   3.764   2.100   3.835  0.0830  0.1761  0.2125
  174fsi    OBT 1862   3.645   1.894   3.815 -0.0009 -0.5946  0.0487
  174fsi    SBT 1863   3.526   1.930   4.097  0.3289 -0.1561 -0.0312
  174fsi    OBT 1864   3.501   1.806   4.030  0.0013  0.2434  0.4402
  174fsi    OBT 1865   3.409   2.009   4.128  0.1824  0.0247 -0.3944
  174fsi    FSI 1866   3.592   1.888   4.235  0.3307 -0.0969  0.1620
  175fsi    FSI 1867   4.106   1.013   3.638  0.5393 -0.1941 -0.4222
  175fsi    SBT 1868   3.967   1.005   3.707 -0.0052 -0.1468  0.2751
  175fsi    NBT 1869   3.867   1.095   3.627 -0.4714  0.2000  0.7841
  175fsi    OBT 1870   3.925   0.873   3.671 -0.6115  0.0487 -0.2082
  175fsi    OBT 1871   3.988   1.028   3.846 -0.3246 -0.0137 -0.4862
  175fsi    SBT 1872   3.891   1.245   3.594 -0.0361  0.3886 -0.3685
  175fsi    OBT 1873   3.849   1.277   3.463 -0.3575  0.6834  0.0791
  175fsi    OBT 1874   4.011   1.302   3.642  0.3085  0.0607 -0.1976
  175fsi    FSI 1875   3.774   1.306   3.686  0.1628 -0.2045 -0.2580
  176fsi    FSI 1876   5.252   2.453   6.197  0.4436  0.6910  0.1426
  176fsi    SBT 1877   5.102   2.406   6.182 -0.2139 -0.0590 -0.1071
  176fsi    NBT 1878   5.027   2.544   6.191 -0.0930 -0.0278 -0.0858
  176fsi    OBT 1879   5.102   2.336   6.059  0.7119  0.2250 -0.2362
  176fsi    OBT 1880   5.076   2.327   6.303 -0.1773  0.2908  0.0633
  176fsi    SBT 1881   4.966   2.627   6.075  0.4075  0.0483 -0.1135
  176fsi    OBT 1882   4.837   2.682   6.111 -0.4563  0.4211  0.0250
  176fsi    OBT 1883   4.993   2.578   5.944 -0.1339  0.2660 -0.4715
  176fsi    FSI 1884   5.050   2.761   6.081  0.1484  0.0016 -0.6917
  177fsi    FSI 1885   3.353   1.223   3.426  0.3446 -0.3742 -0.0005
  177fsi    SBT 1886   3.444   1.281   3.544  0.2942 -0.5587 -0.1361
  177fsi    NBT 1887   3.342   1.383   3.608 -0.0915  0.4882  0.1106
  177fsi    OBT 1888   3.471   1.170   3.628  0.5673  0.1167  0.2742
  177fsi    OBT 1889   3.555   1.351   3.483  0.9710 -0.2007 -0.3537
  177fsi    SBT 1890   3.256   1.363   3.736  0.0118 -0.0820  0.0816
  177fsi    OBT 1891   3.291   1.461   3.843 -0.0073  0.2211 -0.1327
  177fsi    OBT 1892   3.230   1.228   3.771  0.6628 -0.0590  0.5964
  177fsi    FSI 1893   3.114   1.408   3.689  0.2350 -0.5831  0.3494
  178fsi    FSI 1894   4.023   4.122   3.997  0.2206  0.0598 -0.3683
  178fsi    SBT 1895   3.983   3.978   4.045  0.2172  0.2740 -0.1018
  178fsi    NBT 1896   3.930   3.913   3.913 -0.5367 -0.5338  0.2226
  178fsi    OBT 1897   4.105   3.925   4.104 -0.0869 -0.3635 -0.1698
  178fsi    OBT 1898   3.878   3.999   4.140  0.3445 -0.0751 -0.0065
  178fsi    SBT 1899   3.985   3.792   3.839  0.2046  0.5089 -0.1917
  178fsi    OBT 1900   3.879   3.704   3.800  0.0690  0.4584 -0.2373
  178fsi    OBT 1901   4.095   3.724   3.898 -0.1923  0.7253  0.1123
  178fsi    FSI 1902   4.035   3.849   3.700  0.2562  0.4018 -0.2488
  179fsi    FSI 1903   3.462   2.091   3.628  0.3328 -0.2272 -0.3573
  179fsi    SBT 1904   3.330   2.097   3.709 -0.5254  0.2122  0.0727
  179fsi    NBT 1905   3.353   2.211   3.815  0.4827 -0.6786  0.0336
  179fsi    OBT 1906   3.234   2.127   3.605  0.6144  0.0626  0.3113
  179fsi    OBT 1907   3.341   1.965   3.770 -0.5732  0.5045  0.4676
  179fsi    SBT 1908   3.247   2.287   3.906  0.0793 -0.1188 -0.2246
  179fsi    OBT 1909   3.262   2.263   4.048 -0.6057  0.3055 -0.2074
  179fsi    OBT 1910   3.113   2.288   3.858  0.4674 -0.2610 -0.3053
  179fsi    FSI 1911   3.292   2.435   3.891  0.1578  0.0050  0.0948
  180fsi    FSI 1912   4.605   2.063   2.953  0.3073  0.1558  0.1495
  180fsi    SBT 1913   4.509   2.181   3.009  0.4010  0.3690 -0.1108
  180fsi    NBT 1914   4.429   2.215   2.880 -0.1229 -0.6448 -0.0259
  180fsi    OBT 1915   4.428   2.118   3.107  0.2557  0.5536 -0.3812
  180fsi    OBT 1916   4.599   2.287   3.058  0.6419  0.0026  0.2534
  180fsi    SBT 1917   4.301   2.146   2.827 -0.3690 -0.1284 -0.0405
  180fsi    OBT 1918   4.185   2.159   2.917  0.1984  0.5462 -0.1761
  180fsi    OBT 1919   4.330   2.022   2.761 -0.2760 -0.2241 -0.4700
  180fsi    FSI 1920   4.255   2.234   2.703 -0.2272 -0.2029 -0.2648
  181fsi    FSI 1921   4.690   2.044   5.868  0.6719 -0.7755 -0.1450
  181fsi    SBT 1922   4.732   2.167   5.947  0.1720  0.3278 -0.3498
  181fsi    NBT 1923   4.805   2.251   5.834 -0.2823  0.0261 -0.3128
  181fsi    OBT 1924   4.609   2.214   5.996 -0.4422  0.0976 -0.6699
  181fsi    OBT 1925   4.825   2.115   6.043 -0.5445  0.6988 -0.1449
  181fsi    SBT 1926   4.761   2.385   5.773 -0.5299  0.2868  0.1981
  181fsi    OBT 1927   4.862   2.424   5.677  0.0236 -0.5398  0.4607
  181fsi    OBT 1928   4.707   2.479   5.869  0.1164 -0.0991  0.3828
  181fsi    FSI 1929   4.633   2.338   5.701 -0.2273 -0.9969  0.1910
  182fsi    FSI 1930   4.433   2.240   0.304 -0.0019 -0.0169  0.3993
  182fsi    SBT 1931   4.544   2.125   0.307  0.4816  0.0444 -0.0602
  182fsi    NBT 1932   4.511   2.060   0.447 -0.0026 -0.5089 -0.0860
  182fsi    OBT 1933   4.508   2.052   0.188 -0.0462  0.2268  0.3533
  182fsi    OBT 1934   4.661   2.205   0.307 -0.6538 -0.0726 -0.1272
  182fsi    SBT 1935   4.418   1.936   0.476 -0.2466 -0.3253  0.0075
  182fsi    OBT 1936   4.406   1.899   0.610  0.2249  0.1639 -0.3850
  182fsi    OBT 1937   4.452   1.824   0.387 -0.7475  0.2736 -0.5502
  182fsi    FSI 1938   4.269   1.982   0.436 -0.8276  0.7743  0.1491
  183fsi    FSI 1939   3.887   1.813   3.660  0.1158 -0.7471  0.5904
  183fsi    SBT 1940   3.867   1.655   3.650 -0.5516  0.3776  0.2058
  183fsi    NBT 1941   3.769   1.633   3.526 -0.1373 -0.2139 -0.5497
  183fsi    OBT 1942   4.005   1.611   3.640  0.2205 -0.1142  0.0299
  183fsi    OBT 1943   3.804   1.623   3.775  0.6110  0.4026  0.2104
  183fsi    SBT 1944   3.624   1.693   3.507 -0.0947 -0.1432 -0.1715
  183fsi    OBT 1945   3.544   1.673   3.626  0.2581 -0.4483 -0.2988
  183fsi    OBT 1946   3.565   1.655   3.381 -0.5806 -0.1730 -0.3389
  183fsi    FSI 1947   3.644   1.849   3.505  0.1920 -0.4280  0.2607
  184fsi    FSI 1948   2.542   2.045   3.242  0.2861 -0.2684  0.3920
  184fsi    SBT 1949   2.502   1.897   3.203  0.0033  0.4124  0.6359
  184fsi    NBT 1950   2.638   1.824   3.222 -0.0399  0.6982 -0.2288
  184fsi    OBT 1951   2.407   1.866   3.302  0.1208  0.3248 -0.0789
  184fsi    OBT 1952   2.454   1.905   3.065  0.2862  0.5883 -0.0025
  184fsi    SBT 1953   2.750   1.777   3.125  0.3182  0.5638  0.0220
  184fsi    OBT 1954   2.724   1.773   2.983 -0.2454 -0.1438  0.1488
  184fsi    OBT 1955   2.819   1.665   3.190 -0.3491 -0.2542 -0.5517
  184fsi    FSI 1956   2.847   1.898   3.144 -0.3790  0.3361 -0.0474
  185fsi    FSI 1957   3.155   3.157   4.994  0.3196  0.2639  0.4071
  185fsi    SBT 1958   3.116   3.183   4.841  0.0923 -0.3749  0.3111
  185fsi    NBT 1959   3.020   3.303   4.854 -0.7261  0.1270  0.3808
  185fsi    OBT 1960   3.246   3.215   4.784 -0.5406  0.0670  0.2625
  185fsi    OBT 1961   3.045   3.066   4.799  0.2226  0.2478  0.3617
  185fsi    SBT 1962   3.035   3.454   4.813  0.2021 -0.0255 -0.2721
  185fsi    OBT 1963   2.942   3.508   4.717  0.5277 -0.6218 -0.5509
  185fsi    OBT 1964   3.171   3.497   4.785  0.8788  0.4682 -0.1477
  185fsi    FSI 1965   2.994   3.532   4.940 -0.6210 -0.5488 -0.5412
  186fsi    FSI 1966   3.020   2.587   4.362 -0.3505  0.6014 -0.1978
  186fsi    SBT 1967   3.138   2.645   4.437  0.2283  0.1045 -0.3759
  186fsi    NBT 1968   3.222   2.712   4.321  0.4019 -0.0251  0.2507
  186fsi    OBT 1969   3.088   2.748   4.523 -0.4876  0.4160  0.1245
  186fsi    OBT 1970   3.200   2.535   4.496  0.0903  0.4816  0.4429
  186fsi    SBT 1971   3.368   2.687   4.254  0.1254 -0.3366 -0.3848
  186fsi    OBT 1972   3.449   2.580   4.299  0.3521  0.7285  0.3422
  186fsi    OBT 1973   3.431   2.815   4.230  0.0295 -0.3741  0.4376
  186fsi    FSI 1974   3.327   2.631   4.108  0.3076 -0.7869 -0.3182
  187fsi    FSI 1975   5.662   2.236   5.830  0.0165 -0.3471 -0.4448
  187fsi    SBT 1976   5.512   2.204   5.791  0.2042  0.0656  0.0910
  187fsi    NBT 1977   5.468   2.326   5.703 -0.0216  0.0744 -0.4347
  187fsi    OBT 1978   5.529   2.092   5.712  0.4336  0.3624  0.2729
  187fsi    OBT 1979   5.453   2.193   5.921  0.3755 -0.3621  0.1205
  187fsi    SBT 1980   5.366   2.442   5.721 -0.1214  0.1649  0.2733
  187fsi    OBT 1981   5.296   2.447   5.848 -0.4830 -0.2281  0.1392
  187fsi    OBT 1982   5.280   2.447   5.605 -0.7896 -0.1448 -0.0797
  187fsi    FSI 1983   5.454   2.570   5.716  0.0983  0.5006 -0.1905
  188fsi    FSI 1984   4.797   1.321   2.664  0.4010 -0.0864 -0.1387
  188fsi    SBT 1985   4.765   1.450   2.577  0.1629  0.2206 -0.4891
  188fsi    NBT 1986   4.702   1.567   2.672 -0.0106 -0.1438  1.0885
  188fsi    OBT 1987   4.891   1.491   2.531  0.2093 -0.7210 -0.2064
  188fsi    OBT 1988   4.674   1.405   2.469 -0.0107  0.3052  0.2830
  188fsi    SBT 1989   4.563   1.565   2.747  0.0537 -0.3482  0.1025
  188fsi    OBT 1990   4.482   1.442   2.718  0.1424 -0.2168  0.3558
  188fsi    OBT 1991   4.492   1.692   2.746 -0.0381  0.0771  0.0196
  188fsi    FSI 1992   4.602   1.542   2.890  0.4297  0.1594 -0.1677
  189fsi    FSI 1993   5.104   1.460   2.111 -0.4510  0.3238  0.0035
  189fsi    SBT 1994   4.991   1.534   2.183  0.1998  0.3007  0.6637
  189fsi    NBT 1995   4.934   1.631   2.075 -0.3388  0.0953 -0.5048
  189fsi    OBT 1996   4.902   1.424   2.220 -0.1275 -0.6621 -0.1488
  189fsi    OBT 1997   5.063   1.600   2.287 -0.1987  0.0228  0.0599
  189fsi    SBT 1998   4.817   1.607   1.971 -0.2068  0.2946 -0.4126
  189fsi    OBT 1999   4.757   1.731   1.941  0.1584 -0.0606  0.2623
  189fsi    OBT 2000   4.732   1.499   2.002  0.0255 -0.0484 -0.6238
  189fsi    FSI 2001   4.895   1.560   1.839  0.1739  0.4888  0.2838
  190fsi    FSI 2002   0.853   2.004   4.820  0.4984  0.1987 -0.3653
  190fsi    SBT 2003   0.960   2.118   4.859  0.4838  0.2936  0.1832
  190fsi    NBT 2004   0.937   2.246   4.775 -0.4916 -0.6731 -0.2174
  190fsi    OBT 2005   0.932   2.143   5.000 -0.5536 -0.5263 -0.9681
  190fsi    OBT 2006   1.086   2.054   4.832 -0.5073  0.2224 -0.2426
  190fsi    SBT 2007   0.996   2.290   4.637 -0.0759 -0.4539  0.2262
  190fsi    OBT 2008   1.086   2.195   4.575  0.0271  0.9276  0.1937
  190fsi    OBT 2009   1.032   2.430   4.628 -0.4070 -0.0197 -0.3876
  190fsi    FSI 2010   0.866   2.287   4.545  0.1400 -0.2028  0.0495
  191fsi    FSI 2011   3.694   0.470   6.423 -0.3649 -0.0519  0.4739
  191fsi    SBT 2012   3.738   0.329   6.475 -0.0813 -0.3421 -0.0636
  191fsi    NBT 2013   3.599   0.279   6.530 -0.2539 -0.4375 -0.4441
  191fsi    OBT 2014   3.762   0.263   6.351  0.3148 -0.1612  0.1747
  191fsi    OBT 2015   3.852   0.356   6.564 -0.7446  0.4640 -0.2380
  191fsi    SBT 2016   3.537   0.310   6.672  0.3004  0.1403 -0.3328
  191fsi    OBT 2017   3.393   0.318   6.673 -0.1980 -0.0651  0.3094
  191fsi    OBT 2018   3.611   0.399   6.761  0.4205 -0.0113  0.6768
  191fsi    FSI 2019   3.557   0.173   6.744  0.1141  0.2237 -0.2127
  192fsi    FSI 2020   1.914   1.312   4.596  0.2999 -0.3870  0.0489
  192fsi    SBT 2021   1.937   1.438   4.501  0.0939 -0.0020  0.2288
  192fsi    NBT 2022   2.092   1.457   4.502  0.5607 -0.3545 -0.2245
  192fsi    OBT 2023   1.891   1.396   4.375 -0.0774  0.5546  0.7227
  192fsi    OBT 2024   1.864   1.541   4.572 -0.4347  0.4172 -0.2033
  192fsi    SBT 2025   2.180   1.500   4.623 -0.0352 -0.2125 -0.7281
  192fsi    OBT 2026   2.109   1.561   4.729  0.3502 -0.2218 -0.5603
  192fsi    OBT 2027   2.296   1.570   4.575 -0.1372 -0.5301  0.1532
  192fsi    FSI 2028   2.237   1.372   4.691  0.1886 -0.3162  0.0081
  193fsi    FSI 2029   3.171   2.848   3.989 -0.3801  0.5501  0.4145
  193fsi    SBT 2030   3.195   3.007   3.988  0.1962 -0.0741 -0.4777
  193fsi    NBT 2031   3.048   3.054   4.020  0.3063 -0.3501  0.4557
  193fsi    OBT 2032   3.279   3.018   4.102 -0.3493 -0.7225 -0.2772
  193fsi    OBT 2033   3.250   3.034   3.854 -0.7397  0.3942 -0.0140
  193fsi    SBT 2034   2.945   3.118   3.921  0.1573  0.1093 -0.0499
  193fsi    OBT 2035   3.003   3.229   3.853 -0.1592 -0.2012  0.2239
  193fsi    OBT 2036   2.815   3.139   3.976 -0.2109 -0.2851  0.1268
  193fsi    FSI 2037   2.929   3.012   3.820 -0.3685 -0.7164 -0.0427
  194fsi    FSI 2038   3.614   1.408   2.937 -0.4070  0.0884 -0.5297
  194fsi    SBT 2039   3.575   1.440   3.089 -0.2391  0.2562 -0.1410
  194fsi    NBT 2040   3.481   1.319   3.121  0.5482  0.2662 -0.4327
  194fsi    OBT 2041   3.699   1.441   3.165 -0.7231 -0.2102 -0.6306
  194fsi    OBT 2042   3.503   1.563   3.078 -0.1733  0.8948  0.7526
  194fsi    SBT 2043   3.326   1.306   3.100 -0.0887 -0.0939 -0.3124
  194fsi    OBT 2044   3.279   1.176   3.121  0.4634 -0.0558  0.2464
  194fsi    OBT 2045   3.270   1.373   2.983 -0.7041 -0.8557  0.1991
  194fsi    FSI 2046   3.262   1.395   3.222  0.1851 -0.1029  0.5110
  195fsi    FSI 2047   2.167   1.291   4.270 -0.0349 -0.2299 -0.0360
  195fsi    SBT 2048   2.307   1.221   4.247 -0.1767 -0.3193 -0.3101
  195fsi    NBT 2049   2.380   1.314   4.147  0.2349  0.1976  0.6732
  195fsi    OBT 2050   2.357   1.233   4.383  0.0505  0.3203  0.8481
  195fsi    OBT 2051   2.264   1.095   4.201  0.0157  0.1987  0.0388
  195fsi    SBT 2052   2.375   1.328   3.988 -0.4851  0.3993  0.4292
  195fsi    OBT 2053   2.305   1.219   3.926  0.0710 -0.2038  0.2337
  195fsi    OBT 2054   2.503   1.358   3.930 -0.3447  0.0171  0.2636
  195fsi    FSI 2055   2.286   1.450   3.958 -0.6822 -0.2596 -0.2576
  196fsi    FSI 2056   3.621   3.202   4.889  0.1304 -0.4299  0.1983
  196fsi    SBT 2057   3.659   3.288   4.755 -0.3037 -0.1133  0.5618
  196fsi    NBT 2058   3.644   3.188   4.638  0.0992  0.3068 -0.0651
  196fsi    OBT 2059   3.566   3.393   4.759  0.1198  0.3503 -0.3491
  196fsi    OBT 2060   3.797   3.329   4.772  0.3637 -0.4076  0.3206
  196fsi    SBT 2061   3.547   3.201   4.513  0.4984 -0.0093  0.0408
  196fsi    OBT 2062   3.428   3.275   4.535 -0.2936 -0.2842 -0.5594
  196fsi    OBT 2063   3.539   3.075   4.444  0.0290  0.1055  0.4376
  196fsi    FSI 2064   3.632   3.291   4.419 -0.1611  0.4648 -0.3499
  197fsi    FSI 2065   2.681   3.707   4.110  0.1328 -0.5740  0.3858
  197fsi    SBT 2066   2.793   3.816   4.133  0.2936  0.1725  0.1544
  197fsi    NBT 2067   2.757   3.883   4.268  0.0387  0.4109  0.9928
  197fsi    OBT 2068   2.911   3.738   4.142  0.3521  0.8951  0.2338
  197fsi    OBT 2069   2.781   3.907   4.019  0.9751  0.7191 -0.5740
  197fsi    SBT 2070   2.809   3.864   4.415 -0.2434 -0.4545 -0.1670
  197fsi    OBT 2071   2.912   3.767   4.428 -0.0630  0.9473  0.3290
  197fsi    OBT 2072   2.707   3.870   4.514  0.0987  0.2614  0.3497
  197fsi    FSI 2073   2.880   4.000   4.428 -0.7732  0.4951  0.2476
  198fsi    FSI 2074   1.425   2.182   4.418  0.2422 -0.2395 -0.1152
  198fsi    SBT 2075   1.449   2.255   4.551 -0.2284  0.0880  0.1618
  198fsi    NBT 2076   1.358   2.381   4.528  0.6416 -0.1682  0.2768
  198fsi    OBT 2077   1.396   2.167   4.650  0.2662 -0.7352  0.8350
  198fsi    OBT 2078   1.593   2.275   4.555  0.2001  0.1651  0.5755
  198fsi    SBT 2079   1.408   2.525   4.546 -0.0196 -0.0116 -0.1127
  198fsi    OBT 2080   1.476   2.545   4.671  0.0647 -0.0239 -0.2029
  198fsi    OBT 2081   1.294   2.605   4.517  0.3706 -0.0052  0.3477
  198fsi    FSI 2082   1.507   2.553   4.435  0.6043 -0.0094 -0.7994
  199fsi    FSI 2083   2.589   4.685   4.576  0.2149 -0.0116  0.5608
  199fsi    SBT 2084   2.577   4.725   4.420 -0.5490 -0.4274  0.3730
  199fsi    NBT 2085   2.485   4.847   4.411 -0.6266  0.0445  0.1328
  199fsi    OBT 2086   2.710   4.737   4.373 -0.5445 -0.4230  0.4254
  199fsi    OBT 2087   2.513   4.612   4.372  0.1179 -0.0620  0.2657
  199fsi    SBT 2088   2.537   4.995   4.444  0.2138 -0.4076 -0.2610
  199fsi    OBT 2089   2.647   4.996   4.541 -0.0176  0.4812 -0.3954
  199fsi    OBT 2090   2.432   5.089   4.457  0.4976  0.0136  0.6914
  199fsi    FSI 2091   2.602   5.032   4.312 -0.0456 -0.2093 -0.7268
  200fsi    FSI 2092   5.417   0.199   3.795 -0.1579 -0.8069 -0.0591
  200fsi    SBT 2093   5.278   0.273   3.787  0.2488  0.2427 -0.2292
  200fsi    NBT 2094   5.269   0.365   3.909 -0.0030  0.2657 -0.2448
  200fsi    OBT 2095   5.280   0.337   3.657 -0.0515  0.3033 -0.3609
  200fsi    OBT 2096   5.179   0.171   3.806 -0.3928 -0.0937 -0.7322
  200fsi    SBT 2097   5.372   0.470   3.947  0.1216  0.1575 -0.2033
  200fsi    OBT 2098   5.344   0.548   4.066 -0.5276  0.0898 -1.1586
  200fsi    OBT 2099   5.403   0.547   3.833  0.3357 -0.2145 -0.3099
  200fsi    FSI 2100   5.497   0.383   3.982 -0.2853  0.3639 -0.3998
  201fsi    FSI 2101   4.462   2.265   5.256  0.3900  0.3025  0.5055
  201fsi    SBT 2102   4.463   2.396   5.157 -0.1307  0.1923  0.2649
  201fsi    NBT 2103   4.314   2.406   5.104 -0.5415 -0.0281 -0.6524
  201fsi    OBT 2104   4.506   2.506   5.239  0.1697  0.1865  0.4054
  201fsi    OBT 2105   4.557   2.357   5.052 -0.2304 -0.3448  0.0601
  201fsi    SBT 2106   4.259   2.449   4.966  0.2053 -0.0013  0.0310
  201fsi    OBT 2107   4.169   2.351   4.911 -0.3735 -0.0789 -0.0760
  201fsi    OBT 2108   4.348   2.519   4.872  0.3459  0.2423 -0.5759
  201fsi    FSI 2109   4.159   2.561   5.012 -0.3815  0.2986 -0.0746
  202fsi    FSI 2110   2.529   0.780   4.053  0.5136  0.1337  0.3023
  202fsi    SBT 2111   2.584   0.921   4.007 -0.1365  0.0051 -0.0962
  202fsi    NBT 2112   2.483   0.978   3.894  0.5431  0.0287  0.5645
  202fsi    OBT 2113   2.565   0.998   4.128 -0.3568  0.3179  0.1049
  202fsi    OBT 2114   2.719   0.898   3.958  0.1558  0.4728 -0.1696
  202fsi    SBT 2115   2.500   0.996   3.742 -0.1979 -0.0252 -0.4607
  202fsi    OBT 2116   2.374   1.013   3.665 -0.7331 -0.1818 -0.1525
  202fsi    OBT 2117   2.607   0.923   3.687  0.3899  0.2427 -0.5484
  202fsi    FSI 2118   2.560   1.136   3.724 -0.4479 -0.2819  0.1546
  203fsi    FSI 2119   4.637   1.535   0.189 -0.1491  0.2719 -0.3123
  203fsi    SBT 2120   4.741   1.641   0.206 -0.2316 -0.0627 -0.1914
  203fsi    NBT 2121   4.834   1.596   0.086  0.2021 -0.4124  0.6527
  203fsi    OBT 2122   4.669   1.760   0.178 -0.1390 -0.4000 -0.6735
  203fsi    OBT 2123   4.784   1.618   0.342 -0.4209  0.4095  0.3970
  203fsi    SBT 2124   4.979   1.638   0.052 -0.5657 -0.1010 -0.1810
  203fsi    OBT 2125   5.039   1.740   0.138 -0.1885  0.4683  0.2145
  203fsi    OBT 2126   4.993   1.660  -0.088 -0.3093  0.2249  0.4616
  203fsi    FSI 2127   5.067   1.505   0.073 -0.2464  0.1457 -0.3695
  204fsi    FSI 2128   4.656   2.909   4.909  0.1430 -0.0007 -0.2621
  204fsi    SBT 2129   4.720   2.775   4.876 -0.0620  0.3476  0.1446
  204fsi    NBT 2130   4.720   2.785   4.718  0.2976 -0.0733 -0.0499
  204fsi    OBT 2131   4.850   2.784   4.934  0.3790  0.0655  0.2258
  204fsi    OBT 2132   4.628   2.675   4.929 -0.9362 -0.2611  0.5341
  204fsi    SBT 2133   4.600   2.749   4.626 -0.2797 -0.0848  0.1864
  204fsi    OBT 2134   4.500   2.663   4.684  0.1231  0.1059 -0.0287
  204fsi    OBT 2135   4.631   2.711   4.492  0.3826  0.4465 -0.0446
  204fsi    FSI 2136   4.521   2.889   4.622 -0.3206  0.1809  0.2314
  205fsi    FSI 2137   1.423   1.248   4.190 -0.5174  0.0860  0.5254
  205fsi    SBT 2138   1.336   1.327   4.084  0.3429  0.7894  0.0170
  205fsi    NBT 2139   1.241   1.218   4.026 -0.1785 -0.6369  0.1251
  205fsi    OBT 2140   1.268   1.412   4.177  0.6346 -0.4433 -0.2521
  205fsi    OBT 2141   1.433   1.382   3.992  0.3086  0.0346  0.0219
  205fsi    SBT 2142   1.221   1.146   3.886  0.3574  0.0937  0.1618
  205fsi    OBT 2143   1.321   1.170   3.782  0.4184  0.0794 -0.5955
  205fsi    OBT 2144   1.085   1.134   3.844 -0.1931 -0.1579  0.0354
  205fsi    FSI 2145   1.254   1.000   3.926 -0.5176  0.4733 -0.3980
  206fsi    FSI 2146   2.098   2.379   5.511 -0.5918  0.5816  0.2221
  206fsi    SBT 2147   2.065   2.433   5.370 -0.0416  0.4495 -0.3855
  206fsi    NBT 2148   1.935   2.520   5.394 -0.0265  0.0218 -0.0151
  206fsi    OBT 2149   2.181   2.508   5.341 -0.3554 -0.1369 -0.3468
  206fsi    OBT 2150   2.041   2.316   5.289 -0.1352 -0.3731  0.5180
  206fsi    SBT 2151   1.782   2.494   5.362  0.0108 -0.3080 -0.2835
  206fsi    OBT 2152   1.769   2.396   5.252  0.4129  0.2280  0.0195
  206fsi    OBT 2153   1.699   2.610   5.351  0.3412  0.1507  0.1007
  206fsi    FSI 2154   1.727   2.430   5.500 -0.4536 -0.2738  0.1568
  207fsi    FSI 2155   2.427   1.622   3.846 -0.0229  0.0392  0.2025
  207fsi    SBT 2156   2.507   1.729   3.758  0.0797  0.2256 -0.0043
  207fsi    NBT 2157   2.638   1.650   3.734  0.3003 -0.2011  0.0790
  207fsi    OBT 2158   2.431   1.750   3.633  0.4465 -0.2508 -0.0516
  207fsi    OBT 2159   2.524   1.840   3.849  0.4047 -0.3350  0.3508
  207fsi    SBT 2160   2.710   1.598   3.604  0.1504  0.0012  0.4512
  207fsi    OBT 2161   2.622   1.594   3.492 -0.1563 -0.4306 -0.2699
  207fsi    OBT 2162   2.791   1.481   3.624  0.3576  0.2788 -0.7321
  207fsi    FSI 2163   2.815   1.709   3.575  0.5553 -0.4916 -0.4602
  208fsi    FSI 2164   4.197   1.411   4.132  0.4718 -0.0913 -0.0957
  208fsi    SBT 2165   4.129   1.370   3.988  0.0526 -0.2358  0.2083
  208fsi    NBT 2166   4.212   1.237   3.950 -0.1294  0.2266  0.2109
  208fsi    OBT 2167   3.991   1.336   4.028 -0.1213 -0.1859  0.3489
  208fsi    OBT 2168   4.157   1.484   3.908  0.5748  0.1528 -0.4301
  208fsi    SBT 2169   4.340   1.214   3.855 -0.3759 -0.3655 -0.3624
  208fsi    OBT 2170   4.344   1.310   3.747  0.0321  0.3457 -0.3517
  208fsi    OBT 2171   4.351   1.077   3.814 -0.1708  0.1768  0.5869
  208fsi    FSI 2172   4.464   1.239   3.948 -0.0065  0.2641 -0.3040
  209fsi    FSI 2173   3.432   2.191   4.852 -0.6070 -0.1192  0.0337
  209fsi    SBT 2174   3.341   2.273   4.745 -0.0344  0.5740 -0.3285
  209fsi    NBT 2175   3.307   2.154   4.651  0.3007  0.4606  0.1567
  209fsi    OBT 2176   3.229   2.320   4.819  0.5540  0.3412  0.3541
  209fsi    OBT 2177   3.421   2.376   4.686  0.0854  0.2335  0.3923
  209fsi    SBT 2178   3.350   2.125   4.506 -0.1915  0.0865  0.1453
  209fsi    OBT 2179   3.396   1.990   4.485 -0.6258 -0.1937 -0.6341
  209fsi    OBT 2180   3.412   2.237   4.439  1.0402 -0.2751 -0.2323
  209fsi    FSI 2181   3.208   2.123   4.443  0.0744 -0.1944  0.5059
  210fsi    FSI 2182   2.234   4.862   3.937  0.2543  0.3919  0.5505
  210fsi    SBT 2183   2.330   4.772   4.031  0.1792  0.0636  0.7202
  210fsi    NBT 2184   2.478   4.795   3.975  0.0462 -0.9620 -0.5882
  210fsi    OBT 2185   2.318   4.835   4.158 -0.4103 -0.1512  0.3998
  210fsi    OBT 2186   2.276   4.636   4.021  0.2344  0.0245  0.2348
  210fsi    SBT 2187   2.554   4.731   3.854  0.6630  0.4875  0.0115
  210fsi    OBT 2188   2.495   4.613   3.805 -0.9720 -0.7341  0.5428
  210fsi    OBT 2189   2.692   4.735   3.890 -0.7671  0.0731 -0.4529
  210fsi    FSI 2190   2.537   4.844   3.733 -0.0794 -0.6823  0.3893
  211fsi    FSI 2191   2.439   2.864   4.142  0.4248 -0.2904 -0.3001
  211fsi    SBT 2192   2.551   2.770   4.097  0.1624 -0.1093 -0.1750
  211fsi    NBT 2193   2.478   2.680   3.991 -0.4106 -0.8394 -1.1170
  211fsi    OBT 2194   2.653   2.856   4.041 -0.0397  0.1500  0.7243
  211fsi    OBT 2195   2.585   2.700   4.219 -0.1919 -0.1136  0.2033
  211fsi    SBT 2196   2.454   2.528   3.988 -0.2083 -0.5491 -0.0680
  211fsi    OBT 2197   2.335   2.495   3.917  0.0242 -0.0937 -0.3272
  211fsi    OBT 2198   2.464   2.462   4.120 -0.4465  0.1775  0.5516
  211fsi    FSI 2199   2.577   2.478   3.907 -0.0480  0.3963  0.6350
  212fsi    FSI 2200   1.826   2.717   5.046 -0.1092 -0.2919  0.2790
  212fsi    SBT 2201   1.964   2.647   4.996 -0.4798  0.2271 -0.3414
  212fsi    NBT 2202   1.919   2.495   4.972 -0.3116  0.5056 -0.3507
  212fsi    OBT 2203   1.995   2.722   4.878  0.2235  0.0088 -0.2549
  212fsi    OBT 2204   2.055   2.659   5.103 -0.1692 -0.2037  0.0558
  212fsi    SBT 2205   1.875   2.437   4.831 -0.0898 -0.0976 -0.1188
  212fsi    OBT 2206   1.842   2.299   4.840  0.3745 -0.2554  0.0878
  212fsi    OBT 2207   1.946   2.483   4.720  0.1210  0.5660  0.1521
  212fsi    FSI 2208   1.742   2.507   4.811  0.7185 -0.2831 -0.4380
  213fsi    FSI 2209   3.862   2.906   3.985  0.1703  0.1985  0.9296
  213fsi    SBT 2210   3.755   3.012   4.037  0.1731 -0.3188 -0.2008
  213fsi    NBT 2211   3.753   3.003   4.193  0.2674  0.4627  0.3731
  213fsi    OBT 2212   3.807   3.140   3.993 -0.8302 -0.6550  0.3749
  213fsi    OBT 2213   3.634   2.959   3.979  0.1553  0.1299  0.0818
  213fsi    SBT 2214   3.865   2.977   4.296  0.2107 -0.0237  0.2011
  213fsi    OBT 2215   3.839   3.023   4.429  0.4474  0.3017 -0.2451
  213fsi    OBT 2216   3.994   2.984   4.244  0.1193  0.2569 -0.2836
  213fsi    FSI 2217   3.834   2.822   4.306  0.5076  0.3861 -0.4540
  214fsi    FSI 2218   5.634   2.565   4.971  0.4997  0.4151 -0.0016
  214fsi    SBT 2219   5.563   2.445   4.900 -0.5339 -0.3999  0.0747
  214fsi    NBT 2220   5.461   2.396   5.012 -0.5516  0.1441 -0.1762
  214fsi    OBT 2221   5.507   2.499   4.784 -0.0669 -0.2762  0.8302
  214fsi    OBT 2222   5.668   2.345   4.879  0.1171  0.0865  0.2539
  214fsi    SBT 2223   5.316   2.430   5.044  0.1504  0.0318 -0.1750
  214fsi    OBT 2224   5.281   2.569   5.030  0.0440  0.1521  0.5986
  214fsi    OBT 2225   5.268   2.359   5.158 -0.1731 -0.0654 -0.6927
  214fsi    FSI 2226   5.244   2.350   4.926 -0.0909  0.1007 -0.5710
  215fsi    FSI 2227   3.872   0.326   3.636  0.2712 -0.1471  0.2732
  215fsi    SBT 2228   3.959   0.454   3.685  0.0632  0.0261  0.3128
  215fsi    NBT 2229   3.944   0.565   3.569  0.2137  0.3858  0.2771
  215fsi    OBT 2230   3.887   0.498   3.804 -0.4517 -0.3997  0.7202
  215fsi    OBT 2231   4.097   0.413   3.702 -0.0469 -0.0673 -0.2296
  215fsi    SBT 2232   4.025   0.574   3.432 -0.2973 -0.0259 -0.0845
  215fsi    OBT 2233   3.974   0.688   3.364 -0.0502 -0.3982  0.5688
  215fsi    OBT 2234   4.046   0.456   3.361  0.1167 -0.0062  0.4648
  215fsi    FSI 2235   4.172   0.609   3.475 -0.2645 -0.2430 -1.0363
  216fsi    FSI 2236   1.169   1.294   3.275  0.0484  0.4514 -0.6984
  216fsi    SBT 2237   1.295   1.342   3.354  0.0200 -0.0504 -0.1231
  216fsi    NBT 2238   1.418   1.259   3.300  0.1388  0.1232 -0.3129
  216fsi    OBT 2239   1.307   1.478   3.317 -0.1289 -0.4107 -0.2894
  216fsi    OBT 2240   1.261   1.316   3.492 -0.3654 -0.4010  0.1735
  216fsi    SBT 2241   1.465   1.117   3.341 -0.1379  0.1318  0.4791
  216fsi    OBT 2242   1.478   1.110   3.484 -0.1716 -0.1042  0.1522
  216fsi    OBT 2243   1.568   1.056   3.256  0.0436  0.1674  0.1487
  216fsi    FSI 2244   1.337   1.028   3.321 -0.0143 -0.2974  0.0943
  217fsi    FSI 2245   1.632   1.645   3.995  0.0872  0.1238 -0.3427
  217fsi    SBT 2246   1.563   1.752   3.897  0.5455 -0.2431 -0.1048
  217fsi    NBT 2247   1.477   1.660   3.792 -0.8911  0.1380  0.8861
  217fsi    OBT 2248   1.472   1.826   3.984  0.2852  0.1647 -0.0665
  217fsi    OBT 2249   1.668   1.830   3.838  0.1803 -0.4761  0.4896
  217fsi    SBT 2250   1.504   1.610   3.648  0.0944 -0.1209 -0.0055
  217fsi    OBT 2251   1.469   1.472   3.638 -0.2154  0.4823  0.5322
  217fsi    OBT 2252   1.626   1.663   3.587 -0.4326  0.6669  0.0605
  217fsi    FSI 2253   1.394   1.694   3.575  0.4666  0.1055  0.0344
  218fsi    FSI 2254   3.287   4.753   4.101  0.2564  0.2475  0.3214
  218fsi    SBT 2255   3.162   4.719   4.196 -0.0487 -0.2673  0.3243
  218fsi    NBT 2256   3.126   4.862   4.252 -0.1473 -0.3424 -0.2638
  218fsi    OBT 2257   3.068   4.654   4.116  0.0832 -0.1134 -0.5128
  218fsi    OBT 2258   3.220   4.640   4.297 -0.2664 -0.4155 -0.1871
  218fsi    SBT 2259   2.990   4.943   4.236  0.0643 -0.1746  0.5972
  218fsi    OBT 2260   2.939   4.989   4.367  0.4755  0.5533  0.4068
  218fsi    OBT 2261   2.889   4.880   4.155 -0.3337 -0.4919 -0.1335
  218fsi    FSI 2262   3.024   5.073   4.163 -0.5718  0.4261 -0.5747
  219fsi    FSI 2263   1.088   1.866   3.805  0.3533  0.0645 -1.0213
  219fsi    SBT 2264   1.105   1.989   3.898  0.0385  0.2436 -0.2935
  219fsi    NBT 2265   1.157   1.931   4.033 -0.5552  0.3657 -0.3943
  219fsi    OBT 2266   1.210   2.061   3.833 -0.5622 -0.4440 -0.5015
  219fsi    OBT 2267   0.971   2.050   3.903 -0.6604 -0.4648  0.6429
  219fsi    SBT 2268   1.089   1.909   4.174  0.4001  0.2798  0.1534
  219fsi    OBT 2269   1.104   1.769   4.205  0.5948 -0.1386 -0.3479
  219fsi    OBT 2270   0.958   1.966   4.201 -0.2978 -0.2306  0.0162
  219fsi    FSI 2271   1.189   1.991   4.260 -0.4016  0.0571  0.4675
  220fsi    FSI 2272   3.228   1.696   4.161 -0.0294 -0.2184 -0.1067
  220fsi    SBT 2273   3.096   1.772   4.174  0.5260 -0.2142 -0.4659
  220fsi    NBT 2274   3.036   1.766   4.034 -0.2870  0.1463  0.2229
  220fsi    OBT 2275   3.018   1.688   4.267 -0.4107 -0.2017 -0.1628
  220fsi    OBT 2276   3.128   1.904   4.218  0.1918 -0.6308  0.0892
  220fsi    SBT 2277   3.029   1.871   3.920 -0.3646 -0.0662  0.0007
  220fsi    OBT 2278   3.040   1.806   3.792  0.1313 -0.6945 -0.1933
  220fsi    OBT 2279   3.100   1.995   3.941  0.4197  0.0174  0.0884
  220fsi    FSI 2280   2.873   1.916   3.919  0.3962  0.2642 -0.0407
  221fsi    FSI 2281   2.420   2.945   5.456  0.0941 -0.0772  0.4775
  221fsi    SBT 2282   2.452   2.878   5.323  0.3739 -0.2008  0.3314
  221fsi    NBT 2283   2.508   2.738   5.362  0.0074 -0.5562 -0.0788
  221fsi    OBT 2284   2.327   2.870   5.255 -0.3171 -0.2757  0.0373
  221fsi    OBT 2285   2.548   2.972   5.262  0.3245 -0.4785 -0.3003
  221fsi    SBT 2286   2.648   2.699   5.430  0.0084  0.1474  0.5188
  221fsi    OBT 2287   2.750   2.795   5.410  0.3415  0.2390  0.1061
  221fsi    OBT 2288   2.685   2.562   5.412 -0.2701 -0.3655  0.2132
  221fsi    FSI 2289   2.612   2.701   5.585  1.1578 -0.1902  0.6017
  222fsi    FSI 2290   3.225   3.193   4.339  0.2356 -0.5005  0.2224
  222fsi    SBT 2291   3.085   3.215   4.407  0.6013  0.1647  0.7491
  222fsi    NBT 2292   2.986   3.258   4.287 -0.0100 -0.3666 -0.2709
  222fsi    OBT 2293   3.062   3.085   4.463  0.2747 -0.2566  0.1178
  222fsi    OBT 2294   3.114   3.319   4.503 -0.9813 -0.2457 -0.7883
  222fsi    SBT 2295   2.944   3.394   4.231  0.1093  0.0598  0.1161
  222fsi    OBT 2296   3.038   3.447   4.141  0.3977  0.5450  0.3882
  222fsi    OBT 2297   2.893   3.478   4.333  0.9087 -0.5202 -0.2819
  222fsi    FSI 2298   2.816   3.359   4.147 -0.3410  0.1299  0.0565
  223fsi    FSI 2299   3.035   2.389   4.157  0.5469 -0.1249 -0.1096
  223fsi    SBT 2300   2.885   2.409   4.109  0.6174  0.1109 -0.3052
  223fsi    NBT 2301   2.830   2.267   4.116  1.0054  0.2590  0.0452
  223fsi    OBT 2302   2.824   2.498   4.204 -0.0313 -0.2350  0.3266
  223fsi    OBT 2303   2.892   2.443   3.968  0.5076 -0.3224 -0.1100
  223fsi    SBT 2304   2.738   2.195   4.228  0.3303  0.2421 -0.0696
  223fsi    OBT 2305   2.683   2.278   4.331 -0.0631 -0.0782  0.1374
  223fsi    OBT 2306   2.792   2.065   4.248  0.5805  0.5211 -0.8335
  223fsi    FSI 2307   2.611   2.167   4.141 -0.5671 -0.1088 -0.0602
  224fsi    FSI 2308   4.596   0.038   6.762 -0.1005 -0.0188  0.5603
  224fsi    SBT 2309   4.444   0.062   6.793  0.1275 -0.0389  0.1460
  224fsi    NBT 2310   4.419   0.206   6.726 -0.6453  0.1220 -0.6127
  224fsi    OBT 2311   4.378  -0.041   6.719  0.4218  0.1068  0.5490
  224fsi    OBT 2312   4.437   0.057   6.934 -0.0140 -0.3083  0.3182
  224fsi    SBT 2313   4.385   0.343   6.788 -0.4165  0.2501  0.2167
  224fsi    OBT 2314   4.352   0.341   6.929 -0.2535 -0.0117 -0.4344
  224fsi    OBT 2315   4.304   0.421   6.701 -0.2474  0.4051 -0.1359
  224fsi    FSI 2316   4.531   0.415   6.783 -0.5740  0.4030 -0.6880
  225fsi    FSI 2317   5.371   0.038   4.262 -0.5329  0.2693  0.6744
  225fsi    SBT 2318   5.234   0.120   4.253  0.2491  0.4689  0.1522
  225fsi    NBT 2319   5.291   0.265   4.280  0.4818  0.0616  1.1502
  225fsi    OBT 2320   5.189   0.095   4.119 -0.5426  0.1372 -0.4204
  225fsi    OBT 2321   5.144   0.086   4.357  0.4836 -0.0410 -0.2725
  225fsi    SBT 2322   5.260   0.360   4.403  0.1937  0.0074  0.3741
  225fsi    OBT 2323   5.137   0.339   4.466  0.0501  0.5920  0.2033
  225fsi    OBT 2324   5.305   0.493   4.374 -0.3776  0.4740 -0.1981
  225fsi    FSI 2325   5.374   0.309   4.504  0.0326  0.1932 -0.3852
  226fsi    FSI 2326   4.353   1.299   3.238  0.1072  0.0952  0.0101
  226fsi    SBT 2327   4.268   1.244   3.367 -0.0161 -0.3252  0.4646
  226fsi    NBT 2328   4.384   1.176   3.452  0.0858 -0.3617 -0.5567
  226fsi    OBT 2329   4.220   1.361   3.437  0.0274 -0.0812 -0.3174
  226fsi    OBT 2330   4.162   1.156   3.323  0.0080 -0.0698  0.1401
  226fsi    SBT 2331   4.415   1.029   3.463 -0.1155  0.0089 -0.3380
  226fsi    OBT 2332   4.305   0.937   3.440 -0.2181  0.1065 -0.0272
  226fsi    OBT 2333   4.502   1.005   3.573  0.5969  0.3788 -0.3690
  226fsi    FSI 2334   4.513   1.014   3.352 -0.1206  0.0383 -1.0249
  227fsi    FSI 2335   4.906   2.074   2.664 -0.5670  0.2859 -0.5886
  227fsi    SBT 2336   4.848   1.923   2.665 -0.4856 -0.5847  0.0144
  227fsi    NBT 2337   4.921   1.847   2.786  0.0807  0.1210 -0.2748
  227fsi    OBT 2338   4.709   1.945   2.683  0.0698  0.0779  0.5119
  227fsi    OBT 2339   4.881   1.862   2.541 -0.3503  0.2213 -0.4152
  227fsi    SBT 2340   5.054   1.762   2.785 -0.1019  0.2456  0.1448
  227fsi    OBT 2341   5.164   1.836   2.834 -0.5434 -0.1360  0.9061
  227fsi    OBT 2342   5.075   1.687   2.661 -0.0103 -0.4125 -0.1372
  227fsi    FSI 2343   5.032   1.645   2.895  0.0697  0.0575  0.2782
  228fsi    FSI 2344   3.110   4.064   4.179 -0.3228 -0.3456  0.5936
  228fsi    SBT 2345   3.032   4.207   4.179 -0.1723 -0.0075 -0.2466
  228fsi    NBT 2346   3.011   4.243   4.029 -0.2376 -0.6056  0.2935
  228fsi    OBT 2347   2.898   4.181   4.227  0.2592 -0.1475 -0.4249
  228fsi    OBT 2348   3.115   4.298   4.257  0.0195 -0.2221  0.0163
  228fsi    SBT 2349   3.105   4.326   3.930  0.0228  0.3136 -0.2407
  228fsi    OBT 2350   3.132   4.247   3.811 -0.1935  0.3242  0.6281
  228fsi    OBT 2351   3.211   4.402   3.995  0.4981 -0.4588 -0.3381
  228fsi    FSI 2352   3.002   4.436   3.890  0.2712  0.1597 -0.0671
  229fsi    FSI 2353   4.350   1.808   3.693 -0.0451  0.1683 -0.1122
  229fsi    SBT 2354   4.378   1.724   3.568 -0.0346  0.1192  0.0643
  229fsi    NBT 2355   4.255   1.760   3.477  0.0857 -0.2455 -0.5850
  229fsi    OBT 2356   4.499   1.776   3.515 -0.0213 -0.5928  0.4161
  229fsi    OBT 2357   4.379   1.590   3.619 -0.4573  0.0191 -0.1640
  229fsi    SBT 2358   4.236   1.706   3.333 -0.0899 -0.1025 -0.0788
  229fsi    OBT 2359   4.103   1.664   3.309 -0.1361 -0.5351  0.4417
  229fsi    OBT 2360   4.334   1.609   3.282 -0.7844 -0.1199 -0.3025
  229fsi    FSI 2361   4.250   1.830   3.242 -0.2238  1.0739  0.5235
  230fsi    FSI 2362   2.557   3.233   4.442  0.3226  0.0748 -0.0994
  230fsi    SBT 2363   2.568   3.086   4.391  0.2382 -0.2480  0.2685
  230fsi    NBT 2364   2.643   3.019   4.514  0.0037  0.5290 -0.3101
  230fsi    OBT 2365   2.433   3.042   4.370  0.7159 -0.5309  0.4038
  230fsi    OBT 2366   2.652   3.101   4.275  0.1803 -0.1554  0.1607
  230fsi    SBT 2367   2.761   2.910   4.518 -0.2178  0.2575 -0.3271
  230fsi    OBT 2368   2.841   2.916   4.629 -0.4844 -0.1895  0.4966
  230fsi    OBT 2369   2.818   2.884   4.392 -0.2336 -0.2168  0.5596
  230fsi    FSI 2370   2.678   2.778   4.554 -0.0532  0.3746 -0.1330
  231fsi    FSI 2371   1.887   4.948   4.279  0.4468 -0.4078 -0.2951
  231fsi    SBT 2372   1.965   4.877   4.405  0.2506  0.1520  0.1630
  231fsi    NBT 2373   2.051   4.762   4.340  1.4712 -0.3079 -0.5919
  231fsi    OBT 2374   2.051   4.987   4.452  0.6042 -0.0896 -0.2295
  231fsi    OBT 2375   1.860   4.829   4.491  0.1805  0.3141  0.1190
  231fsi    SBT 2376   2.022   4.611   4.299 -0.0124 -0.4982  0.0980
  231fsi    OBT 2377   1.906   4.561   4.370 -0.1551 -0.2132  0.9431
  231fsi    OBT 2378   2.150   4.541   4.308  0.2913  0.0909 -0.0904
  231fsi    FSI 2379   1.984   4.625   4.140 -1.1503  0.0089  0.1048
  232fsi    FSI 2380   2.276   2.168   3.354 -0.3568  0.0894 -0.3221
  232fsi    SBT 2381   2.211   2.109   3.484  0.3136 -0.1926  0.1186
  232fsi    NBT 2382   2.067   2.066   3.425  0.1508  0.6757 -0.7815
  232fsi    OBT 2383   2.303   2.006   3.532  0.3656  0.4702 -0.2520
  232fsi    OBT 2384   2.201   2.229   3.563 -0.0747  0.0482  0.0790
  232fsi    SBT 2385   2.006   1.932   3.380 -0.2545 -0.1705  0.5097
  232fsi    OBT 2386   1.872   1.917   3.429  0.3731 -0.3406 -0.1023
  232fsi    OBT 2387   2.097   1.822   3.376  0.6456 -0.1227  0.4677
  232fsi    FSI 2388   1.978   1.958   3.226 -0.0167 -0.3434 -0.0878
  233fsi    FSI 2389   3.207   3.857   4.474  0.0685  0.2563  0.0777
  233fsi    SBT 2390   3.274   3.735   4.407 -0.1520  0.0260 -0.2459
  233fsi    NBT 2391   3.430   3.766   4.423 -0.2510 -0.3152  0.2288
  233fsi    OBT 2392   3.221   3.619   4.481 -0.7450 -0.0812  0.2825
  233fsi    OBT 2393   3.233   3.748   4.273 -0.1130 -0.6538  0.7683
  233fsi    SBT 2394   3.526   3.731   4.544 -0.0966  0.4159 -0.4664
  233fsi    OBT 2395   3.654   3.684   4.495  0.0143 -0.0602 -0.0078
  233fsi    OBT 2396   3.458   3.665   4.655 -1.5471  0.6288 -0.1135
  233fsi    FSI 2397   3.564   3.874   4.601  0.0208  0.5754  0.1792
  234fsi    FSI 2398   3.670   2.565   4.756 -0.0718 -0.0050 -0.3345
  234fsi    SBT 2399   3.630   2.654   4.641  0.4453  0.1566  0.5011
  234fsi    NBT 2400   3.483   2.708   4.669  0.4988  0.0333 -0.2269
  234fsi    OBT 2401   3.727   2.758   4.636  0.4155 -0.2798 -0.2556
  234fsi    OBT 2402   3.644   2.562   4.527  0.0622  0.6290  0.1274
  234fsi    SBT 2403   3.438   2.840   4.736 -0.1338  0.0989 -0.4295
  234fsi    OBT 2404   3.316   2.882   4.678 -0.2566  0.4720  0.9714
  234fsi    OBT 2405   3.536   2.939   4.768  0.2858  0.4986  0.1323
  234fsi    FSI 2406   3.396   2.787   4.879  0.7882  0.3130  0.2336
  235fsi    FSI 2407   5.392   1.067   4.040 -0.3738 -0.2272  0.1835
  235fsi    SBT 2408   5.263   1.002   4.109 -0.5435 -0.8857 -0.0049
  235fsi    NBT 2409   5.317   0.895   4.211  0.7278  0.5598  0.1875
  235fsi    OBT 2410   5.193   1.106   4.173  0.0097 -0.6035 -0.1806
  235fsi    OBT 2411   5.201   0.935   4.004  0.3608  0.0139  0.3267
  235fsi    SBT 2412   5.367   0.919   4.361 -0.4534  0.3462  0.2547
  235fsi    OBT 2413   5.353   0.799   4.437  0.0044  0.5138 -0.1212
  235fsi    OBT 2414   5.322   1.047   4.415  0.1210 -0.1245 -0.2365
  235fsi    FSI 2415   5.524   0.941   4.335 -0.2217 -0.1294 -0.2653
  236fsi    FSI 2416   1.587   1.936   4.986  0.5312  0.3240 -0.8005
  236fsi    SBT 2417   1.729   2.003   4.969 -0.2978  0.0891 -0.1242
  236fsi    NBT 2418   1.840   1.902   5.016 -0.2065 -0.3618  0.0041
  236fsi    OBT 2419   1.741   2.031   4.825 -0.1770  0.6977 -0.2851
  236fsi    OBT 2420   1.721   2.122   5.052  0.0040 -0.0626 -0.1939
  236fsi    SBT 2421   1.921   1.787   4.937  0.1090  0.0958  0.1340
  236fsi    OBT 2422   2.066   1.800   4.942  0.3330 -0.2623  0.2582
  236fsi    OBT 2423   1.863   1.756   4.807 -0.2330 -0.0747  0.2314
  236fsi    FSI 2424   1.894   1.665   5.032  0.1533  0.2927  0.5872
  237fsi    FSI 2425   3.778   6.660   6.207 -0.1185  0.0129 -0.0996
  237fsi    SBT 2426   3.803   6.813   6.244  0.1085 -0.1540 -0.1701
  237fsi    NBT 2427   3.844   6.808   6.400  0.3753 -0.4228 -0.4169
  237fsi    OBT 2428   3.911   6.854   6.161  0.4278 -0.0531  0.1571
  237fsi    OBT 2429   3.674   6.876   6.229  0.5489  0.3291 -0.0767
  237fsi    SBT 2430   3.754   6.814   6.530 -0.0595 -0.0145  0.0254
  237fsi    OBT 2431   3.618   6.845   6.504  1.3068  0.2934 -0.3705
  237fsi    OBT 2432   3.817   6.885   6.639  0.3582 -0.0073  0.0354
  237fsi    FSI 2433   3.745   6.671   6.573  0.6371  0.0915 -0.6765
  238fsi    FSI 2434   4.789   0.982   4.437  0.6311  0.1572  0.2103
  238fsi    SBT 2435   4.929   0.944   4.489 -0.0683  0.3551 -0.0002
  238fsi    NBT 2436   5.006   0.872   4.374 -0.3872 -0.1592 -0.3868
  238fsi    OBT 2437   4.983   1.074   4.518  0.3757 -0.2464  0.2025
  238fsi    OBT 2438   4.896   0.852   4.593  0.2408  1.1859 -0.8381
  238fsi    SBT 2439   5.004   0.723   4.329  0.4990 -0.3016  0.1090
  238fsi    OBT 2440   5.004   0.624   4.433  0.1200 -0.4011 -0.7724
  238fsi    OBT 2441   5.092   0.696   4.217  0.0883  0.6163  0.5644
  238fsi    FSI 2442   4.861   0.704   4.269 -0.1982  0.1622  0.3687
  239fsi    FSI 2443   4.293   0.535   2.902 -0.5894 -0.3607 -0.3061
  239fsi    SBT 2444   4.275   0.604   3.041  0.2013  0.0251 -0.6870
  239fsi    NBT 2445   4.324   0.750   3.009  0.0278 -0.4356  0.0609
  239fsi    OBT 2446   4.134   0.587   3.064 -0.2142 -0.0134 -0.2142
  239fsi    OBT 2447   4.375   0.548   3.127 -0.1091 -0.1564 -0.0172
  239fsi    SBT 2448   4.253   0.892   3.035  0.0354  0.4696  0.0080
  239fsi    OBT 2449   4.158   0.881   3.142 -0.4192  0.0957  0.0473
  239fsi    OBT 2450   4.227   0.971   2.919 -0.1148 -0.1254  0.4893
  239fsi    FSI 2451   4.375   0.964   3.104  0.2260  0.2492 -0.0216
  240fsi    FSI 2452   5.093   1.790   1.066 -0.5380 -0.3765  0.5254
  240fsi    SBT 2453   4.953   1.725   1.106 -0.2789  0.3983 -0.1273
  240fsi    NBT 2454   4.903   1.671   0.971  0.3486 -0.1882 -0.0482
  240fsi    OBT 2455   4.989   1.628   1.201  0.2640  0.5896 -0.2992
  240fsi    OBT 2456   4.876   1.837   1.152  0.0796 -0.0198  0.1754
  240fsi    SBT 2457   4.902   1.521   0.939 -0.1531 -0.1013 -0.0842
  240fsi    OBT 2458   4.842   1.497   0.808  0.6336 -0.1549 -0.3281
  240fsi    OBT 2459   4.855   1.436   1.048 -0.5310 -0.1067  0.4127
  240fsi    FSI 2460   5.049   1.479   0.922 -0.1558  0.0131  0.3202
  241fsi    FSI 2461   2.814   4.351   3.743  0.3357  0.7455 -0.2508
  241fsi    SBT 2462   2.707   4.280   3.844  0.2179 -0.0745  0.0590
  241fsi    NBT 2463   2.743   4.348   3.983  0.5648  0.6858 -0.0893
  241fsi    OBT 2464   2.576   4.308   3.792 -0.3010 -0.5688  0.1819
  241fsi    OBT 2465   2.745   4.141   3.848  0.2957  0.1011  0.6693
  241fsi    SBT 2466   2.652   4.426   4.092  0.1847  0.4387 -0.0724
  241fsi    OBT 2467   2.514   4.440   4.052  0.8932  0.3736 -0.1487
  241fsi    OBT 2468   2.719   4.539   4.138 -0.1269 -0.8164  0.0874
  241fsi    FSI 2469   2.658   4.325   4.210  0.0642 -0.0250 -0.4844
  242fsi    FSI 2470   4.802   2.171   6.734 -0.2836  0.1444  0.5417
  242fsi    SBT 2471   4.883   2.105   6.620 -0.3558 -0.1722  0.0991
  242fsi    NBT 2472   4.781   2.104   6.498  0.1364 -0.2852 -0.1321
  242fsi    OBT 2473   4.989   2.204   6.609  0.0399  0.1058 -0.3337
  242fsi    OBT 2474   4.919   1.980   6.676 -0.2257 -0.0260 -0.2807
  242fsi    SBT 2475   4.710   1.982   6.428  0.0359  0.0129 -0.0571
  242fsi    OBT 2476   4.748   1.851   6.469  0.4503  0.0620 -0.4240
  242fsi    OBT 2477   4.706   1.998   6.285 -0.2235 -0.4483 -0.0793
  242fsi    FSI 2478   4.557   1.989   6.476 -0.1534  0.4352  0.0816
  243fsi    FSI 2479   4.944   2.689   6.725 -0.1731 -0.0313 -0.1421
  243fsi    SBT 2480   4.978   2.539   6.698 -0.4399 -0.3924  0.0440
  243fsi    NBT 2481   5.093   2.508   6.801 -0.1968  0.4989  0.3986
  243fsi    OBT 2482   4.858   2.468   6.733 -0.2389  0.0591 -0.2198
  243fsi    OBT 2483   5.025   2.536   6.560 -0.9363  0.3454 -0.4574
  243fsi    SBT 2484   5.250   2.482   6.766  0.3822  0.2056  0.5495
  243fsi    OBT 2485   5.273   2.418   6.639  0.5778 -0.6282  0.2276
  243fsi    OBT 2486   5.316   2.416   6.878  0.1609  0.2876 -0.0391
  243fsi    FSI 2487   5.315   2.629   6.754 -0.0508  0.3053  0.2445
  244fsi    FSI 2488   0.998   2.507   4.045 -0.3848  0.7593 -0.1268
  244fsi    SBT 2489   0.995   2.391   4.162 -0.0436  0.3799  0.3996
  244fsi    NBT 2490   1.115   2.298   4.132  0.3533  0.0522 -0.0106
  244fsi    OBT 2491   1.009   2.448   4.296 -0.6489  0.0741  0.3081
  244fsi    OBT 2492   0.870   2.322   4.136  0.2011  0.0174  0.1023
  244fsi    SBT 2493   1.266   2.335   4.120 -0.1986 -0.0186 -0.2123
  244fsi    OBT 2494   1.342   2.214   4.102  0.1878  0.2668 -0.0272
  244fsi    OBT 2495   1.306   2.428   4.222 -0.1079  0.1976  0.4226
  244fsi    FSI 2496   1.279   2.413   3.986 -0.4553  0.5435  0.3294
  245fsi    FSI 2497   4.876   0.216   4.856 -0.3305  0.0246  0.1441
  245fsi    SBT 2498   4.838   0.221   4.709  0.0894 -0.0781 -0.1599
  245fsi    NBT 2499   4.702   0.156   4.693  0.4596 -0.1972 -0.4916
  245fsi    OBT 2500   4.821   0.357   4.674 -0.0120  0.0965  0.2481
  245fsi    OBT 2501   4.938   0.145   4.638  0.0839 -1.0153 -0.0892
  245fsi    SBT 2502   4.650   0.013   4.651 -0.2035  0.3657 -0.6115
  245fsi    OBT 2503   4.734  -0.059   4.557  0.0200  0.8915 -0.1113
  245fsi    OBT 2504   4.507   0.018   4.627 -0.3859 -0.4363 -0.0302
  245fsi    FSI 2505   4.661  -0.061   4.782  0.6034  0.3564  0.0923
  246fsi    FSI 2506   4.298   2.118   3.923  0.2889 -0.3027 -0.1749
  246fsi    SBT 2507   4.256   2.265   3.949 -0.2011 -0.2305 -0.0446
  246fsi    NBT 2508   4.383   2.330   4.008 -0.3997  0.0430  0.8460
  246fsi    OBT 2509   4.230   2.311   3.813 -0.1391 -0.2675  0.2396
  246fsi    OBT 2510   4.149   2.263   4.038  0.4522  0.6189  0.7407
  246fsi    SBT 2511   4.439   2.310   4.149 -0.1646 -0.0033 -0.6285
  246fsi    OBT 2512   4.352   2.244   4.243 -0.3200  0.1792  0.5678
  246fsi    OBT 2513   4.506   2.426   4.203 -0.2175  0.0271  0.5170
  246fsi    FSI 2514   4.557   2.211   4.136 -0.0151  0.0191  0.1369
  247fsi    FSI 2515   4.606   2.181   2.329  0.0537 -0.1277 -0.1547
  247fsi    SBT 2516   4.701   2.225   2.212 -0.0972  0.0534  0.3528
  247fsi    NBT 2517   4.661   2.120   2.099 -0.8602  0.1811  0.3940
  247fsi    OBT 2518   4.653   2.358   2.181  0.3259 -0.3132  0.0963
  247fsi    OBT 2519   4.834   2.208   2.254 -0.7372 -0.4266 -0.1123
  247fsi    SBT 2520   4.547   2.115   1.999  0.0158  0.0212 -0.1458
  247fsi    OBT 2521   4.553   2.005   1.911  0.1533  0.1285  0.0161
  247fsi    OBT 2522   4.519   2.245   1.946 -0.3292 -0.4269 -0.0752
  247fsi    FSI 2523   4.430   2.080   2.094 -0.5431  0.2063  0.3037
  248fsi    FSI 2524   2.110   4.208   4.167 -0.2852  0.0410  0.8350
  248fsi    SBT 2525   2.252   4.222   4.111  0.4252 -0.6445  0.3205
  248fsi    NBT 2526   2.288   4.066   4.099  0.7014  0.0198 -0.1501
  248fsi    OBT 2527   2.236   4.282   3.986  0.2781  0.2132  0.5890
  248fsi    OBT 2528   2.322   4.296   4.213  0.1423  0.1263  0.1258
  248fsi    SBT 2529   2.429   3.996   4.090  0.2592 -0.0087  0.2878
  248fsi    OBT 2530   2.538   4.083   4.112 -0.1785 -0.1171  0.7646
  248fsi    OBT 2531   2.440   3.900   3.980  0.5027 -0.2197 -0.1219
  248fsi    FSI 2532   2.429   3.903   4.214  0.0011  0.5733  0.3906
  249fsi    FSI 2533   2.202   4.539   4.824  0.3048  1.0076  0.0633
  249fsi    SBT 2534   2.146   4.567   4.679  0.3608 -0.1604 -0.1466
  249fsi    NBT 2535   2.137   4.424   4.630  0.4419  0.4725  0.4388
  249fsi    OBT 2536   2.025   4.641   4.708  0.1304  0.0318  0.4229
  249fsi    OBT 2537   2.261   4.625   4.618  0.0574 -0.4443 -0.2041
  249fsi    SBT 2538   2.014   4.324   4.634 -0.3498  0.0378 -0.0117
  249fsi    OBT 2539   1.892   4.394   4.608  0.2466 -0.1433  0.2511
  249fsi    OBT 2540   2.020   4.248   4.745  0.6708 -0.3617 -0.6021
  249fsi    FSI 2541   2.034   4.216   4.513 -0.4868 -0.1217  0.4266
  250fsi    FSI 2542   5.240   2.026   5.661 -0.3072  0.3543  0.2545
  250fsi    SBT 2543   5.093   2.085   5.688 -0.3125 -0.2181 -0.0438
  250fsi    NBT 2544   5.030   1.965   5.770  0.0348 -0.3374  0.3798
  250fsi    OBT 2545   5.111   2.201   5.778 -0.6484 -0.0156 -0.1515
  250fsi    OBT 2546   5.028   2.090   5.560 -0.1830 -0.0066  0.1048
  250fsi    SBT 2547   5.092   1.900   5.903  0.0897  0.2094  0.0528
  250fsi    OBT 2548   4.993   1.834   5.985  0.0208  0.0883 -0.5723
  250fsi    OBT 2549   5.185   1.988   5.962 -1.1639 -0.2419  0.3578
  250fsi    FSI 2550   5.179   1.771   5.849  0.2180  0.3087  0.1703
   6.89480   6.89480   6.89480
