created by fftool
 2300
    1Li      Li    1   2.499   2.474   2.816
    2Li      Li    2   0.524   2.951   3.043
    3Li      Li    3   2.085   0.725   1.032
    4Li      Li    4   1.953   0.753   0.428
    5Li      Li    5   2.274   0.411   3.069
    6Li      Li    6   1.285   0.845   1.389
    7Li      Li    7   1.721   3.073   3.263
    8Li      Li    8   1.804   3.281   0.648
    9Li      Li    9   1.111   2.303   2.305
   10Li      Li   10   3.281   2.552   2.710
   11Li      Li   11   3.123   1.507   2.571
   12Li      Li   12   2.931   1.395   2.874
   13Li      Li   13   0.980   3.158   1.985
   14Li      Li   14   2.207   0.868   1.490
   15Li      Li   15   0.978   3.150   2.400
   16Li      Li   16   2.029   3.139   2.397
   17Li      Li   17   0.511   1.058   2.310
   18Li      Li   18   2.721   2.846   2.557
   19Li      Li   19   0.380   2.027   0.929
   20Li      Li   20   2.895   1.271   0.538
   21Li      Li   21   0.878   0.831   0.628
   22Li      Li   22   3.118   3.151   2.613
   23Li      Li   23   2.024   0.796   1.623
   24Li      Li   24   2.636   2.788   2.882
   25Li      Li   25   1.177   2.384   2.110
   26Li      Li   26   2.368   0.220   1.043
   27Li      Li   27   2.324   3.087   1.431
   28Li      Li   28   0.653   1.661   0.150
   29Li      Li   29   1.019   0.863   2.412
   30Li      Li   30   3.300   1.677   0.612
   31Li      Li   31   3.045   1.579   2.791
   32Li      Li   32   0.813   1.224   0.571
   33Li      Li   33   0.518   1.346   1.999
   34Li      Li   34   0.819   3.155   2.932
   35Li      Li   35   3.073   2.219   0.805
   36Li      Li   36   2.835   1.119   2.683
   37Li      Li   37   1.038   3.303   1.123
   38Li      Li   38   0.522   2.834   0.882
   39Li      Li   39   0.815   1.355   3.083
   40Li      Li   40   0.259   0.708   0.397
   41Li      Li   41   1.770   3.071   2.660
   42Li      Li   42   3.151   1.408   2.880
   43Li      Li   43   0.490   0.822   1.572
   44Li      Li   44   1.747   2.901   1.336
   45Li      Li   45   2.197   2.232   2.123
   46Li      Li   46   2.505   3.273   0.555
   47Li      Li   47   0.478   0.642   1.735
   48Li      Li   48   1.112   0.906   1.664
   49Li      Li   49   2.370   2.801   2.355
   50Li      Li   50   2.471   3.015   1.960
   51c3c      N   51   2.230   2.698   3.097
   51c3c     C1   52   2.244   2.678   2.952
   51c3c     C2   53   2.249   2.840   3.130
   51c3c     C3   54   2.273   2.813   2.885
   51c3c     C4   55   2.276   2.919   3.001
   51c3c     C5   56   2.096   2.655   3.140
   51c3c     C6   57   2.332   2.618   3.167
   51c3c     H1   58   2.151   2.637   2.912
   51c3c     H2   59   2.326   2.609   2.932
   51c3c     H3   60   2.159   2.879   3.178
   51c3c     H4   61   2.334   2.851   3.197
   51c3c     H5   62   2.195   2.838   2.813
   51c3c     H6   63   2.368   2.810   2.832
   51c3c     H7   64   2.200   2.995   2.986
   51c3c     H8   65   2.374   2.968   3.006
   51c3c     H9   66   2.082   2.550   3.116
   51c3c    H10   67   2.086   2.670   3.248
   51c3c    H11   68   2.021   2.714   3.088
   51c3c    H12   69   2.322   2.632   3.274
   51c3c    H13   70   2.318   2.512   3.143
   51c3c     C7   71   2.471   2.662   3.122
   51c3c    H14   72   2.486   2.767   3.147
   51c3c    H15   73   2.482   2.648   3.015
   51c3c     C8   74   2.577   2.579   3.195
   51c3c    H16   75   2.563   2.473   3.171
   51c3c    H17   76   2.567   2.593   3.303
   51c3c    H18   77   2.676   2.610   3.163
   52c3c      N   78   1.601   0.333   1.237
   52c3c     C1   79   1.513   0.215   1.229
   52c3c     C2   80   1.518   0.455   1.243
   52c3c     C3   81   1.367   0.260   1.229
   52c3c     C4   82   1.370   0.417   1.238
   52c3c     C5   83   1.683   0.324   1.359
   52c3c     C6   84   1.688   0.339   1.119
   52c3c     H1   85   1.531   0.150   1.314
   52c3c     H2   86   1.535   0.161   1.137
   52c3c     H3   87   1.539   0.508   1.336
   52c3c     H4   88   1.542   0.519   1.159
   52c3c     H5   89   1.314   0.217   1.313
   52c3c     H6   90   1.317   0.228   1.137
   52c3c     H7   91   1.319   0.451   1.328
   52c3c     H8   92   1.322   0.462   1.152
   52c3c     H9   93   1.745   0.234   1.355
   52c3c    H10   94   1.748   0.411   1.365
   52c3c    H11   95   1.619   0.320   1.447
   52c3c    H12   96   1.753   0.426   1.126
   52c3c    H13   97   1.749   0.248   1.115
   52c3c     C7   98   1.602   0.348   0.993
   52c3c    H14   99   1.541   0.438   0.997
   52c3c    H15  100   1.537   0.261   0.986
   52c3c     C8  101   1.693   0.354   0.870
   52c3c    H16  102   1.754   0.264   0.865
   52c3c    H17  103   1.758   0.441   0.877
   52c3c    H18  104   1.632   0.361   0.780
   53c3c      N  105   3.090   1.300   1.249
   53c3c     C1  106   3.004   1.224   1.156
   53c3c     C2  107   3.223   1.318   1.189
   53c3c     C3  108   3.083   1.191   1.029
   53c3c     C4  109   3.226   1.252   1.051
   53c3c     C5  110   3.029   1.431   1.275
   53c3c     C6  111   3.103   1.225   1.375
   53c3c     H1  112   2.917   1.284   1.130
   53c3c     H2  113   2.971   1.132   1.204
   53c3c     H3  114   3.244   1.424   1.179
   53c3c     H4  115   3.298   1.272   1.253
   53c3c     H5  116   3.035   1.234   0.942
   53c3c     H6  117   3.089   1.083   1.015
   53c3c     H7  118   3.249   1.326   0.974
   53c3c     H8  119   3.302   1.174   1.047
   53c3c     H9  120   2.931   1.418   1.320
   53c3c    H10  121   3.093   1.487   1.344
   53c3c    H11  122   3.020   1.486   1.182
   53c3c    H12  123   3.166   1.281   1.444
   53c3c    H13  124   3.004   1.212   1.420
   53c3c     C7  125   3.165   1.089   1.348
   53c3c    H14  126   3.264   1.102   1.303
   53c3c    H15  127   3.102   1.033   1.279
   53c3c     C8  128   3.179   1.011   1.479
   53c3c    H16  129   3.080   0.998   1.523
   53c3c    H17  130   3.242   1.067   1.548
   53c3c    H18  131   3.224   0.914   1.459
   54c3c      N  132   0.333   1.978   1.372
   54c3c     C1  133   0.219   1.890   1.403
   54c3c     C2  134   0.457   1.899   1.377
   54c3c     C3  135   0.269   1.748   1.430
   54c3c     C4  136   0.425   1.754   1.413
   54c3c     C5  137   0.316   2.034   1.237
   54c3c     C6  138   0.339   2.087   1.470
   54c3c     H1  139   0.150   1.889   1.318
   54c3c     H2  140   0.167   1.928   1.491
   54c3c     H3  141   0.507   1.903   1.280
   54c3c     H4  142   0.523   1.942   1.453
   54c3c     H5  143   0.225   1.678   1.359
   54c3c     H6  144   0.242   1.716   1.530
   54c3c     H7  145   0.458   1.687   1.334
   54c3c     H8  146   0.475   1.725   1.505
   54c3c     H9  147   0.224   2.092   1.233
   54c3c    H10  148   0.401   2.099   1.214
   54c3c    H11  149   0.312   1.953   1.164
   54c3c    H12  150   0.424   2.151   1.447
   54c3c    H13  151   0.247   2.145   1.466
   54c3c     C7  152   0.356   2.028   1.610
   54c3c    H14  153   0.449   1.970   1.614
   54c3c    H15  154   0.272   1.963   1.633
   54c3c     C8  155   0.363   2.141   1.713
   54c3c    H16  156   0.271   2.199   1.709
   54c3c    H17  157   0.447   2.206   1.690
   54c3c    H18  158   0.375   2.099   1.813
   55c3c      N  159   1.445   2.733   0.344
   55c3c     C1  160   1.464   2.832   0.238
   55c3c     C2  161   1.330   2.771   0.428
   55c3c     C3  162   1.357   2.941   0.250
   55c3c     C4  163   1.270   2.901   0.375
   55c3c     C5  164   1.420   2.601   0.284
   55c3c     C6  165   1.566   2.726   0.428
   55c3c     H1  166   1.455   2.784   0.141
   55c3c     H2  167   1.563   2.877   0.247
   55c3c     H3  168   1.255   2.692   0.424
   55c3c     H4  169   1.363   2.785   0.530
   55c3c     H5  170   1.297   2.946   0.160
   55c3c     H6  171   1.404   3.039   0.266
   55c3c     H7  172   1.166   2.886   0.345
   55c3c     H8  173   1.273   2.979   0.451
   55c3c     H9  174   1.506   2.572   0.223
   55c3c    H10  175   1.406   2.527   0.363
   55c3c    H11  176   1.331   2.605   0.222
   55c3c    H12  177   1.552   2.652   0.507
   55c3c    H13  178   1.651   2.698   0.366
   55c3c     C7  179   1.592   2.864   0.491
   55c3c    H14  180   1.506   2.892   0.552
   55c3c    H15  181   1.606   2.938   0.412
   55c3c     C8  182   1.717   2.857   0.577
   55c3c    H16  183   1.803   2.829   0.516
   55c3c    H17  184   1.703   2.783   0.656
   55c3c    H18  185   1.736   2.955   0.622
   56c3c      N  186   1.750   1.795   1.255
   56c3c     C1  187   1.718   1.791   1.111
   56c3c     C2  188   1.714   1.926   1.310
   56c3c     C3  189   1.657   1.925   1.069
   56c3c     C4  190   1.654   2.013   1.200
   56c3c     C5  191   1.676   1.689   1.324
   56c3c     C6  192   1.895   1.773   1.273
   56c3c     H1  193   1.646   1.711   1.092
   56c3c     H2  194   1.809   1.773   1.054
   56c3c     H3  195   1.640   1.912   1.389
   56c3c     H4  196   1.802   1.974   1.351
   56c3c     H5  197   1.556   1.911   1.030
   56c3c     H6  198   1.718   1.973   0.992
   56c3c     H7  199   1.552   2.043   1.224
   56c3c     H8  200   1.713   2.104   1.187
   56c3c     H9  201   1.703   1.592   1.283
   56c3c    H10  202   1.700   1.691   1.431
   56c3c    H11  203   1.569   1.705   1.311
   56c3c    H12  204   1.919   1.775   1.379
   56c3c    H13  205   1.922   1.676   1.232
   56c3c     C7  206   1.973   1.882   1.201
   56c3c    H14  207   1.945   1.980   1.242
   56c3c    H15  208   1.949   1.880   1.094
   56c3c     C8  209   2.123   1.860   1.219
   56c3c    H16  210   2.150   1.762   1.178
   56c3c    H17  211   2.147   1.862   1.326
   56c3c    H18  212   2.178   1.938   1.168
   57c3c      N  213   0.594   0.329   1.980
   57c3c     C1  214   0.634   0.459   1.924
   57c3c     C2  215   0.626   0.222   1.884
   57c3c     C3  216   0.695   0.438   1.786
   57c3c     C4  217   0.689   0.283   1.759
   57c3c     C5  218   0.667   0.305   2.106
   57c3c     C6  219   0.450   0.330   2.008
   57c3c     H1  220   0.708   0.506   1.990
   57c3c     H2  221   0.547   0.524   1.917
   57c3c     H3  222   0.695   0.152   1.930
   57c3c     H4  223   0.534   0.170   1.857
   57c3c     H5  224   0.798   0.474   1.782
   57c3c     H6  225   0.637   0.492   1.710
   57c3c     H7  226   0.789   0.243   1.743
   57c3c     H8  227   0.629   0.261   1.671
   57c3c     H9  228   0.644   0.384   2.177
   57c3c    H10  229   0.638   0.209   2.148
   57c3c    H11  230   0.775   0.305   2.086
   57c3c    H12  231   0.420   0.234   2.049
   57c3c    H13  232   0.426   0.409   2.079
   57c3c     C7  233   0.373   0.355   1.877
   57c3c    H14  234   0.397   0.275   1.806
   57c3c    H15  235   0.403   0.451   1.836
   57c3c     C8  236   0.223   0.355   1.906
   57c3c    H16  237   0.200   0.435   1.977
   57c3c    H17  238   0.193   0.259   1.947
   57c3c    H18  239   0.169   0.373   1.813
   58c3c      N  240   1.503   2.149   0.632
   58c3c     C1  241   1.385   2.065   0.658
   58c3c     C2  242   1.491   2.276   0.706
   58c3c     C3  243   1.290   2.138   0.752
   58c3c     C4  244   1.359   2.276   0.784
   58c3c     C5  245   1.625   2.078   0.676
   58c3c     C6  246   1.513   2.177   0.488
   58c3c     H1  247   1.417   1.971   0.703
   58c3c     H2  248   1.334   2.045   0.564
   58c3c     H3  249   1.574   2.286   0.775
   58c3c     H4  250   1.492   2.359   0.636
   58c3c     H5  251   1.275   2.081   0.844
   58c3c     H6  252   1.193   2.154   0.705
   58c3c     H7  253   1.378   2.286   0.891
   58c3c     H8  254   1.296   2.359   0.752
   58c3c     H9  255   1.634   1.985   0.622
   58c3c    H10  256   1.712   2.141   0.657
   58c3c    H11  257   1.617   2.057   0.783
   58c3c    H12  258   1.601   2.239   0.469
   58c3c    H13  259   1.523   2.084   0.433
   58c3c     C7  260   1.388   2.251   0.442
   58c3c    H14  261   1.378   2.345   0.497
   58c3c    H15  262   1.300   2.189   0.461
   58c3c     C8  263   1.398   2.280   0.292
   58c3c    H16  264   1.407   2.187   0.237
   58c3c    H17  265   1.485   2.342   0.273
   58c3c    H18  266   1.308   2.333   0.259
   59c3c      N  267   1.423   3.010   2.327
   59c3c     C1  268   1.527   2.907   2.321
   59c3c     C2  269   1.440   3.104   2.215
   59c3c     C3  270   1.618   2.932   2.201
   59c3c     C4  271   1.561   3.062   2.132
   59c3c     C5  272   1.290   2.947   2.317
   59c3c     C6  273   1.433   3.083   2.454
   59c3c     H1  274   1.480   2.809   2.311
   59c3c     H2  275   1.586   2.910   2.413
   59c3c     H3  276   1.351   3.104   2.153
   59c3c     H4  277   1.457   3.205   2.254
   59c3c     H5  278   1.616   2.848   2.133
   59c3c     H6  279   1.721   2.948   2.233
   59c3c     H7  280   1.531   3.040   2.029
   59c3c     H8  281   1.636   3.141   2.129
   59c3c     H9  282   1.277   2.878   2.400
   59c3c    H10  283   1.213   3.024   2.322
   59c3c    H11  284   1.282   2.893   2.223
   59c3c    H12  285   1.355   3.160   2.458
   59c3c    H13  286   1.420   3.014   2.537
   59c3c     C7  287   1.570   3.149   2.464
   59c3c    H14  288   1.584   3.219   2.382
   59c3c    H15  289   1.648   3.073   2.460
   59c3c     C8  290   1.581   3.225   2.597
   59c3c    H16  291   1.568   3.156   2.680
   59c3c    H17  292   1.503   3.302   2.601
   59c3c    H18  293   1.679   3.272   2.604
   60c3c      N  294   2.210   0.486   1.310
   60c3c     C1  295   2.176   0.416   1.184
   60c3c     C2  296   2.174   0.400   1.424
   60c3c     C3  297   2.116   0.279   1.216
   60c3c     C4  298   2.115   0.268   1.372
   60c3c     C5  299   2.354   0.515   1.313
   60c3c     C6  300   2.134   0.611   1.318
   60c3c     H1  301   2.266   0.404   1.124
   60c3c     H2  302   2.104   0.475   1.128
   60c3c     H3  303   2.264   0.379   1.482
   60c3c     H4  304   2.101   0.451   1.486
   60c3c     H5  305   2.177   0.200   1.172
   60c3c     H6  306   2.015   0.271   1.176
   60c3c     H7  307   2.175   0.184   1.406
   60c3c     H8  308   2.014   0.255   1.410
   60c3c     H9  309   2.380   0.578   1.228
   60c3c    H10  310   2.378   0.566   1.406
   60c3c    H11  311   2.410   0.421   1.307
   60c3c    H12  312   2.159   0.663   1.411
   60c3c    H13  313   2.160   0.675   1.233
   60c3c     C7  314   1.984   0.581   1.315
   60c3c    H14  315   1.958   0.518   1.399
   60c3c    H15  316   1.959   0.530   1.222
   60c3c     C8  317   1.906   0.712   1.323
   60c3c    H16  318   1.932   0.776   1.239
   60c3c    H17  319   1.930   0.763   1.416
   60c3c    H18  320   1.799   0.691   1.321
   61c3c      N  321   2.970   1.753   2.295
   61c3c     C1  322   3.115   1.770   2.315
   61c3c     C2  323   2.902   1.754   2.425
   61c3c     C3  324   3.145   1.784   2.464
   61c3c     C4  325   3.005   1.773   2.536
   61c3c     C5  326   2.918   1.863   2.211
   61c3c     C6  327   2.945   1.625   2.227
   61c3c     H1  328   3.148   1.860   2.263
   61c3c     H2  329   3.168   1.684   2.274
   61c3c     H3  330   2.830   1.836   2.428
   61c3c     H4  331   2.850   1.660   2.440
   61c3c     H5  332   3.192   1.879   2.485
   61c3c     H6  333   3.211   1.704   2.497
   61c3c     H7  334   2.985   1.864   2.593
   61c3c     H8  335   3.004   1.689   2.605
   61c3c     H9  336   2.969   1.862   2.115
   61c3c    H10  337   2.811   1.850   2.197
   61c3c    H11  338   2.937   1.958   2.261
   61c3c    H12  339   2.837   1.612   2.213
   61c3c    H13  340   2.995   1.624   2.131
   61c3c     C7  341   2.998   1.510   2.314
   61c3c    H14  342   2.948   1.511   2.411
   61c3c    H15  343   3.105   1.523   2.329
   61c3c     C8  344   2.972   1.377   2.244
   61c3c    H16  345   3.022   1.376   2.147
   61c3c    H17  346   2.865   1.364   2.229
   61c3c    H18  347   3.010   1.296   2.306
   62c3c      N  348   1.906   1.153   1.732
   62c3c     C1  349   1.771   1.101   1.760
   62c3c     C2  350   1.963   1.209   1.855
   62c3c     C3  351   1.736   1.125   1.907
   62c3c     C4  352   1.862   1.196   1.969
   62c3c     C5  353   1.991   1.043   1.684
   62c3c     C6  354   1.898   1.257   1.629
   62c3c     H1  355   1.767   0.995   1.738
   62c3c     H2  356   1.699   1.153   1.697
   62c3c     H3  357   2.054   1.156   1.881
   62c3c     H4  358   1.986   1.315   1.839
   62c3c     H5  359   1.716   1.030   1.957
   62c3c     H6  360   1.648   1.188   1.916
   62c3c     H7  361   1.904   1.136   2.050
   62c3c     H8  362   1.836   1.293   2.009
   62c3c     H9  363   1.949   1.001   1.593
   62c3c    H10  364   2.091   1.081   1.664
   62c3c    H11  365   1.997   0.965   1.761
   62c3c    H12  366   1.999   1.295   1.608
   62c3c    H13  367   1.856   1.215   1.537
   62c3c     C7  368   1.810   1.372   1.678
   62c3c    H14  369   1.852   1.414   1.769
   62c3c    H15  370   1.710   1.334   1.698
   62c3c     C8  371   1.802   1.480   1.571
   62c3c    H16  372   1.760   1.438   1.479
   62c3c    H17  373   1.902   1.518   1.550
   62c3c    H18  374   1.739   1.562   1.606
   63c3c      N  375   1.794   2.527   2.288
   63c3c     C1  376   1.826   2.520   2.145
   63c3c     C2  377   1.918   2.520   2.366
   63c3c     C3  378   1.977   2.509   2.126
   63c3c     C4  379   2.037   2.509   2.272
   63c3c     C5  380   1.724   2.653   2.317
   63c3c     C6  381   1.707   2.413   2.324
   63c3c     H1  382   1.790   2.611   2.095
   63c3c     H2  383   1.777   2.434   2.100
   63c3c     H3  384   1.928   2.610   2.427
   63c3c     H4  385   1.915   2.432   2.431
   63c3c     H5  386   2.015   2.593   2.069
   63c3c     H6  387   2.003   2.417   2.073
   63c3c     H7  388   2.106   2.593   2.285
   63c3c     H8  389   2.093   2.417   2.290
   63c3c     H9  390   1.632   2.658   2.260
   63c3c    H10  391   1.701   2.657   2.424
   63c3c    H11  392   1.788   2.737   2.291
   63c3c    H12  393   1.683   2.418   2.430
   63c3c    H13  394   1.615   2.418   2.266
   63c3c     C7  395   1.779   2.282   2.293
   63c3c    H14  396   1.871   2.277   2.351
   63c3c    H15  397   1.803   2.277   2.187
   63c3c     C8  398   1.689   2.164   2.331
   63c3c    H16  399   1.597   2.169   2.273
   63c3c    H17  400   1.665   2.169   2.437
   63c3c    H18  401   1.740   2.071   2.309
   64c3c      N  402   2.670   2.221   2.174
   64c3c     C1  403   2.686   2.076   2.188
   64c3c     C2  404   2.527   2.255   2.169
   64c3c     C3  405   2.548   2.010   2.194
   64c3c     C4  406   2.444   2.128   2.181
   64c3c     C5  407   2.734   2.289   2.288
   64c3c     C6  408   2.735   2.265   2.049
   64c3c     H1  409   2.740   2.054   2.280
   64c3c     H2  410   2.741   2.036   2.103
   64c3c     H3  411   2.503   2.322   2.252
   64c3c     H4  412   2.504   2.305   2.075
   64c3c     H5  413   2.534   1.957   2.288
   64c3c     H6  414   2.536   1.939   2.112
   64c3c     H7  415   2.380   2.132   2.269
   64c3c     H8  416   2.381   2.115   2.094
   64c3c     H9  417   2.839   2.264   2.291
   64c3c    H10  418   2.722   2.397   2.277
   64c3c    H11  419   2.686   2.257   2.380
   64c3c    H12  420   2.724   2.373   2.038
   64c3c    H13  421   2.841   2.240   2.052
   64c3c     C7  422   2.669   2.195   1.930
   64c3c    H14  423   2.563   2.220   1.927
   64c3c    H15  424   2.681   2.087   1.941
   64c3c     C8  425   2.736   2.241   1.800
   64c3c    H16  426   2.842   2.216   1.803
   64c3c    H17  427   2.725   2.349   1.790
   64c3c    H18  428   2.690   2.191   1.715
   65c3c      N  429   2.990   2.240   1.437
   65c3c     C1  430   3.034   2.356   1.517
   65c3c     C2  431   3.089   2.132   1.449
   65c3c     C3  432   3.168   2.323   1.585
   65c3c     C4  433   3.203   2.177   1.540
   65c3c     C5  434   2.860   2.193   1.487
   65c3c     C6  435   2.978   2.280   1.296
   65c3c     H1  436   2.960   2.378   1.593
   65c3c     H2  437   3.047   2.442   1.452
   65c3c     H3  438   3.041   2.044   1.491
   65c3c     H4  439   3.129   2.108   1.350
   65c3c     H5  440   3.158   2.329   1.693
   65c3c     H6  441   3.245   2.393   1.553
   65c3c     H7  442   3.212   2.111   1.627
   65c3c     H8  443   3.298   2.175   1.487
   65c3c     H9  444   2.787   2.273   1.478
   65c3c    H10  445   2.827   2.108   1.427
   65c3c    H11  446   2.869   2.164   1.591
   65c3c    H12  447   2.945   2.195   1.237
   65c3c    H13  448   2.905   2.361   1.288
   65c3c     C7  449   3.113   2.329   1.245
   65c3c    H14  450   3.187   2.249   1.253
   65c3c    H15  451   3.146   2.414   1.304
   65c3c     C8  452   3.100   2.370   1.098
   65c3c    H16  453   3.027   2.451   1.089
   65c3c    H17  454   3.068   2.285   1.039
   65c3c    H18  455   3.197   2.405   1.062
   66c3c      N  456   1.417   3.037   0.893
   66c3c     C1  457   1.338   3.157   0.926
   66c3c     C2  458   1.325   2.925   0.865
   66c3c     C3  459   1.189   3.124   0.920
   66c3c     C4  460   1.181   2.972   0.880
   66c3c     C5  461   1.499   3.063   0.774
   66c3c     C6  462   1.504   3.002   1.006
   66c3c     H1  463   1.361   3.236   0.854
   66c3c     H2  464   1.364   3.191   1.026
   66c3c     H3  465   1.342   2.889   0.763
   66c3c     H4  466   1.345   2.844   0.935
   66c3c     H5  467   1.139   3.186   0.846
   66c3c     H6  468   1.142   3.141   1.016
   66c3c     H7  469   1.126   2.959   0.786
   66c3c     H8  470   1.129   2.914   0.957
   66c3c     H9  471   1.567   3.146   0.794
   66c3c    H10  472   1.557   2.974   0.749
   66c3c    H11  473   1.435   3.089   0.690
   66c3c    H12  474   1.562   2.913   0.982
   66c3c    H13  475   1.571   3.085   1.027
   66c3c     C7  476   1.418   2.974   1.130
   66c3c    H14  477   1.350   2.891   1.109
   66c3c    H15  478   1.360   3.063   1.154
   66c3c     C8  479   1.508   2.938   1.247
   66c3c    H16  480   1.576   3.021   1.268
   66c3c    H17  481   1.566   2.849   1.223
   66c3c    H18  482   1.447   2.918   1.336
   67c3c      N  483   0.443   0.588   2.481
   67c3c     C1  484   0.466   0.730   2.451
   67c3c     C2  485   0.299   0.558   2.468
   67c3c     C3  486   0.333   0.797   2.417
   67c3c     C4  487   0.224   0.684   2.428
   67c3c     C5  488   0.519   0.505   2.386
   67c3c     C6  489   0.487   0.559   2.618
   67c3c     H1  490   0.534   0.739   2.366
   67c3c     H2  491   0.510   0.779   2.538
   67c3c     H3  492   0.285   0.481   2.392
   67c3c     H4  493   0.261   0.521   2.563
   67c3c     H5  494   0.335   0.839   2.316
   67c3c     H6  495   0.312   0.878   2.486
   67c3c     H7  496   0.173   0.670   2.333
   67c3c     H8  497   0.149   0.710   2.503
   67c3c     H9  498   0.625   0.527   2.396
   67c3c    H10  499   0.502   0.400   2.408
   67c3c    H11  500   0.486   0.526   2.284
   67c3c    H12  501   0.470   0.454   2.640
   67c3c    H13  502   0.593   0.581   2.628
   67c3c     C7  503   0.408   0.645   2.716
   67c3c    H14  504   0.301   0.623   2.707
   67c3c    H15  505   0.425   0.751   2.694
   67c3c     C8  506   0.453   0.615   2.859
   67c3c    H16  507   0.560   0.637   2.869
   67c3c    H17  508   0.437   0.510   2.881
   67c3c    H18  509   0.397   0.676   2.929
   68c3c      N  510   0.692   2.952   1.918
   68c3c     C1  511   0.562   2.972   1.851
   68c3c     C2  512   0.694   3.029   2.043
   68c3c     C3  513   0.475   3.065   1.935
   68c3c     C4  514   0.561   3.102   2.061
   68c3c     C5  515   0.710   2.809   1.947
   68c3c     C6  516   0.800   2.999   1.830
   68c3c     H1  517   0.512   2.876   1.839
   68c3c     H2  518   0.578   3.016   1.753
   68c3c     H3  519   0.709   2.961   2.127
   68c3c     H4  520   0.775   3.101   2.040
   68c3c     H5  521   0.382   3.015   1.964
   68c3c     H6  522   0.448   3.154   1.878
   68c3c     H7  523   0.511   3.071   2.152
   68c3c     H8  524   0.577   3.210   2.066
   68c3c     H9  525   0.709   2.753   1.855
   68c3c    H10  526   0.806   2.795   1.997
   68c3c    H11  527   0.630   2.775   2.013
   68c3c    H12  528   0.896   2.984   1.880
   68c3c    H13  529   0.798   2.942   1.737
   68c3c     C7  530   0.780   3.147   1.799
   68c3c    H14  531   0.782   3.204   1.893
   68c3c    H15  532   0.685   3.162   1.750
   68c3c     C8  533   0.893   3.196   1.708
   68c3c    H16  534   0.891   3.139   1.615
   68c3c    H17  535   0.989   3.181   1.758
   68c3c    H18  536   0.879   3.302   1.686
   69c3c      N  537   2.465   2.423   0.738
   69c3c     C1  538   2.345   2.349   0.695
   69c3c     C2  539   2.585   2.355   0.686
   69c3c     C3  540   2.387   2.228   0.612
   69c3c     C4  541   2.544   2.232   0.606
   69c3c     C5  542   2.460   2.560   0.685
   69c3c     C6  543   2.470   2.427   0.885
   69c3c     H1  544   2.282   2.414   0.635
   69c3c     H2  545   2.290   2.316   0.783
   69c3c     H3  546   2.640   2.424   0.622
   69c3c     H4  547   2.648   2.325   0.769
   69c3c     H5  548   2.344   2.233   0.512
   69c3c     H6  549   2.352   2.135   0.658
   69c3c     H7  550   2.579   2.239   0.503
   69c3c     H8  551   2.586   2.141   0.650
   69c3c     H9  552   2.371   2.610   0.723
   69c3c    H10  553   2.549   2.615   0.716
   69c3c    H11  554   2.456   2.557   0.576
   69c3c    H12  555   2.559   2.482   0.916
   69c3c    H13  556   2.382   2.477   0.923
   69c3c     C7  557   2.476   2.284   0.939
   69c3c    H14  558   2.565   2.234   0.901
   69c3c    H15  559   2.387   2.230   0.908
   69c3c     C8  560   2.482   2.289   1.092
   69c3c    H16  561   2.393   2.339   1.130
   69c3c    H17  562   2.571   2.343   1.124
   69c3c    H18  563   2.486   2.187   1.131
   70c3c      N  564   0.651   2.256   1.953
   70c3c     C1  565   0.761   2.312   2.033
   70c3c     C2  566   0.659   2.308   1.815
   70c3c     C3  567   0.846   2.403   1.945
   70c3c     C4  568   0.780   2.401   1.803
   70c3c     C5  569   0.660   2.110   1.951
   70c3c     C6  570   0.522   2.296   2.013
   70c3c     H1  571   0.823   2.230   2.071
   70c3c     H2  572   0.721   2.369   2.116
   70c3c     H3  573   0.670   2.224   1.746
   70c3c     H4  574   0.568   2.363   1.791
   70c3c     H5  575   0.949   2.367   1.940
   70c3c     H6  576   0.848   2.505   1.985
   70c3c     H7  577   0.850   2.363   1.728
   70c3c     H8  578   0.748   2.501   1.773
   70c3c     H9  579   0.654   2.072   2.053
   70c3c    H10  580   0.578   2.069   1.892
   70c3c    H11  581   0.755   2.080   1.907
   70c3c    H12  582   0.440   2.256   1.953
   70c3c    H13  583   0.516   2.259   2.115
   70c3c     C7  584   0.512   2.449   2.014
   70c3c    H14  585   0.518   2.487   1.912
   70c3c    H15  586   0.594   2.490   2.073
   70c3c     C8  587   0.379   2.491   2.076
   70c3c    H16  588   0.372   2.453   2.178
   70c3c    H17  589   0.297   2.450   2.017
   70c3c    H18  590   0.372   2.600   2.077
   71c3c      N  591   2.541   0.481   1.773
   71c3c     C1  592   2.601   0.354   1.816
   71c3c     C2  593   2.397   0.462   1.750
   71c3c     C3  594   2.493   0.246   1.821
   71c3c     C4  595   2.360   0.317   1.778
   71c3c     C5  596   2.561   0.582   1.879
   71c3c     C6  597   2.605   0.527   1.649
   71c3c     H1  598   2.646   0.366   1.915
   71c3c     H2  599   2.678   0.325   1.745
   71c3c     H3  600   2.341   0.528   1.816
   71c3c     H4  601   2.374   0.487   1.646
   71c3c     H5  602   2.485   0.205   1.921
   71c3c     H6  603   2.517   0.164   1.753
   71c3c     H7  604   2.285   0.311   1.857
   71c3c     H8  605   2.318   0.270   1.689
   71c3c     H9  606   2.668   0.596   1.896
   71c3c    H10  607   2.516   0.677   1.847
   71c3c    H11  608   2.513   0.549   1.971
   71c3c    H12  609   2.561   0.621   1.618
   71c3c    H13  610   2.712   0.541   1.666
   71c3c     C7  611   2.585   0.422   1.540
   71c3c    H14  612   2.478   0.408   1.522
   71c3c    H15  613   2.629   0.328   1.571
   71c3c     C8  614   2.651   0.470   1.411
   71c3c    H16  615   2.758   0.484   1.428
   71c3c    H17  616   2.607   0.564   1.379
   71c3c    H18  617   2.637   0.395   1.332
   72c3c      N  618   1.482   0.860   0.556
   72c3c     C1  619   1.579   0.896   0.661
   72c3c     C2  620   1.415   0.735   0.591
   72c3c     C3  621   1.576   0.790   0.771
   72c3c     C4  622   1.469   0.684   0.725
   72c3c     C5  623   1.382   0.967   0.543
   72c3c     C6  624   1.553   0.844   0.428
   72c3c     H1  625   1.552   0.993   0.703
   72c3c     H2  626   1.679   0.901   0.618
   72c3c     H3  627   1.308   0.752   0.600
   72c3c     H4  628   1.434   0.660   0.514
   72c3c     H5  629   1.548   0.834   0.867
   72c3c     H6  630   1.674   0.743   0.782
   72c3c     H7  631   1.388   0.676   0.799
   72c3c     H8  632   1.514   0.586   0.714
   72c3c     H9  633   1.432   1.061   0.517
   72c3c    H10  634   1.310   0.941   0.465
   72c3c    H11  635   1.330   0.980   0.638
   72c3c    H12  636   1.481   0.818   0.350
   72c3c    H13  637   1.602   0.937   0.401
   72c3c     C7  638   1.657   0.733   0.441
   72c3c    H14  639   1.607   0.639   0.467
   72c3c    H15  640   1.728   0.759   0.519
   72c3c     C8  641   1.730   0.715   0.308
   72c3c    H16  642   1.780   0.809   0.282
   72c3c    H17  643   1.658   0.689   0.230
   72c3c    H18  644   1.804   0.636   0.317
   73c3c      N  645   2.313   1.787   3.148
   73c3c     C1  646   2.311   1.779   3.001
   73c3c     C2  647   2.293   1.652   3.204
   73c3c     C3  648   2.290   1.634   2.958
   73c3c     C4  649   2.278   1.551   3.091
   73c3c     C5  650   2.443   1.840   3.193
   73c3c     C6  651   2.205   1.875   3.194
   73c3c     H1  652   2.407   1.815   2.962
   73c3c     H2  653   2.230   1.841   2.963
   73c3c     H3  654   2.379   1.625   3.266
   73c3c     H4  655   2.204   1.651   3.266
   73c3c     H5  656   2.374   1.599   2.898
   73c3c     H6  657   2.199   1.625   2.898
   73c3c     H7  658   2.356   1.475   3.096
   73c3c     H8  659   2.181   1.501   3.097
   73c3c     H9  660   2.457   1.940   3.151
   73c3c    H10  661   2.444   1.846   3.302
   73c3c    H11  662   2.523   1.774   3.159
   73c3c    H12  663   2.206   1.881   3.303
   73c3c    H13  664   2.220   1.975   3.152
   73c3c     C7  665   2.070   1.820   3.148
   73c3c    H14  666   2.056   1.720   3.189
   73c3c    H15  667   2.069   1.814   3.039
   73c3c     C8  668   1.958   1.912   3.195
   73c3c    H16  669   1.972   2.012   3.153
   73c3c    H17  670   1.959   1.918   3.304
   73c3c    H18  671   1.862   1.872   3.162
   74c3c      N  672   0.900   1.814   2.144
   74c3c     C1  673   0.807   1.775   2.037
   74c3c     C2  674   1.038   1.786   2.101
   74c3c     C3  675   0.885   1.719   1.919
   74c3c     C4  676   1.036   1.726   1.960
   74c3c     C5  677   0.886   1.957   2.172
   74c3c     C6  678   0.871   1.737   2.266
   74c3c     H1  679   0.749   1.862   2.006
   74c3c     H2  680   0.738   1.699   2.075
   74c3c     H3  681   1.095   1.879   2.100
   74c3c     H4  682   1.084   1.715   2.170
   74c3c     H5  683   0.866   1.778   1.829
   74c3c     H6  684   0.855   1.616   1.898
   74c3c     H7  685   1.092   1.789   1.891
   74c3c     H8  686   1.081   1.627   1.960
   74c3c     H9  687   0.783   1.978   2.204
   74c3c    H10  688   0.955   1.986   2.251
   74c3c    H11  689   0.908   2.014   2.082
   74c3c    H12  690   0.940   1.766   2.345
   74c3c    H13  691   0.768   1.757   2.298
   74c3c     C7  692   0.886   1.587   2.237
   74c3c    H14  693   0.988   1.567   2.205
   74c3c    H15  694   0.816   1.558   2.158
   74c3c     C8  695   0.855   1.507   2.364
   74c3c    H16  696   0.753   1.528   2.396
   74c3c    H17  697   0.924   1.536   2.443
   74c3c    H18  698   0.866   1.401   2.343
   75c3c      N  699   2.433   0.796   2.807
   75c3c     C1  700   2.394   0.934   2.840
   75c3c     C2  701   2.527   0.746   2.908
   75c3c     C3  702   2.465   0.977   2.969
   75c3c     C4  703   2.552   0.854   3.013
   75c3c     C5  704   2.313   0.711   2.804
   75c3c     C6  705   2.497   0.794   2.674
   75c3c     H1  706   2.286   0.939   2.855
   75c3c     H2  707   2.423   1.001   2.759
   75c3c     H3  708   2.485   0.657   2.956
   75c3c     H4  709   2.621   0.719   2.860
   75c3c     H5  710   2.393   1.003   3.046
   75c3c     H6  711   2.528   1.064   2.951
   75c3c     H7  712   2.522   0.819   3.112
   75c3c     H8  713   2.658   0.880   3.016
   75c3c     H9  714   2.243   0.748   2.729
   75c3c    H10  715   2.342   0.609   2.779
   75c3c    H11  716   2.265   0.712   2.902
   75c3c    H12  717   2.526   0.692   2.649
   75c3c    H13  718   2.428   0.832   2.599
   75c3c     C7  719   2.622   0.883   2.677
   75c3c    H14  720   2.692   0.845   2.752
   75c3c    H15  721   2.593   0.985   2.702
   75c3c     C8  722   2.689   0.881   2.540
   75c3c    H16  723   2.619   0.918   2.465
   75c3c    H17  724   2.717   0.779   2.515
   75c3c    H18  725   2.778   0.944   2.541
   76c3c      N  726   2.440   2.081   2.651
   76c3c     C1  727   2.463   1.994   2.767
   76c3c     C2  728   2.479   2.010   2.528
   76c3c     C3  729   2.519   1.860   2.721
   76c3c     C4  730   2.529   1.870   2.564
   76c3c     C5  731   2.297   2.117   2.643
   76c3c     C6  732   2.521   2.203   2.664
   76c3c     H1  733   2.368   1.978   2.819
   76c3c     H2  734   2.533   2.042   2.835
   76c3c     H3  735   2.393   2.001   2.462
   76c3c     H4  736   2.558   2.065   2.478
   76c3c     H5  737   2.453   1.778   2.750
   76c3c     H6  738   2.617   1.842   2.765
   76c3c     H7  739   2.469   1.793   2.516
   76c3c     H8  740   2.633   1.857   2.532
   76c3c     H9  741   2.268   2.170   2.734
   76c3c    H10  742   2.281   2.181   2.557
   76c3c    H11  743   2.237   2.027   2.633
   76c3c    H12  744   2.504   2.268   2.578
   76c3c    H13  745   2.492   2.256   2.755
   76c3c     C7  746   2.669   2.166   2.672
   76c3c    H14  747   2.698   2.113   2.581
   76c3c    H15  748   2.686   2.102   2.758
   76c3c     C8  749   2.753   2.293   2.686
   76c3c    H16  750   2.724   2.346   2.776
   76c3c    H17  751   2.736   2.358   2.599
   76c3c    H18  752   2.858   2.267   2.691
   77c3c      N  753   2.217   1.648   2.111
   77c3c     C1  754   2.083   1.707   2.121
   77c3c     C2  755   2.314   1.732   2.183
   77c3c     C3  756   2.091   1.837   2.202
   77c3c     C4  757   2.241   1.853   2.243
   77c3c     C5  758   2.216   1.513   2.171
   77c3c     C6  759   2.257   1.638   1.970
   77c3c     H1  760   2.016   1.637   2.170
   77c3c     H2  761   2.046   1.730   2.020
   77c3c     H3  762   2.361   1.674   2.263
   77c3c     H4  763   2.391   1.767   2.114
   77c3c     H5  764   2.027   1.830   2.290
   77c3c     H6  765   2.057   1.922   2.143
   77c3c     H7  766   2.252   1.854   2.351
   77c3c     H8  767   2.283   1.946   2.204
   77c3c     H9  768   2.144   1.451   2.117
   77c3c    H10  769   2.315   1.469   2.164
   77c3c    H11  770   2.187   1.521   2.276
   77c3c    H12  771   2.356   1.594   1.962
   77c3c    H13  772   2.185   1.576   1.916
   77c3c     C7  773   2.259   1.778   1.907
   77c3c    H14  774   2.330   1.840   1.961
   77c3c    H15  775   2.159   1.822   1.914
   77c3c     C8  776   2.300   1.768   1.760
   77c3c    H16  777   2.228   1.705   1.707
   77c3c    H17  778   2.399   1.724   1.753
   77c3c    H18  779   2.301   1.867   1.716
   78c3c      N  780   2.628   0.988   1.005
   78c3c     C1  781   2.487   0.965   1.038
   78c3c     C2  782   2.679   0.874   0.927
   78c3c     C3  783   2.442   0.831   0.981
   78c3c     C4  784   2.568   0.771   0.908
   78c3c     C5  785   2.640   1.111   0.925
   78c3c     C6  786   2.707   1.002   1.128
   78c3c     H1  787   2.426   1.045   0.996
   78c3c     H2  788   2.475   0.964   1.147
   78c3c     H3  789   2.713   0.909   0.829
   78c3c     H4  790   2.763   0.828   0.980
   78c3c     H5  791   2.359   0.844   0.911
   78c3c     H6  792   2.408   0.764   1.061
   78c3c     H7  793   2.547   0.756   0.802
   78c3c     H8  794   2.596   0.675   0.951
   78c3c     H9  795   2.602   1.196   0.983
   78c3c    H10  796   2.745   1.128   0.900
   78c3c    H11  797   2.582   1.101   0.833
   78c3c    H12  798   2.811   1.019   1.103
   78c3c    H13  799   2.669   1.086   1.186
   78c3c     C7  800   2.695   0.874   1.211
   78c3c    H14  801   2.732   0.790   1.153
   78c3c    H15  802   2.590   0.857   1.236
   78c3c     C8  803   2.776   0.888   1.339
   78c3c    H16  804   2.739   0.973   1.397
   78c3c    H17  805   2.881   0.906   1.314
   78c3c    H18  806   2.768   0.797   1.398
   79c3c      N  807   1.897   1.266   2.405
   79c3c     C1  808   1.756   1.308   2.405
   79c3c     C2  809   1.907   1.131   2.348
   79c3c     C3  810   1.669   1.198   2.345
   79c3c     C4  811   1.768   1.081   2.308
   79c3c     C5  812   1.977   1.359   2.325
   79c3c     C6  813   1.948   1.264   2.543
   79c3c     H1  814   1.746   1.399   2.345
   79c3c     H2  815   1.724   1.328   2.507
   79c3c     H3  816   1.971   1.133   2.260
   79c3c     H4  817   1.950   1.063   2.421
   79c3c     H5  818   1.616   1.234   2.257
   79c3c     H6  819   1.595   1.164   2.418
   79c3c     H7  820   1.764   1.060   2.201
   79c3c     H8  821   1.742   0.990   2.362
   79c3c     H9  822   1.969   1.459   2.367
   79c3c    H10  823   2.081   1.328   2.325
   79c3c    H11  824   1.939   1.360   2.222
   79c3c    H12  825   2.052   1.232   2.543
   79c3c    H13  826   1.940   1.364   2.586
   79c3c     C7  827   1.865   1.166   2.627
   79c3c    H14  828   1.872   1.066   2.584
   79c3c    H15  829   1.761   1.198   2.627
   79c3c     C8  830   1.918   1.165   2.770
   79c3c    H16  831   1.910   1.265   2.813
   79c3c    H17  832   2.022   1.133   2.770
   79c3c    H18  833   1.859   1.095   2.830
   80c3c      N  834   0.538   1.646   0.874
   80c3c     C1  835   0.454   1.761   0.911
   80c3c     C2  836   0.454   1.542   0.813
   80c3c     C3  837   0.309   1.732   0.874
   80c3c     C4  838   0.308   1.589   0.810
   80c3c     C5  839   0.640   1.689   0.777
   80c3c     C6  840   0.604   1.592   0.993
   80c3c     H1  841   0.489   1.850   0.858
   80c3c     H2  842   0.462   1.778   1.019
   80c3c     H3  843   0.488   1.522   0.711
   80c3c     H4  844   0.461   1.450   0.872
   80c3c     H5  845   0.272   1.807   0.804
   80c3c     H6  846   0.245   1.735   0.963
   80c3c     H7  847   0.271   1.593   0.708
   80c3c     H8  848   0.244   1.521   0.867
   80c3c     H9  849   0.703   1.766   0.822
   80c3c    H10  850   0.702   1.603   0.749
   80c3c    H11  851   0.591   1.729   0.688
   80c3c    H12  852   0.666   1.506   0.966
   80c3c    H13  853   0.666   1.669   1.039
   80c3c     C7  854   0.498   1.547   1.094
   80c3c    H14  855   0.435   1.470   1.049
   80c3c    H15  856   0.436   1.632   1.122
   80c3c     C8  857   0.566   1.490   1.219
   80c3c    H16  858   0.629   1.567   1.264
   80c3c    H17  859   0.628   1.405   1.191
   80c3c    H18  860   0.491   1.459   1.291
   81c3c      N  861   1.327   0.715   1.882
   81c3c     C1  862   1.379   0.842   1.828
   81c3c     C2  863   1.426   0.609   1.862
   81c3c     C3  864   1.519   0.818   1.770
   81c3c     C4  865   1.549   0.666   1.793
   81c3c     C5  866   1.299   0.731   2.025
   81c3c     C6  867   1.202   0.680   1.811
   81c3c     H1  868   1.385   0.916   1.908
   81c3c     H2  869   1.313   0.878   1.749
   81c3c     H3  870   1.455   0.567   1.959
   81c3c     H4  871   1.383   0.530   1.800
   81c3c     H5  872   1.592   0.881   1.821
   81c3c     H6  873   1.521   0.843   1.664
   81c3c     H7  874   1.638   0.653   1.855
   81c3c     H8  875   1.567   0.616   1.697
   81c3c     H9  876   1.225   0.810   2.040
   81c3c    H10  877   1.260   0.637   2.065
   81c3c    H11  878   1.391   0.757   2.077
   81c3c    H12  879   1.163   0.586   1.851
   81c3c    H13  880   1.129   0.759   1.826
   81c3c     C7  881   1.231   0.664   1.662
   81c3c    H14  882   1.304   0.585   1.648
   81c3c    H15  883   1.270   0.757   1.622
   81c3c     C8  884   1.102   0.627   1.589
   81c3c    H16  885   1.028   0.706   1.604
   81c3c    H17  886   1.063   0.533   1.629
   81c3c    H18  887   1.122   0.615   1.483
   82c3c      N  888   0.323   1.104   1.284
   82c3c     C1  889   0.224   1.000   1.253
   82c3c     C2  890   0.457   1.042   1.292
   82c3c     C3  891   0.293   0.864   1.241
   82c3c     C4  892   0.446   0.892   1.266
   82c3c     C5  893   0.323   1.205   1.177
   82c3c     C6  894   0.291   1.167   1.412
   82c3c     H1  895   0.174   1.024   1.160
   82c3c     H2  896   0.150   0.996   1.334
   82c3c     H3  897   0.522   1.087   1.217
   82c3c     H4  898   0.499   1.059   1.391
   82c3c     H5  899   0.278   0.822   1.142
   82c3c     H6  900   0.254   0.794   1.315
   82c3c     H7  901   0.505   0.863   1.180
   82c3c     H8  902   0.482   0.836   1.352
   82c3c     H9  903   0.224   1.250   1.171
   82c3c    H10  904   0.396   1.282   1.200
   82c3c    H11  905   0.347   1.158   1.082
   82c3c    H12  906   0.364   1.244   1.435
   82c3c    H13  907   0.192   1.212   1.406
   82c3c     C7  908   0.292   1.062   1.523
   82c3c    H14  909   0.391   1.016   1.529
   82c3c    H15  910   0.218   0.985   1.501
   82c3c     C8  911   0.258   1.128   1.657
   82c3c    H16  912   0.159   1.173   1.651
   82c3c    H17  913   0.331   1.205   1.679
   82c3c    H18  914   0.258   1.053   1.736
   83c3c      N  915   3.072   0.787   2.037
   83c3c     C1  916   3.211   0.741   2.036
   83c3c     C2  917   2.995   0.715   1.935
   83c3c     C3  918   3.229   0.634   1.928
   83c3c     C4  919   3.087   0.618   1.861
   83c3c     C5  920   3.013   0.761   2.170
   83c3c     C6  921   3.068   0.932   2.010
   83c3c     H1  922   3.237   0.699   2.133
   83c3c     H2  923   3.277   0.825   2.014
   83c3c     H3  924   2.914   0.660   1.982
   83c3c     H4  925   2.954   0.787   1.863
   83c3c     H5  926   3.262   0.540   1.971
   83c3c     H6  927   3.302   0.666   1.854
   83c3c     H7  928   3.051   0.515   1.873
   83c3c     H8  929   3.091   0.641   1.755
   83c3c     H9  930   3.070   0.814   2.246
   83c3c    H10  931   2.910   0.795   2.171
   83c3c    H11  932   3.016   0.654   2.190
   83c3c    H12  933   2.964   0.966   2.011
   83c3c    H13  934   3.125   0.985   2.086
   83c3c     C7  935   3.128   0.959   1.872
   83c3c    H14  936   3.072   0.906   1.796
   83c3c    H15  937   3.232   0.925   1.871
   83c3c     C8  938   3.124   1.109   1.843
   83c3c    H16  939   3.181   1.163   1.919
   83c3c    H17  940   3.020   1.143   1.845
   83c3c    H18  941   3.167   1.129   1.745
   84c3c      N  942   1.177   1.459   2.810
   84c3c     C1  943   1.257   1.543   2.720
   84c3c     C2  944   1.154   1.327   2.748
   84c3c     C3  945   1.289   1.464   2.592
   84c3c     C4  946   1.221   1.324   2.611
   84c3c     C5  947   1.249   1.440   2.937
   84c3c     C6  948   1.048   1.524   2.836
   84c3c     H1  949   1.350   1.571   2.770
   84c3c     H2  950   1.201   1.632   2.694
   84c3c     H3  951   1.196   1.249   2.811
   84c3c     H4  952   1.047   1.311   2.736
   84c3c     H5  953   1.397   1.454   2.579
   84c3c     H6  954   1.249   1.515   2.505
   84c3c     H7  955   1.296   1.244   2.607
   84c3c     H8  956   1.148   1.305   2.532
   84c3c     H9  957   1.266   1.538   2.984
   84c3c    H10  958   1.189   1.378   3.004
   84c3c    H11  959   1.344   1.392   2.918
   84c3c    H12  960   0.988   1.462   2.903
   84c3c    H13  961   1.064   1.621   2.882
   84c3c     C7  962   0.973   1.543   2.704
   84c3c    H14  963   0.956   1.446   2.658
   84c3c    H15  964   1.032   1.605   2.637
   84c3c     C8  965   0.838   1.611   2.731
   84c3c    H16  966   0.855   1.708   2.777
   84c3c    H17  967   0.779   1.548   2.797
   84c3c    H18  968   0.785   1.624   2.636
   85c3c      N  969   1.211   0.559   2.530
   85c3c     C1  970   1.333   0.544   2.611
   85c3c     C2  971   1.246   0.617   2.399
   85c3c     C3  972   1.454   0.595   2.532
   85c3c     C4  973   1.397   0.643   2.394
   85c3c     C5  974   1.150   0.426   2.509
   85c3c     C6  975   1.116   0.646   2.599
   85c3c     H1  976   1.348   0.439   2.636
   85c3c     H2  977   1.322   0.602   2.703
   85c3c     H3  978   1.218   0.548   2.320
   85c3c     H4  979   1.193   0.711   2.386
   85c3c     H5  980   1.527   0.516   2.519
   85c3c     H6  981   1.502   0.678   2.585
   85c3c     H7  982   1.442   0.587   2.312
   85c3c     H8  983   1.417   0.749   2.378
   85c3c     H9  984   1.124   0.383   2.605
   85c3c    H10  985   1.060   0.437   2.448
   85c3c    H11  986   1.221   0.361   2.457
   85c3c    H12  987   1.026   0.657   2.538
   85c3c    H13  988   1.090   0.603   2.695
   85c3c     C7  989   1.179   0.784   2.620
   85c3c    H14  990   1.205   0.827   2.523
   85c3c    H15  991   1.269   0.774   2.681
   85c3c     C8  992   1.080   0.875   2.692
   85c3c    H16  993   1.054   0.832   2.789
   85c3c    H17  994   0.989   0.886   2.632
   85c3c    H18  995   1.125   0.973   2.707
   86c3c      N  996   2.619   1.391   1.621
   86c3c     C1  997   2.745   1.468   1.617
   86c3c     C2  998   2.650   1.248   1.632
   86c3c     C3  999   2.864   1.372   1.625
   86c3c     C4 1000   2.801   1.228   1.635
   86c3c     C5 1001   2.540   1.433   1.738
   86c3c     C6 1002   2.543   1.416   1.498
   86c3c     H1 1003   2.748   1.537   1.701
   86c3c     H2 1004   2.750   1.524   1.524
   86c3c     H3 1005   2.606   1.208   1.724
   86c3c     H4 1006   2.608   1.195   1.546
   86c3c     H5 1007   2.925   1.393   1.713
   86c3c     H6 1008   2.927   1.381   1.537
   86c3c     H7 1009   2.832   1.179   1.727
   86c3c     H8 1010   2.834   1.166   1.551
   86c3c     H9 1011   2.517   1.539   1.730
   86c3c    H10 1012   2.447   1.376   1.741
   86c3c    H11 1013   2.597   1.415   1.829
   86c3c    H12 1014   2.449   1.359   1.501
   86c3c    H13 1015   2.520   1.522   1.490
   86c3c     C7 1016   2.625   1.372   1.377
   86c3c    H14 1017   2.647   1.265   1.385
   86c3c    H15 1018   2.718   1.429   1.374
   86c3c     C8 1019   2.545   1.397   1.249
   86c3c    H16 1020   2.522   1.504   1.241
   86c3c    H17 1021   2.452   1.341   1.252
   86c3c    H18 1022   2.603   1.366   1.163
   87c3c      N 1023   2.458   3.005   0.872
   87c3c     C1 1024   2.564   3.106   0.879
   87c3c     C2 1025   2.471   2.928   0.747
   87c3c     C3 1026   2.652   3.097   0.754
   87c3c     C4 1027   2.591   2.981   0.668
   87c3c     C5 1028   2.469   2.914   0.986
   87c3c     C6 1029   2.326   3.071   0.874
   87c3c     H1 1030   2.625   3.089   0.967
   87c3c     H2 1031   2.519   3.206   0.884
   87c3c     H3 1032   2.486   2.823   0.770
   87c3c     H4 1033   2.381   2.940   0.687
   87c3c     H5 1034   2.755   3.076   0.781
   87c3c     H6 1035   2.650   3.191   0.699
   87c3c     H7 1036   2.665   2.902   0.652
   87c3c     H8 1037   2.560   3.017   0.570
   87c3c     H9 1038   2.459   2.970   1.079
   87c3c    H10 1039   2.390   2.839   0.981
   87c3c    H11 1040   2.566   2.865   0.984
   87c3c    H12 1041   2.247   2.996   0.869
   87c3c    H13 1042   2.316   3.128   0.967
   87c3c     C7 1043   2.314   3.166   0.755
   87c3c    H14 1044   2.324   3.109   0.662
   87c3c    H15 1045   2.393   3.241   0.760
   87c3c     C8 1046   2.178   3.234   0.758
   87c3c    H16 1047   2.168   3.291   0.850
   87c3c    H17 1048   2.099   3.159   0.752
   87c3c    H18 1049   2.169   3.302   0.673
   88c3c      N 1050   0.344   1.720   0.329
   88c3c     C1 1051   0.290   1.677   0.459
   88c3c     C2 1052   0.346   1.606   0.237
   88c3c     C3 1053   0.256   1.528   0.454
   88c3c     C4 1054   0.292   1.482   0.308
   88c3c     C5 1055   0.258   1.826   0.273
   88c3c     C6 1056   0.480   1.772   0.347
   88c3c     H1 1057   0.200   1.735   0.482
   88c3c     H2 1058   0.365   1.694   0.537
   88c3c     H3 1059   0.284   1.628   0.150
   88c3c     H4 1060   0.449   1.587   0.204
   88c3c     H5 1061   0.150   1.513   0.474
   88c3c     H6 1062   0.313   1.473   0.528
   88c3c     H7 1063   0.205   1.443   0.257
   88c3c     H8 1064   0.368   1.403   0.311
   88c3c     H9 1065   0.256   1.911   0.342
   88c3c    H10 1066   0.298   1.858   0.177
   88c3c    H11 1067   0.157   1.788   0.260
   88c3c    H12 1068   0.520   1.804   0.250
   88c3c    H13 1069   0.478   1.857   0.415
   88c3c     C7 1070   0.569   1.662   0.405
   88c3c    H14 1071   0.571   1.577   0.336
   88c3c    H15 1072   0.530   1.630   0.501
   88c3c     C8 1073   0.711   1.716   0.423
   88c3c    H16 1074   0.710   1.801   0.491
   88c3c    H17 1075   0.751   1.748   0.326
   88c3c    H18 1076   0.775   1.638   0.464
   89c3c      N 1077   1.865   2.609   1.680
   89c3c     C1 1078   1.857   2.628   1.825
   89c3c     C2 1079   1.920   2.731   1.617
   89c3c     C3 1080   1.908   2.768   1.862
   89c3c     C4 1081   1.949   2.835   1.725
   89c3c     C5 1082   1.954   2.495   1.650
   89c3c     C6 1083   1.731   2.582   1.626
   89c3c     H1 1084   1.918   2.553   1.876
   89c3c     H2 1085   1.753   2.618   1.857
   89c3c     H3 1086   2.012   2.707   1.565
   89c3c     H4 1087   1.847   2.771   1.547
   89c3c     H5 1088   1.993   2.762   1.929
   89c3c     H6 1089   1.829   2.826   1.911
   89c3c     H7 1090   2.055   2.862   1.726
   89c3c     H8 1091   1.891   2.926   1.708
   89c3c     H9 1092   1.913   2.405   1.696
   89c3c    H10 1093   1.960   2.481   1.543
   89c3c    H11 1094   2.053   2.515   1.690
   89c3c    H12 1095   1.738   2.568   1.518
   89c3c    H13 1096   1.691   2.493   1.672
   89c3c     C7 1097   1.639   2.701   1.656
   89c3c    H14 1098   1.680   2.791   1.610
   89c3c    H15 1099   1.633   2.715   1.764
   89c3c     C8 1100   1.500   2.673   1.600
   89c3c    H16 1101   1.459   2.583   1.646
   89c3c    H17 1102   1.506   2.659   1.492
   89c3c    H18 1103   1.434   2.757   1.622
   90c3c      N 1104   1.677   1.666   2.961
   90c3c     C1 1105   1.644   1.585   2.842
   90c3c     C2 1106   1.809   1.627   3.012
   90c3c     C3 1107   1.760   1.489   2.813
   90c3c     C4 1108   1.868   1.517   2.924
   90c3c     C5 1109   1.678   1.808   2.924
   90c3c     C6 1110   1.575   1.643   3.065
   90c3c     H1 1111   1.629   1.650   2.756
   90c3c     H2 1112   1.554   1.527   2.861
   90c3c     H3 1113   1.875   1.714   3.010
   90c3c     H4 1114   1.800   1.591   3.114
   90c3c     H5 1115   1.801   1.507   2.714
   90c3c     H6 1116   1.726   1.385   2.817
   90c3c     H7 1117   1.962   1.549   2.879
   90c3c     H8 1118   1.887   1.427   2.983
   90c3c     H9 1119   1.579   1.837   2.886
   90c3c    H10 1120   1.701   1.868   3.012
   90c3c    H11 1121   1.753   1.825   2.847
   90c3c    H12 1122   1.599   1.703   3.153
   90c3c    H13 1123   1.477   1.671   3.027
   90c3c     C7 1124   1.574   1.495   3.103
   90c3c    H14 1125   1.673   1.466   3.141
   90c3c    H15 1126   1.551   1.434   3.016
   90c3c     C8 1127   1.469   1.470   3.212
   90c3c    H16 1128   1.371   1.499   3.174
   90c3c    H17 1129   1.493   1.531   3.299
   90c3c    H18 1130   1.469   1.365   3.239
   91c3c      N 1131   1.181   1.950   1.589
   91c3c     C1 1132   1.208   2.049   1.483
   91c3c     C2 1133   1.211   1.815   1.538
   91c3c     C3 1134   1.258   1.978   1.358
   91c3c     C4 1135   1.260   1.825   1.393
   91c3c     C5 1136   1.265   1.978   1.706
   91c3c     C6 1137   1.039   1.957   1.628
   91c3c     H1 1138   1.284   2.119   1.518
   91c3c     H2 1139   1.116   2.103   1.460
   91c3c     H3 1140   1.289   1.770   1.599
   91c3c     H4 1141   1.121   1.754   1.542
   91c3c     H5 1142   1.357   2.013   1.331
   91c3c     H6 1143   1.191   1.997   1.273
   91c3c     H7 1144   1.361   1.785   1.384
   91c3c     H8 1145   1.195   1.769   1.327
   91c3c     H9 1146   1.243   2.078   1.743
   91c3c    H10 1147   1.246   1.905   1.783
   91c3c    H11 1148   1.370   1.973   1.677
   91c3c    H12 1149   1.020   1.883   1.706
   91c3c    H13 1150   1.017   2.056   1.665
   91c3c     C7 1151   0.951   1.927   1.506
   91c3c    H14 1152   0.974   1.827   1.469
   91c3c    H15 1153   0.971   2.000   1.428
   91c3c     C8 1154   0.804   1.934   1.547
   91c3c    H16 1155   0.781   2.034   1.584
   91c3c    H17 1156   0.784   1.861   1.625
   91c3c    H18 1157   0.741   1.913   1.460
   92c3c      N 1158   0.347   2.492   0.960
   92c3c     C1 1159   0.251   2.597   0.924
   92c3c     C2 1160   0.437   2.541   1.066
   92c3c     C3 1161   0.278   2.722   1.008
   92c3c     C4 1162   0.400   2.685   1.101
   92c3c     C5 1163   0.274   2.374   1.010
   92c3c     C6 1164   0.426   2.454   0.842
   92c3c     H1 1165   0.149   2.562   0.943
   92c3c     H2 1166   0.262   2.622   0.818
   92c3c     H3 1167   0.427   2.478   1.154
   92c3c     H4 1168   0.540   2.538   1.030
   92c3c     H5 1169   0.191   2.748   1.068
   92c3c     H6 1170   0.302   2.807   0.945
   92c3c     H7 1171   0.372   2.693   1.206
   92c3c     H8 1172   0.484   2.752   1.083
   92c3c     H9 1173   0.207   2.337   0.932
   92c3c    H10 1174   0.345   2.296   1.036
   92c3c    H11 1175   0.215   2.401   1.097
   92c3c    H12 1176   0.497   2.376   0.869
   92c3c    H13 1177   0.359   2.418   0.764
   92c3c     C7 1178   0.502   2.577   0.790
   92c3c    H14 1179   0.569   2.614   0.868
   92c3c    H15 1180   0.431   2.655   0.764
   92c3c     C8 1181   0.584   2.538   0.668
   92c3c    H16 1182   0.517   2.501   0.589
   92c3c    H17 1183   0.655   2.460   0.694
   92c3c    H18 1184   0.638   2.625   0.631
   93c3c      N 1185   1.898   0.361   2.390
   93c3c     C1 1186   2.016   0.442   2.355
   93c3c     C2 1187   1.906   0.231   2.321
   93c3c     C3 1188   2.106   0.363   2.260
   93c3c     C4 1189   2.034   0.225   2.238
   93c3c     C5 1190   1.894   0.340   2.535
   93c3c     C6 1191   1.776   0.431   2.347
   93c3c     H1 1192   2.071   0.466   2.446
   93c3c     H2 1193   1.984   0.534   2.306
   93c3c     H3 1194   1.907   0.151   2.395
   93c3c     H4 1195   1.820   0.218   2.256
   93c3c     H5 1196   2.205   0.349   2.304
   93c3c     H6 1197   2.118   0.416   2.166
   93c3c     H7 1198   2.098   0.142   2.271
   93c3c     H8 1199   2.011   0.210   2.133
   93c3c     H9 1200   1.888   0.436   2.586
   93c3c    H10 1201   1.806   0.279   2.560
   93c3c    H11 1202   1.984   0.288   2.567
   93c3c    H12 1203   1.689   0.371   2.372
   93c3c    H13 1204   1.770   0.527   2.397
   93c3c     C7 1205   1.780   0.453   2.195
   93c3c    H14 1206   1.786   0.356   2.145
   93c3c    H15 1207   1.867   0.513   2.170
   93c3c     C8 1208   1.653   0.526   2.151
   93c3c    H16 1209   1.647   0.622   2.201
   93c3c    H17 1210   1.566   0.465   2.177
   93c3c    H18 1211   1.656   0.541   2.043
   94c3c      N 1212   1.174   1.468   0.357
   94c3c     C1 1213   1.224   1.330   0.362
   94c3c     C2 1214   1.281   1.561   0.394
   94c3c     C3 1215   1.371   1.331   0.404
   94c3c     C4 1216   1.408   1.483   0.425
   94c3c     C5 1217   1.128   1.499   0.221
   94c3c     C6 1218   1.061   1.483   0.451
   94c3c     H1 1219   1.215   1.285   0.263
   94c3c     H2 1220   1.166   1.273   0.434
   94c3c     H3 1221   1.300   1.630   0.312
   94c3c     H4 1222   1.251   1.618   0.482
   94c3c     H5 1223   1.434   1.287   0.327
   94c3c     H6 1224   1.385   1.275   0.496
   94c3c     H7 1225   1.489   1.512   0.359
   94c3c     H8 1226   1.441   1.501   0.528
   94c3c     H9 1227   1.048   1.430   0.193
   94c3c    H10 1228   1.090   1.601   0.217
   94c3c    H11 1229   1.211   1.488   0.151
   94c3c    H12 1230   1.024   1.585   0.447
   94c3c    H13 1231   0.982   1.414   0.423
   94c3c     C7 1232   1.109   1.451   0.593
   94c3c    H14 1233   1.189   1.520   0.620
   94c3c    H15 1234   1.147   1.349   0.596
   94c3c     C8 1235   0.993   1.466   0.690
   94c3c    H16 1236   0.913   1.397   0.663
   94c3c    H17 1237   0.955   1.569   0.687
   94c3c    H18 1238   1.027   1.444   0.791
   95c3c      N 1239   1.085   2.156   2.632
   95c3c     C1 1240   0.971   2.146   2.540
   95c3c     C2 1241   1.079   2.046   2.730
   95c3c     C3 1242   0.885   2.024   2.578
   95c3c     C4 1243   0.956   1.959   2.702
   95c3c     C5 1244   1.210   2.147   2.556
   95c3c     C6 1245   1.080   2.284   2.704
   95c3c     H1 1246   1.007   2.134   2.438
   95c3c     H2 1247   0.910   2.236   2.548
   95c3c     H3 1248   1.169   1.985   2.722
   95c3c     H4 1249   1.072   2.087   2.831
   95c3c     H5 1250   0.880   1.954   2.495
   95c3c     H6 1251   0.784   2.055   2.603
   95c3c     H7 1252   0.986   1.856   2.680
   95c3c     H8 1253   0.890   1.957   2.789
   95c3c     H9 1254   1.215   2.228   2.484
   95c3c    H10 1255   1.295   2.154   2.624
   95c3c    H11 1256   1.214   2.052   2.504
   95c3c    H12 1257   1.164   2.292   2.772
   95c3c    H13 1258   1.084   2.366   2.631
   95c3c     C7 1259   0.949   2.293   2.783
   95c3c    H14 1260   0.945   2.212   2.855
   95c3c    H15 1261   0.864   2.286   2.715
   95c3c     C8 1262   0.944   2.427   2.857
   95c3c    H16 1263   0.948   2.509   2.785
   95c3c    H17 1264   1.029   2.435   2.925
   95c3c    H18 1265   0.851   2.434   2.914
   96c3c      N 1266   0.291   1.578   1.933
   96c3c     C1 1267   0.435   1.608   1.932
   96c3c     C2 1268   0.214   1.704   1.933
   96c3c     C3 1269   0.455   1.759   1.932
   96c3c     C4 1270   0.311   1.822   1.933
   96c3c     C5 1271   0.257   1.500   1.812
   96c3c     C6 1272   0.257   1.500   2.053
   96c3c     H1 1273   0.481   1.565   1.843
   96c3c     H2 1274   0.481   1.565   2.021
   96c3c     H3 1275   0.151   1.708   1.844
   96c3c     H4 1276   0.152   1.708   2.022
   96c3c     H5 1277   0.511   1.791   1.844
   96c3c     H6 1278   0.511   1.791   2.021
   96c3c     H7 1279   0.296   1.884   1.844
   96c3c     H8 1280   0.296   1.884   2.021
   96c3c     H9 1281   0.313   1.407   1.812
   96c3c    H10 1282   0.150   1.478   1.812
   96c3c    H11 1283   0.282   1.558   1.723
   96c3c    H12 1284   0.150   1.477   2.053
   96c3c    H13 1285   0.313   1.407   2.053
   96c3c     C7 1286   0.292   1.581   2.178
   96c3c    H14 1287   0.235   1.674   2.178
   96c3c    H15 1288   0.399   1.603   2.178
   96c3c     C8 1289   0.257   1.500   2.302
   96c3c    H16 1290   0.313   1.406   2.302
   96c3c    H17 1291   0.150   1.477   2.302
   96c3c    H18 1292   0.282   1.557   2.391
   97c3c      N 1293   2.890   1.133   3.147
   97c3c     C1 1294   3.002   1.105   3.056
   97c3c     C2 1295   2.767   1.156   3.069
   97c3c     C3 1296   2.953   1.112   2.911
   97c3c     C4 1297   2.799   1.145   2.920
   97c3c     C5 1298   2.870   1.017   3.236
   97c3c     C6 1299   2.920   1.251   3.228
   97c3c     H1 1300   3.042   1.006   3.076
   97c3c     H2 1301   3.080   1.180   3.071
   97c3c     H3 1302   2.692   1.082   3.096
   97c3c     H4 1303   2.730   1.256   3.091
   97c3c     H5 1304   2.969   1.016   2.861
   97c3c     H6 1305   3.006   1.189   2.855
   97c3c     H7 1306   2.740   1.066   2.874
   97c3c     H8 1307   2.777   1.238   2.868
   97c3c     H9 1308   2.960   0.999   3.294
   97c3c    H10 1309   2.786   1.037   3.303
   97c3c    H11 1310   2.847   0.929   3.176
   97c3c    H12 1311   2.837   1.271   3.296
   97c3c    H13 1312   3.011   1.234   3.286
   97c3c     C7 1313   2.941   1.372   3.136
   97c3c    H14 1314   2.850   1.390   3.079
   97c3c    H15 1315   3.024   1.352   3.069
   97c3c     C8 1316   2.973   1.495   3.221
   97c3c    H16 1317   3.063   1.478   3.279
   97c3c    H17 1318   2.889   1.515   3.288
   97c3c    H18 1319   2.987   1.581   3.155
   98c3c      N 1320   1.377   1.283   0.894
   98c3c     C1 1321   1.294   1.271   1.015
   98c3c     C2 1322   1.517   1.252   0.926
   98c3c     C3 1323   1.383   1.231   1.133
   98c3c     C4 1324   1.528   1.218   1.075
   98c3c     C5 1325   1.328   1.189   0.792
   98c3c     C6 1326   1.368   1.420   0.842
   98c3c     H1 1327   1.217   1.196   0.999
   98c3c     H2 1328   1.247   1.367   1.036
   98c3c     H3 1329   1.549   1.166   0.867
   98c3c     H4 1330   1.579   1.338   0.904
   98c3c     H5 1331   1.349   1.136   1.175
   98c3c     H6 1332   1.379   1.306   1.212
   98c3c     H7 1333   1.566   1.116   1.089
   98c3c     H8 1334   1.596   1.286   1.125
   98c3c     H9 1335   1.224   1.212   0.768
   98c3c    H10 1336   1.389   1.197   0.702
   98c3c    H11 1337   1.334   1.087   0.830
   98c3c    H12 1338   1.429   1.429   0.752
   98c3c    H13 1339   1.265   1.444   0.817
   98c3c     C7 1340   1.419   1.518   0.947
   98c3c    H14 1341   1.523   1.495   0.971
   98c3c    H15 1342   1.358   1.510   1.037
   98c3c     C8 1343   1.410   1.661   0.893
   98c3c    H16 1344   1.307   1.684   0.869
   98c3c    H17 1345   1.472   1.669   0.803
   98c3c    H18 1346   1.447   1.731   0.969
   99c3c      N 1347   1.763   1.828   1.860
   99c3c     C1 1348   1.750   1.869   1.719
   99c3c     C2 1349   1.633   1.842   1.928
   99c3c     C3 1350   1.605   1.912   1.692
   99c3c     C4 1351   1.529   1.894   1.828
   99c3c     C5 1352   1.807   1.688   1.866
   99c3c     C6 1353   1.862   1.914   1.927
   99c3c     H1 1354   1.776   1.786   1.654
   99c3c     H2 1355   1.816   1.953   1.699
   99c3c     H3 1356   1.602   1.745   1.966
   99c3c     H4 1357   1.642   1.912   2.010
   99c3c     H5 1358   1.561   1.850   1.614
   99c3c     H6 1359   1.601   2.016   1.659
   99c3c     H7 1360   1.447   1.823   1.818
   99c3c     H8 1361   1.487   1.989   1.862
   99c3c     H9 1362   1.903   1.678   1.816
   99c3c    H10 1363   1.817   1.658   1.970
   99c3c    H11 1364   1.733   1.625   1.817
   99c3c    H12 1365   1.872   1.883   2.031
   99c3c    H13 1366   1.958   1.904   1.877
   99c3c     C7 1367   1.816   2.059   1.920
   99c3c    H14 1368   1.720   2.070   1.970
   99c3c    H15 1369   1.806   2.090   1.816
   99c3c     C8 1370   1.920   2.148   1.990
   99c3c    H16 1371   2.016   2.138   1.940
   99c3c    H17 1372   1.930   2.118   2.094
   99c3c    H18 1373   1.887   2.252   1.985
  100c3c      N 1374   0.932   0.327   0.608
  100c3c     C1 1375   1.022   0.211   0.607
  100c3c     C2 1376   1.010   0.451   0.609
  100c3c     C3 1377   1.167   0.260   0.608
  100c3c     C4 1378   1.160   0.417   0.609
  100c3c     C5 1379   0.847   0.324   0.488
  100c3c     C6 1380   0.847   0.322   0.728
  100c3c     H1 1381   1.004   0.152   0.517
  100c3c     H2 1382   1.004   0.150   0.695
  100c3c     H3 1383   0.987   0.510   0.521
  100c3c     H4 1384   0.987   0.509   0.699
  100c3c     H5 1385   1.220   0.225   0.519
  100c3c     H6 1386   1.220   0.223   0.696
  100c3c     H7 1387   1.209   0.459   0.521
  100c3c     H8 1388   1.208   0.457   0.698
  100c3c     H9 1389   0.788   0.232   0.487
  100c3c    H10 1390   0.780   0.410   0.488
  100c3c    H11 1391   0.910   0.328   0.399
  100c3c    H12 1392   0.779   0.407   0.729
  100c3c    H13 1393   0.788   0.230   0.727
  100c3c     C7 1394   0.934   0.325   0.853
  100c3c    H14 1395   0.993   0.417   0.854
  100c3c    H15 1396   1.002   0.239   0.852
  100c3c     C8 1397   0.846   0.319   0.978
  100c3c    H16 1398   0.788   0.228   0.977
  100c3c    H17 1399   0.779   0.405   0.978
  100c3c    H18 1400   0.909   0.322   1.067
  101fsi     F1 1401   2.293   2.820   1.336
  101fsi     S1 1402   2.175   2.762   1.422
  101fsi      N 1403   2.058   2.845   1.380
  101fsi     O1 1404   2.168   2.623   1.383
  101fsi     O2 1405   2.218   2.783   1.559
  101fsi     S2 1406   1.972   2.802   1.265
  101fsi     O3 1407   2.066   2.729   1.182
  101fsi     O4 1408   1.926   2.927   1.211
  101fsi     F2 1409   1.862   2.714   1.335
  102fsi     F1 1410   1.806   0.790   2.902
  102fsi     S1 1411   1.690   0.686   2.883
  102fsi      N 1412   1.763   0.555   2.877
  102fsi     O1 1413   1.608   0.703   3.000
  102fsi     O2 1414   1.627   0.725   2.759
  102fsi     S2 1415   1.789   0.477   3.003
  102fsi     O3 1416   1.800   0.582   3.102
  102fsi     O4 1417   1.912   0.408   2.972
  102fsi     F2 1418   1.662   0.386   3.015
  103fsi     F1 1419   1.099   0.987   1.386
  103fsi     S1 1420   0.995   1.092   1.442
  103fsi      N 1421   1.071   1.221   1.436
  103fsi     O1 1422   0.884   1.083   1.351
  103fsi     O2 1423   0.966   1.045   1.576
  103fsi     S2 1424   1.065   1.306   1.312
  103fsi     O3 1425   1.045   1.208   1.208
  103fsi     O4 1426   1.194   1.370   1.312
  103fsi     F2 1427   0.942   1.400   1.340
  104fsi     F1 1428   0.482   2.171   0.791
  104fsi     S1 1429   0.611   2.197   0.704
  104fsi      N 1430   0.704   2.264   0.802
  104fsi     O1 1431   0.652   2.066   0.661
  104fsi     O2 1432   0.565   2.283   0.597
  104fsi     S2 1433   0.797   2.181   0.885
  104fsi     O3 1434   0.724   2.057   0.900
  104fsi     O4 1435   0.811   2.260   1.005
  104fsi     F2 1436   0.926   2.172   0.795
  105fsi     F1 1437   0.730   2.251   2.927
  105fsi     S1 1438   0.640   2.309   3.043
  105fsi      N 1439   0.718   2.429   3.089
  105fsi     O1 1440   0.515   2.339   2.979
  105fsi     O2 1441   0.633   2.202   3.139
  105fsi     S2 1442   0.693   2.563   3.026
  105fsi     O3 1443   0.653   2.527   2.891
  105fsi     O4 1444   0.822   2.627   3.036
  105fsi     F2 1445   0.580   2.624   3.116
  106fsi     F1 1446   0.537   2.342   2.379
  106fsi     S1 1447   0.669   2.288   2.445
  106fsi      N 1448   0.775   2.325   2.345
  106fsi     O1 1449   0.677   2.358   2.570
  106fsi     O2 1450   0.646   2.146   2.458
  106fsi     S2 1451   0.844   2.458   2.355
  106fsi     O3 1452   0.743   2.542   2.415
  106fsi     O4 1453   0.875   2.488   2.218
  106fsi     F2 1454   0.968   2.426   2.447
  107fsi     F1 1455   1.478   2.482   0.838
  107fsi     S1 1456   1.415   2.625   0.859
  107fsi      N 1457   1.268   2.599   0.842
  107fsi     O1 1458   1.455   2.661   0.993
  107fsi     O2 1459   1.475   2.705   0.756
  107fsi     S2 1460   1.184   2.563   0.961
  107fsi     O3 1461   1.278   2.493   1.046
  107fsi     O4 1462   1.081   2.480   0.903
  107fsi     F2 1463   1.136   2.703   1.015
  108fsi     F1 1464   2.274   0.893   2.205
  108fsi     S1 1465   2.303   0.810   2.074
  108fsi      N 1466   2.366   0.685   2.127
  108fsi     O1 1467   2.173   0.792   2.015
  108fsi     O2 1468   2.391   0.895   1.998
  108fsi     S2 1469   2.281   0.567   2.163
  108fsi     O3 1470   2.157   0.629   2.203
  108fsi     O4 1471   2.356   0.504   2.269
  108fsi     F2 1472   2.274   0.486   2.028
  109fsi     F1 1473   2.965   2.411   1.990
  109fsi     S1 1474   2.957   2.547   2.069
  109fsi      N 1475   3.019   2.645   1.974
  109fsi     O1 1476   2.816   2.565   2.092
  109fsi     O2 1477   3.034   2.522   2.189
  109fsi     S2 1478   2.933   2.717   1.874
  109fsi     O3 1479   2.827   2.622   1.849
  109fsi     O4 1480   3.023   2.739   1.764
  109fsi     F2 1481   2.890   2.847   1.952
  110fsi     F1 1482   0.755   2.889   1.139
  110fsi     S1 1483   0.785   2.980   1.014
  110fsi      N 1484   0.715   3.108   1.047
  110fsi     O1 1485   0.929   2.989   1.012
  110fsi     O2 1486   0.729   2.907   0.903
  110fsi     S2 1487   0.787   3.216   1.122
  110fsi     O3 1488   0.881   3.142   1.203
  110fsi     O4 1489   0.680   3.281   1.195
  110fsi     F2 1490   0.851   3.302   1.007
  111fsi     F1 1491   3.201   1.589   0.793
  111fsi     S1 1492   3.159   1.668   0.923
  111fsi      N 1493   3.012   1.689   0.902
  111fsi     O1 1494   3.192   1.578   1.031
  111fsi     O2 1495   3.238   1.788   0.918
  111fsi     S2 1496   2.913   1.588   0.952
  111fsi     O3 1497   2.988   1.465   0.943
  111fsi     O4 1498   2.804   1.600   0.858
  111fsi     F2 1499   2.882   1.638   1.098
  112fsi     F1 1500   2.041   1.704   0.996
  112fsi     S1 1501   2.005   1.677   0.845
  112fsi      N 1502   2.043   1.533   0.826
  112fsi     O1 1503   1.863   1.703   0.838
  112fsi     O2 1504   2.086   1.771   0.772
  112fsi     S2 1505   1.943   1.425   0.852
  112fsi     O3 1506   1.859   1.483   0.955
  112fsi     O4 1507   2.026   1.315   0.895
  112fsi     F2 1508   1.874   1.406   0.712
  113fsi     F1 1509   2.046   3.058   0.981
  113fsi     S1 1510   1.897   3.053   0.931
  113fsi      N 1511   1.897   2.934   0.839
  113fsi     O1 1512   1.820   3.036   1.052
  113fsi     O2 1513   1.878   3.180   0.866
  113fsi     S2 1514   1.865   2.798   0.892
  113fsi     O3 1515   1.913   2.806   1.028
  113fsi     O4 1516   1.941   2.712   0.805
  113fsi     F2 1517   1.709   2.789   0.876
  114fsi     F1 1518   1.179   1.395   1.751
  114fsi     S1 1519   1.026   1.359   1.757
  114fsi      N 1520   0.959   1.493   1.748
  114fsi     O1 1521   1.005   1.274   1.642
  114fsi     O2 1522   1.010   1.292   1.884
  114fsi     S2 1523   0.923   1.551   1.615
  114fsi     O3 1524   1.024   1.495   1.528
  114fsi     O4 1525   0.933   1.693   1.638
  114fsi     F2 1526   0.777   1.496   1.591
  115fsi     F1 1527   2.059   2.703   0.536
  115fsi     S1 1528   2.174   2.808   0.511
  115fsi      N 1529   2.169   2.829   0.363
  115fsi     O1 1530   2.135   2.922   0.590
  115fsi     O2 1531   2.293   2.741   0.558
  115fsi     S2 1532   2.082   2.937   0.306
  115fsi     O3 1533   1.974   2.944   0.402
  115fsi     O4 1534   2.046   2.884   0.176
  115fsi     F2 1535   2.177   3.062   0.303
  116fsi     F1 1536   2.810   2.406   2.973
  116fsi     S1 1537   2.959   2.456   2.990
  116fsi      N 1538   2.941   2.601   3.027
  116fsi     O1 1539   3.012   2.373   3.096
  116fsi     O2 1540   3.019   2.434   2.861
  116fsi     S2 1541   2.929   2.640   3.171
  116fsi     O3 1542   2.867   2.524   3.231
  116fsi     O4 1543   2.846   2.758   3.164
  116fsi     F2 1544   3.079   2.666   3.213
  117fsi     F1 1545   2.234   0.213   0.863
  117fsi     S1 1546   2.256   0.296   0.732
  117fsi      N 1547   2.251   0.438   0.780
  117fsi     O1 1548   2.385   0.253   0.684
  117fsi     O2 1549   2.145   0.258   0.647
  117fsi     S2 1550   2.378   0.506   0.825
  117fsi     O3 1551   2.457   0.396   0.875
  117fsi     O4 1552   2.330   0.598   0.925
  117fsi     F2 1553   2.431   0.572   0.692
  118fsi     F1 1554   2.164   0.926   3.088
  118fsi     S1 1555   2.084   0.800   3.137
  118fsi      N 1556   2.180   0.687   3.114
  118fsi     O1 1557   2.056   0.828   3.276
  118fsi     O2 1558   1.967   0.798   3.053
  118fsi     S2 1559   2.276   0.647   3.221
  118fsi     O3 1560   2.299   0.771   3.292
  118fsi     O4 1561   2.389   0.597   3.146
  118fsi     F2 1562   2.196   0.538   3.302
  119fsi     F1 1563   1.895   0.206   0.519
  119fsi     S1 1564   1.783   0.301   0.575
  119fsi      N 1565   1.856   0.381   0.679
  119fsi     O1 1566   1.741   0.377   0.460
  119fsi     O2 1567   1.683   0.211   0.627
  119fsi     S2 1568   1.924   0.509   0.642
  119fsi     O3 1569   1.961   0.487   0.505
  119fsi     O4 1570   2.034   0.515   0.735
  119fsi     F2 1571   1.811   0.617   0.665
  120fsi     F1 1572   3.141   0.646   2.782
  120fsi     S1 1573   3.211   0.598   2.915
  120fsi      N 1574   3.277   0.723   2.965
  120fsi     O1 1575   3.102   0.550   2.997
  120fsi     O2 1576   3.302   0.495   2.871
  120fsi     S2 1577   3.203   0.815   3.057
  120fsi     O3 1578   3.066   0.795   3.018
  120fsi     O4 1579   3.260   0.944   3.025
  120fsi     F2 1580   3.241   0.759   3.200
  121fsi     F1 1581   2.575   2.021   0.847
  121fsi     S1 1582   2.703   1.937   0.885
  121fsi      N 1583   2.754   1.891   0.751
  121fsi     O1 1584   2.788   2.031   0.953
  121fsi     O2 1585   2.651   1.831   0.969
  121fsi     S2 1586   2.853   1.975   0.676
  121fsi     O3 1587   2.819   2.109   0.719
  121fsi     O4 1588   2.822   1.945   0.539
  121fsi     F2 1589   2.991   1.921   0.728
  122fsi     F1 1590   3.168   0.961   0.849
  122fsi     S1 1591   3.015   0.922   0.848
  122fsi      N 1592   2.946   1.055   0.850
  122fsi     O1 1593   2.999   0.847   0.726
  122fsi     O2 1594   2.998   0.843   0.968
  122fsi     S2 1595   2.912   1.124   0.721
  122fsi     O3 1596   3.016   1.078   0.632
  122fsi     O4 1597   2.919   1.263   0.757
  122fsi     F2 1598   2.768   1.070   0.689
  123fsi     F1 1599   2.435   1.041   2.175
  123fsi     S1 1600   2.296   1.112   2.156
  123fsi      N 1601   2.334   1.253   2.125
  123fsi     O1 1602   2.234   1.041   2.047
  123fsi     O2 1603   2.229   1.094   2.283
  123fsi     S2 1604   2.356   1.296   1.983
  123fsi     O3 1605   2.403   1.174   1.921
  123fsi     O4 1606   2.455   1.400   1.996
  123fsi     F2 1607   2.213   1.344   1.938
  124fsi     F1 1608   1.519   0.347   1.823
  124fsi     S1 1609   1.504   0.286   1.678
  124fsi      N 1610   1.390   0.190   1.693
  124fsi     O1 1611   1.476   0.400   1.595
  124fsi     O2 1612   1.632   0.224   1.653
  124fsi     S2 1613   1.249   0.237   1.670
  124fsi     O3 1614   1.255   0.376   1.707
  124fsi     O4 1615   1.172   0.153   1.758
  124fsi     F2 1616   1.228   0.210   1.516
  125fsi     F1 1617   0.790   1.025   0.280
  125fsi     S1 1618   0.686   0.972   0.385
  125fsi      N 1619   0.666   1.090   0.476
  125fsi     O1 1620   0.571   0.937   0.306
  125fsi     O2 1621   0.753   0.860   0.447
  125fsi     S2 1622   0.559   1.191   0.446
  125fsi     O3 1623   0.550   1.185   0.302
  125fsi     O4 1624   0.614   1.313   0.500
  125fsi     F2 1625   0.434   1.133   0.523
  126fsi     F1 1626   0.620   3.150   0.567
  126fsi     S1 1627   0.773   3.113   0.578
  126fsi      N 1628   0.773   2.964   0.564
  126fsi     O1 1629   0.834   3.184   0.468
  126fsi     O2 1630   0.812   3.162   0.708
  126fsi     S2 1631   0.785   2.901   0.428
  126fsi     O3 1632   0.723   2.999   0.343
  126fsi     O4 1633   0.712   2.778   0.444
  126fsi     F2 1634   0.941   2.885   0.410
  127fsi     F1 1635   3.302   2.813   1.561
  127fsi     S1 1636   3.219   2.680   1.547
  127fsi      N 1637   3.077   2.728   1.551
  127fsi     O1 1638   3.260   2.625   1.420
  127fsi     O2 1639   3.259   2.601   1.661
  127fsi     S2 1640   3.007   2.765   1.423
  127fsi     O3 1641   3.115   2.811   1.340
  127fsi     O4 1642   2.914   2.867   1.467
  127fsi     F2 1643   2.940   2.629   1.379
  128fsi     F1 1644   1.314   1.702   2.256
  128fsi     S1 1645   1.241   1.755   2.384
  128fsi      N 1646   1.346   1.743   2.491
  128fsi     O1 1647   1.205   1.891   2.351
  128fsi     O2 1648   1.128   1.666   2.400
  128fsi     S2 1649   1.439   1.857   2.517
  128fsi     O3 1650   1.449   1.921   2.388
  128fsi     O4 1651   1.559   1.790   2.563
  128fsi     F2 1652   1.363   1.940   2.627
  129fsi     F1 1653   1.846   2.791   2.521
  129fsi     S1 1654   1.982   2.864   2.551
  129fsi      N 1655   2.070   2.820   2.438
  129fsi     O1 1656   1.948   3.004   2.550
  129fsi     O2 1657   2.021   2.813   2.681
  129fsi     S2 1658   2.075   2.900   2.312
  129fsi     O3 1659   1.943   2.958   2.306
  129fsi     O4 1660   2.103   2.800   2.212
  129fsi     F2 1661   2.192   3.002   2.339
  130fsi     F1 1662   2.320   3.228   1.647
  130fsi     S1 1663   2.276   3.087   1.702
  130fsi      N 1664   2.363   2.992   1.626
  130fsi     O1 1665   2.303   3.095   1.843
  130fsi     O2 1666   2.135   3.080   1.669
  130fsi     S2 1667   2.497   2.952   1.681
  130fsi     O3 1668   2.535   3.069   1.757
  130fsi     O4 1669   2.574   2.927   1.562
  130fsi     F2 1670   2.463   2.825   1.767
  131fsi     F1 1671   2.132   0.668   1.807
  131fsi     S1 1672   2.029   0.560   1.857
  131fsi      N 1673   1.896   0.626   1.830
  131fsi     O1 1674   2.056   0.444   1.775
  131fsi     O2 1675   2.060   0.543   1.997
  131fsi     S2 1676   1.828   0.605   1.698
  131fsi     O3 1677   1.939   0.586   1.607
  131fsi     O4 1678   1.755   0.728   1.681
  131fsi     F2 1679   1.740   0.477   1.723
  132fsi     F1 1680   0.988   2.131   1.031
  132fsi     S1 1681   1.100   2.241   1.019
  132fsi      N 1682   1.043   2.356   1.097
  132fsi     O1 1683   1.216   2.180   1.080
  132fsi     O2 1684   1.112   2.264   0.877
  132fsi     S2 1685   1.070   2.369   1.244
  132fsi     O3 1686   1.084   2.231   1.285
  132fsi     O4 1687   0.951   2.436   1.292
  132fsi     F2 1688   1.202   2.454   1.248
  133fsi     F1 1689   2.841   2.859   2.927
  133fsi     S1 1690   2.836   2.886   2.772
  133fsi      N 1691   2.954   2.976   2.749
  133fsi     O1 1692   2.848   2.755   2.713
  133fsi     O2 1693   2.708   2.949   2.751
  133fsi     S2 1694   3.088   2.916   2.717
  133fsi     O3 1695   3.083   2.789   2.785
  133fsi     O4 1696   3.180   3.013   2.773
  133fsi     F2 1697   3.087   2.908   2.559
  134fsi     F1 1698   0.787   3.207   2.494
  134fsi     S1 1699   0.835   3.133   2.625
  134fsi      N 1700   0.739   3.184   2.729
  134fsi     O1 1701   0.820   2.993   2.593
  134fsi     O2 1702   0.971   3.176   2.642
  134fsi     S2 1703   0.611   3.111   2.755
  134fsi     O3 1704   0.581   3.054   2.626
  134fsi     O4 1705   0.523   3.217   2.797
  134fsi     F2 1706   0.650   3.008   2.867
  135fsi     F1 1707   0.578   2.956   2.328
  135fsi     S1 1708   0.469   2.858   2.387
  135fsi      N 1709   0.342   2.936   2.373
  135fsi     O1 1710   0.478   2.741   2.304
  135fsi     O2 1711   0.512   2.837   2.524
  135fsi     S2 1712   0.260   2.923   2.247
  135fsi     O3 1713   0.360   2.895   2.147
  135fsi     O4 1714   0.198   3.053   2.237
  135fsi     F2 1715   0.163   2.804   2.281
  136fsi     F1 1716   2.058   0.672   0.201
  136fsi     S1 1717   2.207   0.642   0.244
  136fsi      N 1718   2.274   0.775   0.228
  136fsi     O1 1719   2.196   0.596   0.380
  136fsi     O2 1720   2.251   0.541   0.150
  136fsi     S2 1721   2.279   0.871   0.344
  136fsi     O3 1722   2.157   0.839   0.415
  136fsi     O4 1723   2.280   0.999   0.278
  136fsi     F2 1724   2.412   0.832   0.417
  137fsi     F1 1725   2.502   0.211   2.637
  137fsi     S1 1726   2.456   0.357   2.670
  137fsi      N 1727   2.307   0.347   2.672
  137fsi     O1 1728   2.516   0.385   2.799
  137fsi     O2 1729   2.510   0.436   2.562
  137fsi     S2 1730   2.235   0.314   2.800
  137fsi     O3 1731   2.332   0.233   2.870
  137fsi     O4 1732   2.118   0.243   2.753
  137fsi     F2 1733   2.208   0.455   2.862
  138fsi     F1 1734   0.633   0.662   1.491
  138fsi     S1 1735   0.679   0.605   1.352
  138fsi      N 1736   0.603   0.476   1.342
  138fsi     O1 1737   0.638   0.706   1.258
  138fsi     O2 1738   0.822   0.590   1.365
  138fsi     S2 1739   0.467   0.474   1.279
  138fsi     O3 1740   0.416   0.605   1.309
  138fsi     O4 1741   0.402   0.365   1.349
  138fsi     F2 1742   0.498   0.447   1.127
  139fsi     F1 1743   1.119   1.960   0.633
  139fsi     S1 1744   1.147   1.829   0.549
  139fsi      N 1745   1.062   1.850   0.427
  139fsi     O1 1746   1.289   1.833   0.525
  139fsi     O2 1747   1.103   1.722   0.635
  139fsi     S2 1748   1.120   1.920   0.307
  139fsi     O3 1749   1.216   2.010   0.366
  139fsi     O4 1750   1.004   1.983   0.249
  139fsi     F2 1751   1.181   1.801   0.223
  140fsi     F1 1752   1.319   1.025   2.618
  140fsi     S1 1753   1.465   0.995   2.669
  140fsi      N 1754   1.532   1.129   2.662
  140fsi     O1 1755   1.447   0.944   2.803
  140fsi     O2 1756   1.515   0.897   2.575
  140fsi     S2 1757   1.529   1.221   2.780
  140fsi     O3 1758   1.404   1.186   2.843
  140fsi     O4 1759   1.532   1.351   2.719
  140fsi     F2 1760   1.658   1.180   2.860
  141fsi     F1 1761   2.175   2.351   3.097
  141fsi     S1 1762   2.237   2.211   3.059
  141fsi      N 1763   2.115   2.127   3.033
  141fsi     O1 1764   2.318   2.238   2.943
  141fsi     O2 1765   2.312   2.173   3.177
  141fsi     S2 1766   2.058   2.120   2.894
  141fsi     O3 1767   2.092   2.249   2.839
  141fsi     O4 1768   1.918   2.098   2.919
  141fsi     F2 1769   2.135   1.998   2.830
  142fsi     F1 1770   1.100   0.998   2.258
  142fsi     S1 1771   1.111   1.115   2.363
  142fsi      N 1772   0.990   1.198   2.332
  142fsi     O1 1773   1.107   1.048   2.491
  142fsi     O2 1774   1.237   1.178   2.332
  142fsi     S2 1775   0.860   1.171   2.402
  142fsi     O3 1776   0.867   1.028   2.427
  142fsi     O4 1777   0.762   1.211   2.304
  142fsi     F2 1778   0.868   1.262   2.530
  143fsi     F1 1779   1.341   2.621   2.585
  143fsi     S1 1780   1.464   2.602   2.681
  143fsi      N 1781   1.514   2.742   2.701
  143fsi     O1 1782   1.407   2.541   2.799
  143fsi     O2 1783   1.554   2.516   2.608
  143fsi     S2 1784   1.460   2.825   2.814
  143fsi     O3 1785   1.326   2.774   2.829
  143fsi     O4 1786   1.469   2.959   2.762
  143fsi     F2 1787   1.558   2.792   2.933
  144fsi     F1 1788   1.119   1.102   1.860
  144fsi     S1 1789   1.257   1.139   1.927
  144fsi      N 1790   1.238   1.283   1.966
  144fsi     O1 1791   1.267   1.048   2.039
  144fsi     O2 1792   1.354   1.117   1.823
  144fsi     S2 1793   1.182   1.318   2.100
  144fsi     O3 1794   1.097   1.205   2.129
  144fsi     O4 1795   1.114   1.442   2.075
  144fsi     F2 1796   1.311   1.329   2.190
  145fsi     F1 1797   2.800   1.934   2.863
  145fsi     S1 1798   2.865   1.793   2.891
  145fsi      N 1799   2.755   1.697   2.856
  145fsi     O1 1800   2.979   1.789   2.802
  145fsi     O2 1801   2.899   1.797   3.031
  145fsi     S2 1802   2.742   1.645   2.716
  145fsi     O3 1803   2.795   1.753   2.637
  145fsi     O4 1804   2.600   1.622   2.704
  145fsi     F2 1805   2.831   1.514   2.719
  146fsi     F1 1806   1.847   0.651   2.562
  146fsi     S1 1807   1.949   0.724   2.657
  146fsi      N 1808   2.081   0.701   2.589
  146fsi     O1 1809   1.905   0.861   2.657
  146fsi     O2 1810   1.934   0.657   2.783
  146fsi     S2 1811   2.131   0.799   2.487
  146fsi     O3 1812   2.009   0.851   2.431
  146fsi     O4 1813   2.209   0.716   2.398
  146fsi     F2 1814   2.214   0.901   2.573
  147fsi     F1 1815   1.544   1.390   2.061
  147fsi     S1 1816   1.465   1.520   2.023
  147fsi      N 1817   1.512   1.548   1.883
  147fsi     O1 1818   1.326   1.482   2.033
  147fsi     O2 1819   1.507   1.617   2.121
  147fsi     S2 1820   1.438   1.490   1.766
  147fsi     O3 1821   1.386   1.367   1.821
  147fsi     O4 1822   1.543   1.474   1.668
  147fsi     F2 1823   1.331   1.600   1.733
  148fsi     F1 1824   0.352   2.037   2.869
  148fsi     S1 1825   0.420   2.048   2.727
  148fsi      N 1826   0.546   1.968   2.745
  148fsi     O1 1827   0.324   1.990   2.637
  148fsi     O2 1828   0.441   2.189   2.709
  148fsi     S2 1829   0.546   1.821   2.715
  148fsi     O3 1830   0.410   1.782   2.745
  148fsi     O4 1831   0.646   1.770   2.806
  148fsi     F2 1832   0.585   1.816   2.562
  149fsi     F1 1833   0.567   2.443   1.440
  149fsi     S1 1834   0.642   2.365   1.325
  149fsi      N 1835   0.639   2.461   1.211
  149fsi     O1 1836   0.774   2.341   1.380
  149fsi     O2 1837   0.564   2.246   1.306
  149fsi     S2 1838   0.750   2.561   1.193
  149fsi     O3 1839   0.794   2.584   1.328
  149fsi     O4 1840   0.683   2.672   1.130
  149fsi     F2 1841   0.853   2.484   1.102
  150fsi     F1 1842   2.805   1.707   1.292
  150fsi     S1 1843   2.940   1.784   1.319
  150fsi      N 1844   2.993   1.809   1.180
  150fsi     O1 1845   2.899   1.903   1.389
  150fsi     O2 1846   3.018   1.692   1.398
  150fsi     S2 1847   2.955   1.934   1.107
  150fsi     O3 1848   2.824   1.963   1.159
  150fsi     O4 1849   2.958   1.892   0.969
  150fsi     F2 1850   3.068   2.035   1.149
  151fsi     F1 1851   1.461   3.092   0.471
  151fsi     S1 1852   1.388   3.231   0.460
  151fsi      N 1853   1.252   3.194   0.409
  151fsi     O1 1854   1.390   3.282   0.595
  151fsi     O2 1855   1.469   3.306   0.367
  151fsi     S2 1856   1.141   3.162   0.506
  151fsi     O3 1857   1.213   3.108   0.619
  151fsi     O4 1858   1.061   3.068   0.432
  151fsi     F2 1859   1.074   3.303   0.530
  152fsi     F1 1860   0.729   0.795   2.282
  152fsi     S1 1861   0.703   0.689   2.168
  152fsi      N 1862   0.777   0.748   2.051
  152fsi     O1 1863   0.759   0.567   2.220
  152fsi     O2 1864   0.559   0.688   2.154
  152fsi     S2 1865   0.921   0.712   2.028
  152fsi     O3 1866   0.969   0.688   2.161
  152fsi     O4 1867   0.972   0.830   1.963
  152fsi     F2 1868   0.911   0.584   1.936
  153fsi     F1 1869   2.883   0.548   1.219
  153fsi     S1 1870   2.972   0.422   1.188
  153fsi      N 1871   3.072   0.474   1.090
  153fsi     O1 1872   3.026   0.385   1.317
  153fsi     O2 1873   2.879   0.326   1.134
  153fsi     S2 1874   3.202   0.532   1.139
  153fsi     O3 1875   3.165   0.586   1.268
  153fsi     O4 1876   3.233   0.630   1.037
  153fsi     F2 1877   3.297   0.407   1.143
  154fsi     F1 1878   2.159   2.178   0.894
  154fsi     S1 1879   2.034   2.144   0.983
  154fsi      N 1880   1.944   2.262   0.963
  154fsi     O1 1881   1.984   2.020   0.928
  154fsi     O2 1882   2.088   2.132   1.117
  154fsi     S2 1883   1.843   2.262   0.852
  154fsi     O3 1884   1.907   2.179   0.752
  154fsi     O4 1885   1.833   2.402   0.818
  154fsi     F2 1886   1.716   2.199   0.920
  155fsi     F1 1887   1.558   0.735   1.118
  155fsi     S1 1888   1.438   0.775   1.212
  155fsi      N 1889   1.346   0.848   1.118
  155fsi     O1 1890   1.388   0.649   1.260
  155fsi     O2 1891   1.498   0.858   1.313
  155fsi     S2 1892   1.240   0.772   1.043
  155fsi     O3 1893   1.300   0.642   1.027
  155fsi     O4 1894   1.226   0.849   0.922
  155fsi     F2 1895   1.117   0.777   1.141
  156fsi     F1 1896   1.733   2.055   0.375
  156fsi     S1 1897   1.740   2.119   0.232
  156fsi      N 1898   1.692   2.259   0.256
  156fsi     O1 1899   1.880   2.109   0.196
  156fsi     O2 1900   1.652   2.037   0.152
  156fsi     S2 1901   1.789   2.368   0.291
  156fsi     O3 1902   1.893   2.295   0.361
  156fsi     O4 1903   1.710   2.456   0.372
  156fsi     F2 1904   1.831   2.425   0.150
  157fsi     F1 1905   0.467   2.452   0.278
  157fsi     S1 1906   0.602   2.532   0.289
  157fsi      N 1907   0.679   2.455   0.392
  157fsi     O1 1908   0.657   2.525   0.156
  157fsi     O2 1909   0.562   2.665   0.329
  157fsi     S2 1910   0.768   2.342   0.351
  157fsi     O3 1911   0.703   2.293   0.232
  157fsi     O4 1912   0.763   2.255   0.465
  157fsi     F2 1913   0.907   2.414   0.327
  158fsi     F1 1914   0.599   0.481   0.386
  158fsi     S1 1915   0.667   0.622   0.378
  158fsi      N 1916   0.813   0.589   0.364
  158fsi     O1 1917   0.608   0.684   0.262
  158fsi     O2 1918   0.632   0.685   0.503
  158fsi     S2 1919   0.873   0.572   0.227
  158fsi     O3 1920   0.761   0.523   0.150
  158fsi     O4 1921   0.978   0.476   0.251
  158fsi     F2 1922   0.921   0.717   0.191
  159fsi     F1 1923   2.113   2.038   1.770
  159fsi     S1 1924   2.100   1.983   1.623
  159fsi      N 1925   1.988   2.065   1.566
  159fsi     O1 1926   2.229   2.009   1.564
  159fsi     O2 1927   2.070   1.843   1.641
  159fsi     S2 1928   2.017   2.194   1.497
  159fsi     O3 1929   2.136   2.240   1.564
  159fsi     O4 1930   1.898   2.271   1.523
  159fsi     F2 1931   2.037   2.150   1.347
  160fsi     F1 1932   2.599   1.044   1.942
  160fsi     S1 1933   2.750   1.001   1.957
  160fsi      N 1934   2.823   1.130   1.942
  160fsi     O1 1935   2.757   0.942   2.089
  160fsi     O2 1936   2.770   0.907   1.849
  160fsi     S2 1937   2.853   1.214   2.062
  160fsi     O3 1938   2.743   1.183   2.151
  160fsi     O4 1939   2.854   1.348   2.009
  160fsi     F2 1940   2.994   1.161   2.109
  161fsi     F1 1941   1.242   0.544   2.974
  161fsi     S1 1942   1.371   0.454   2.976
  161fsi      N 1943   1.315   0.317   3.001
  161fsi     O1 1944   1.428   0.472   2.845
  161fsi     O2 1945   1.450   0.507   3.083
  161fsi     S2 1946   1.275   0.229   2.886
  161fsi     O3 1947   1.235   0.325   2.786
  161fsi     O4 1948   1.168   0.150   2.943
  161fsi     F2 1949   1.407   0.150   2.855
  162fsi     F1 1950   1.356   3.302   1.517
  162fsi     S1 1951   1.429   3.164   1.496
  162fsi      N 1952   1.356   3.073   1.589
  162fsi     O1 1953   1.410   3.136   1.356
  162fsi     O2 1954   1.566   3.191   1.533
  162fsi     S2 1955   1.235   2.997   1.541
  162fsi     O3 1956   1.181   3.086   1.441
  162fsi     O4 1957   1.156   2.984   1.661
  162fsi     F2 1958   1.297   2.863   1.486
  163fsi     F1 1959   2.189   1.153   0.729
  163fsi     S1 1960   2.346   1.161   0.730
  163fsi      N 1961   2.388   1.017   0.736
  163fsi     O1 1962   2.378   1.228   0.606
  163fsi     O2 1963   2.376   1.238   0.848
  163fsi     S2 1964   2.409   0.940   0.609
  163fsi     O3 1965   2.317   1.003   0.517
  163fsi     O4 1966   2.375   0.805   0.648
  163fsi     F2 1967   2.562   0.965   0.578
  164fsi     F1 1968   2.933   1.044   0.432
  164fsi     S1 1969   2.797   0.972   0.395
  164fsi      N 1970   2.695   1.079   0.422
  164fsi     O1 1971   2.812   0.937   0.256
  164fsi     O2 1972   2.792   0.860   0.485
  164fsi     S2 1973   2.655   1.173   0.313
  164fsi     O3 1974   2.775   1.182   0.233
  164fsi     O4 1975   2.620   1.293   0.386
  164fsi     F2 1976   2.534   1.099   0.244
  165fsi     F1 1977   1.776   0.973   0.910
  165fsi     S1 1978   1.905   0.883   0.920
  165fsi      N 1979   2.013   0.982   0.951
  165fsi     O1 1980   1.875   0.791   1.027
  165fsi     O2 1981   1.915   0.822   0.790
  165fsi     S2 1982   2.046   1.015   1.094
  165fsi     O3 1983   1.919   0.996   1.161
  165fsi     O4 1984   2.092   1.151   1.085
  165fsi     F2 1985   2.157   0.909   1.130
  166fsi     F1 1986   2.507   2.810   1.282
  166fsi     S1 1987   2.514   2.654   1.263
  166fsi      N 1988   2.619   2.612   1.363
  166fsi     O1 1989   2.381   2.608   1.293
  166fsi     O2 1990   2.553   2.637   1.125
  166fsi     S2 1991   2.579   2.576   1.503
  166fsi     O3 1992   2.461   2.657   1.523
  166fsi     O4 1993   2.695   2.614   1.579
  166fsi     F2 1994   2.553   2.421   1.493
  167fsi     F1 1995   0.645   0.840   2.846
  167fsi     S1 1996   0.570   0.974   2.812
  167fsi      N 1997   0.679   1.076   2.816
  167fsi     O1 1998   0.514   0.951   2.681
  167fsi     O2 1999   0.471   0.987   2.917
  167fsi     S2 2000   0.757   1.108   2.692
  167fsi     O3 2001   0.753   0.984   2.620
  167fsi     O4 2002   0.886   1.145   2.744
  167fsi     F2 2003   0.674   1.226   2.628
  168fsi     F1 2004   0.369   3.157   1.474
  168fsi     S1 2005   0.520   3.184   1.511
  168fsi      N 2006   0.575   3.047   1.535
  168fsi     O1 2007   0.573   3.251   1.394
  168fsi     O2 2008   0.513   3.268   1.629
  168fsi     S2 2009   0.634   2.969   1.421
  168fsi     O3 2010   0.560   3.018   1.307
  168fsi     O4 2011   0.607   2.832   1.459
  168fsi     F2 2012   0.786   3.011   1.425
  169fsi     F1 2013   2.276   1.549   0.282
  169fsi     S1 2014   2.332   1.494   0.418
  169fsi      N 2015   2.246   1.562   0.520
  169fsi     O1 2016   2.313   1.352   0.408
  169fsi     O2 2017   2.470   1.536   0.418
  169fsi     S2 2018   2.119   1.498   0.566
  169fsi     O3 2019   2.078   1.422   0.450
  169fsi     O4 2020   2.036   1.611   0.599
  169fsi     F2 2021   2.165   1.411   0.689
  170fsi     F1 2022   2.197   2.523   1.190
  170fsi     S1 2023   2.135   2.379   1.194
  170fsi      N 2024   2.002   2.401   1.259
  170fsi     O1 2025   2.128   2.340   1.055
  170fsi     O2 2026   2.229   2.302   1.272
  170fsi     S2 2027   1.882   2.433   1.175
  170fsi     O3 2028   1.939   2.502   1.062
  170fsi     O4 2029   1.802   2.514   1.264
  170fsi     F2 2030   1.822   2.290   1.144
  171fsi     F1 2031   2.357   2.435   1.592
  171fsi     S1 2032   2.428   2.440   1.732
  171fsi      N 2033   2.343   2.537   1.809
  171fsi     O1 2034   2.421   2.304   1.779
  171fsi     O2 2035   2.561   2.487   1.703
  171fsi     S2 2036   2.226   2.488   1.889
  171fsi     O3 2037   2.184   2.372   1.815
  171fsi     O4 2038   2.136   2.601   1.885
  171fsi     F2 2039   2.289   2.458   2.030
  172fsi     F1 2040   1.502   2.064   2.105
  172fsi     S1 2041   1.364   2.141   2.105
  172fsi      N 2042   1.405   2.283   2.076
  172fsi     O1 2043   1.289   2.078   1.999
  172fsi     O2 2044   1.311   2.118   2.237
  172fsi     S2 2045   1.413   2.332   1.935
  172fsi     O3 2046   1.447   2.212   1.862
  172fsi     O4 2047   1.516   2.432   1.942
  172fsi     F2 2048   1.267   2.386   1.908
  173fsi     F1 2049   0.831   1.170   1.766
  173fsi     S1 2050   0.702   1.095   1.819
  173fsi      N 2051   0.757   1.006   1.926
  173fsi     O1 2052   0.617   1.201   1.866
  173fsi     O2 2053   0.651   1.026   1.703
  173fsi     S2 2054   0.766   1.055   2.068
  173fsi     O3 2055   0.785   1.197   2.050
  173fsi     O4 2056   0.879   0.983   2.119
  173fsi     F2 2057   0.627   1.014   2.128
  174fsi     F1 2058   0.807   0.575   2.575
  174fsi     S1 2059   0.798   0.426   2.525
  174fsi      N 2060   0.906   0.358   2.605
  174fsi     O1 2061   0.664   0.385   2.559
  174fsi     O2 2062   0.824   0.434   2.384
  174fsi     S2 2063   0.874   0.297   2.738
  174fsi     O3 2064   0.766   0.381   2.786
  174fsi     O4 2065   0.998   0.310   2.809
  174fsi     F2 2066   0.832   0.150   2.701
  175fsi     F1 2067   1.006   2.285   0.585
  175fsi     S1 2068   0.978   2.423   0.654
  175fsi      N 2069   1.115   2.474   0.686
  175fsi     O1 2070   0.907   2.499   0.554
  175fsi     O2 2071   0.899   2.389   0.770
  175fsi     S2 2072   1.189   2.558   0.585
  175fsi     O3 2073   1.137   2.510   0.460
  175fsi     O4 2074   1.327   2.526   0.612
  175fsi     F2 2075   1.145   2.704   0.624
  176fsi     F1 2076   2.388   1.974   0.493
  176fsi     S1 2077   2.275   1.867   0.469
  176fsi      N 2078   2.149   1.948   0.484
  176fsi     O1 2079   2.300   1.818   0.336
  176fsi     O2 2080   2.296   1.770   0.574
  176fsi     S2 2081   2.089   2.014   0.364
  176fsi     O3 2082   2.204   2.041   0.281
  176fsi     O4 2083   2.025   2.130   0.421
  176fsi     F2 2084   1.991   1.904   0.308
  177fsi     F1 2085   3.032   2.926   0.415
  177fsi     S1 2086   2.877   2.922   0.389
  177fsi      N 2087   2.841   3.068   0.375
  177fsi     O1 2088   2.863   2.846   0.267
  177fsi     O2 2089   2.823   2.858   0.506
  177fsi     S2 2090   2.845   3.134   0.241
  177fsi     O3 2091   2.948   3.060   0.172
  177fsi     O4 2092   2.878   3.270   0.274
  177fsi     F2 2093   2.699   3.112   0.186
  178fsi     F1 2094   3.014   1.038   2.408
  178fsi     S1 2095   3.077   1.118   2.529
  178fsi      N 2096   3.036   1.037   2.648
  178fsi     O1 2097   3.219   1.117   2.501
  178fsi     O2 2098   3.016   1.248   2.520
  178fsi     S2 2099   3.124   0.926   2.697
  178fsi     O3 2100   3.189   0.881   2.576
  178fsi     O4 2101   3.030   0.834   2.755
  178fsi     F2 2102   3.218   0.999   2.801
  179fsi     F1 2103   2.899   1.751   1.723
  179fsi     S1 2104   2.902   1.748   1.880
  179fsi      N 2105   2.789   1.839   1.918
  179fsi     O1 2106   2.882   1.609   1.913
  179fsi     O2 2107   3.034   1.798   1.914
  179fsi     S2 2108   2.651   1.783   1.937
  179fsi     O3 2109   2.650   1.671   1.846
  179fsi     O4 2110   2.567   1.894   1.899
  179fsi     F2 2111   2.648   1.745   2.090
  180fsi     F1 2112   0.762   1.738   1.224
  180fsi     S1 2113   0.892   1.798   1.159
  180fsi      N 2114   0.994   1.691   1.184
  180fsi     O1 2115   0.856   1.816   1.020
  180fsi     O2 2116   0.915   1.921   1.231
  180fsi     S2 2117   1.014   1.581   1.083
  180fsi     O3 2118   0.883   1.569   1.024
  180fsi     O4 2119   1.056   1.470   1.165
  180fsi     F2 2120   1.125   1.640   0.988
  181fsi     F1 2121   1.705   0.951   1.215
  181fsi     S1 2122   1.733   1.100   1.255
  181fsi      N 2123   1.599   1.148   1.304
  181fsi     O1 2124   1.835   1.092   1.357
  181fsi     O2 2125   1.777   1.162   1.132
  181fsi     S2 2126   1.563   1.134   1.449
  181fsi     O3 2127   1.637   1.016   1.488
  181fsi     O4 2128   1.420   1.118   1.444
  181fsi     F2 2129   1.614   1.269   1.511
  182fsi     F1 2130   2.016   2.494   2.779
  182fsi     S1 2131   2.169   2.462   2.760
  182fsi      N 2132   2.168   2.351   2.659
  182fsi     O1 2133   2.225   2.586   2.711
  182fsi     O2 2134   2.214   2.425   2.891
  182fsi     S2 2135   2.173   2.381   2.513
  182fsi     O3 2136   2.108   2.510   2.505
  182fsi     O4 2137   2.100   2.271   2.455
  182fsi     F2 2138   2.328   2.383   2.483
  183fsi     F1 2139   2.856   0.710   2.699
  183fsi     S1 2140   2.933   0.580   2.651
  183fsi      N 2141   2.966   0.512   2.780
  183fsi     O1 2142   2.836   0.511   2.569
  183fsi     O2 2143   3.046   0.631   2.579
  183fsi     S2 2144   2.871   0.413   2.840
  183fsi     O3 2145   2.743   0.462   2.795
  183fsi     O4 2146   2.896   0.426   2.981
  183fsi     F2 2147   2.916   0.276   2.776
  184fsi     F1 2148   2.579   2.928   2.201
  184fsi     S1 2149   2.698   2.886   2.107
  184fsi      N 2150   2.794   3.000   2.120
  184fsi     O1 2151   2.745   2.762   2.164
  184fsi     O2 2152   2.638   2.872   1.977
  184fsi     S2 2153   2.899   2.999   2.227
  184fsi     O3 2154   2.836   2.922   2.332
  184fsi     O4 2155   2.917   3.139   2.255
  184fsi     F2 2156   3.021   2.928   2.156
  185fsi     F1 2157   1.549   2.634   1.267
  185fsi     S1 2158   1.420   2.545   1.255
  185fsi      N 2159   1.460   2.440   1.157
  185fsi     O1 2160   1.397   2.498   1.390
  185fsi     O2 2161   1.319   2.637   1.207
  185fsi     S2 2162   1.522   2.312   1.206
  185fsi     O3 2163   1.590   2.354   1.326
  185fsi     O4 2164   1.608   2.275   1.096
  185fsi     F2 2165   1.398   2.218   1.229
  186fsi     F1 2166   2.722   1.304   2.413
  186fsi     S1 2167   2.657   1.162   2.393
  186fsi      N 2168   2.589   1.137   2.524
  186fsi     O1 2169   2.567   1.181   2.282
  186fsi     O2 2170   2.768   1.075   2.365
  186fsi     S2 2171   2.447   1.181   2.546
  186fsi     O3 2172   2.437   1.296   2.460
  186fsi     O4 2173   2.443   1.208   2.687
  186fsi     F2 2174   2.364   1.055   2.499
  187fsi     F1 2175   1.056   2.888   1.468
  187fsi     S1 2176   1.098   2.754   1.396
  187fsi      N 2177   1.150   2.670   1.509
  187fsi     O1 2178   0.976   2.706   1.336
  187fsi     O2 2179   1.199   2.796   1.301
  187fsi     S2 2180   1.056   2.580   1.584
  187fsi     O3 2181   0.930   2.650   1.574
  187fsi     O4 2182   1.114   2.576   1.716
  187fsi     F2 2183   1.064   2.445   1.503
  188fsi     F1 2184   0.967   0.770   3.230
  188fsi     S1 2185   1.017   0.821   3.089
  188fsi      N 2186   0.938   0.947   3.069
  188fsi     O1 2187   1.159   0.842   3.108
  188fsi     O2 2188   0.984   0.714   2.999
  188fsi     S2 2189   0.992   1.079   3.117
  188fsi     O3 2190   1.071   1.040   3.231
  188fsi     O4 2191   0.872   1.152   3.148
  188fsi     F2 2192   1.073   1.131   2.993
  189fsi     F1 2193   2.284   3.087   3.168
  189fsi     S1 2194   2.371   3.216   3.141
  189fsi      N 2195   2.483   3.164   3.055
  189fsi     O1 2196   2.281   3.306   3.074
  189fsi     O2 2197   2.412   3.259   3.272
  189fsi     S2 2198   2.468   3.163   2.905
  189fsi     O3 2199   2.326   3.147   2.888
  189fsi     O4 2200   2.549   3.049   2.867
  189fsi     F2 2201   2.526   3.303   2.864
  190fsi     F1 2202   2.003   1.161   0.534
  190fsi     S1 2203   1.845   1.156   0.526
  190fsi      N 2204   1.807   1.301   0.528
  190fsi     O1 2205   1.819   1.088   0.402
  190fsi     O2 2206   1.807   1.082   0.644
  190fsi     S2 2207   1.794   1.376   0.399
  190fsi     O3 2208   1.890   1.310   0.314
  190fsi     O4 2209   1.829   1.511   0.438
  190fsi     F2 2210   1.643   1.355   0.360
  191fsi     F1 2211   3.073   0.479   1.607
  191fsi     S1 2212   3.011   0.334   1.605
  191fsi      N 2213   3.026   0.289   1.747
  191fsi     O1 2214   2.875   0.355   1.563
  191fsi     O2 2215   3.092   0.262   1.510
  191fsi     S2 2216   2.917   0.316   1.847
  191fsi     O3 2217   2.859   0.438   1.797
  191fsi     O4 2218   2.990   0.328   1.971
  191fsi     F2 2219   2.826   0.189   1.835
  192fsi     F1 2220   2.820   0.568   0.705
  192fsi     S1 2221   2.829   0.501   0.848
  192fsi      N 2222   2.713   0.407   0.848
  192fsi     O1 2223   2.958   0.438   0.849
  192fsi     O2 2224   2.817   0.612   0.939
  192fsi     S2 2225   2.730   0.266   0.799
  192fsi     O3 2226   2.835   0.280   0.701
  192fsi     O4 2227   2.600   0.235   0.747
  192fsi     F2 2228   2.770   0.188   0.930
  193fsi     F1 2229   1.942   2.032   2.562
  193fsi     S1 2230   1.840   1.941   2.641
  193fsi      N 2231   1.756   1.882   2.532
  193fsi     O1 2232   1.924   1.847   2.711
  193fsi     O2 2233   1.770   2.033   2.727
  193fsi     S2 2234   1.796   1.752   2.468
  193fsi     O3 2235   1.940   1.755   2.480
  193fsi     O4 2236   1.745   1.765   2.334
  193fsi     F2 2237   1.724   1.645   2.558
  194fsi     F1 2238   0.645   0.874   0.895
  194fsi     S1 2239   0.572   1.013   0.904
  194fsi      N 2240   0.682   1.107   0.943
  194fsi     O1 2241   0.519   1.034   0.771
  194fsi     O2 2242   0.471   0.993   1.005
  194fsi     S2 2243   0.763   1.176   0.837
  194fsi     O3 2244   0.760   1.081   0.729
  194fsi     O4 2245   0.891   1.192   0.902
  194fsi     F2 2246   0.683   1.309   0.812
  195fsi     F1 2247   2.617   3.281   2.410
  195fsi     S1 2248   2.583   3.151   2.492
  195fsi      N 2249   2.452   3.185   2.557
  195fsi     O1 2250   2.575   3.048   2.391
  195fsi     O2 2251   2.694   3.137   2.583
  195fsi     S2 2252   2.323   3.154   2.487
  195fsi     O3 2253   2.360   3.165   2.347
  195fsi     O4 2254   2.235   3.257   2.536
  195fsi     F2 2255   2.290   3.008   2.536
  196fsi     F1 2256   1.396   0.149   2.133
  196fsi     S1 2257   1.331   0.292   2.136
  196fsi      N 2258   1.191   0.267   2.088
  196fsi     O1 2259   1.340   0.332   2.275
  196fsi     O2 2260   1.413   0.370   2.047
  196fsi     S2 2261   1.082   0.234   2.185
  196fsi     O3 2262   1.154   0.167   2.291
  196fsi     O4 2263   0.994   0.150   2.108
  196fsi     F2 2264   1.024   0.375   2.223
  197fsi     F1 2265   2.570   1.307   2.837
  197fsi     S1 2266   2.485   1.360   2.958
  197fsi      N 2267   2.349   1.380   2.898
  197fsi     O1 2268   2.493   1.254   3.056
  197fsi     O2 2269   2.552   1.482   2.997
  197fsi     S2 2270   2.250   1.268   2.899
  197fsi     O3 2271   2.334   1.151   2.894
  197fsi     O4 2272   2.172   1.293   2.780
  197fsi     F2 2273   2.173   1.290   3.035
  198fsi     F1 2274   1.398   0.361   0.184
  198fsi     S1 2275   1.448   0.481   0.273
  198fsi      N 2276   1.378   0.599   0.214
  198fsi     O1 2277   1.406   0.445   0.407
  198fsi     O2 2278   1.592   0.481   0.255
  198fsi     S2 2279   1.242   0.639   0.266
  198fsi     O3 2280   1.187   0.513   0.309
  198fsi     O4 2281   1.180   0.698   0.150
  198fsi     F2 2282   1.278   0.740   0.382
  199fsi     F1 2283   2.580   1.707   1.593
  199fsi     S1 2284   2.681   1.824   1.561
  199fsi      N 2285   2.612   1.900   1.452
  199fsi     O1 2286   2.693   1.895   1.686
  199fsi     O2 2287   2.802   1.755   1.520
  199fsi     S2 2288   2.519   2.012   1.487
  199fsi     O3 2289   2.467   1.972   1.615
  199fsi     O4 2290   2.424   2.009   1.378
  199fsi     F2 2291   2.614   2.137   1.489
  200fsi     F1 2292   2.053   1.669   2.719
  200fsi     S1 2293   2.190   1.715   2.657
  200fsi      N 2294   2.274   1.590   2.664
  200fsi     O1 2295   2.156   1.757   2.523
  200fsi     O2 2296   2.234   1.822   2.743
  200fsi     S2 2297   2.274   1.493   2.550
  200fsi     O3 2298   2.141   1.510   2.494
  200fsi     O4 2299   2.298   1.367   2.615
  200fsi     F2 2300   2.391   1.546   2.459
   3.45200   3.45200   3.45200
