L1P2 short trajectory practice
 2050
    1Li+     Li    1   2.770   5.967   1.610 -0.0356 -0.1194 -0.2690
    2Li+     Li    2   2.793   5.550   2.351 -1.2085  0.6084 -0.3912
    3Li+     Li    3   3.127   0.159   1.891 -0.3497  0.4677 -0.4937
    4Li+     Li    4   1.616   0.710   3.334  0.6452 -0.6769 -0.0710
    5Li+     Li    5   2.553   0.641   2.596 -0.0657  0.6121 -0.3201
    6Li+     Li    6   3.171   5.836   2.031  0.2545 -0.6333 -0.6739
    7Li+     Li    7   5.378   2.927   1.534 -0.5767 -0.5718  0.3513
    8Li+     Li    8   4.039   1.973   3.920  1.2193  0.3144 -0.7161
    9Li+     Li    9   3.171   5.432   1.656 -0.7936 -0.0461  0.7323
   10Li+     Li   10   1.903   0.541   3.124  0.5528 -0.0031  0.4713
   11Li+     Li   11   1.510   1.114   3.120 -0.0420  0.0354 -0.5820
   12Li+     Li   12   2.622   1.834   3.814 -0.6860 -0.1357 -0.7411
   13Li+     Li   13   4.441   2.060   3.440 -0.2253 -0.6483 -0.1468
   14Li+     Li   14   4.141   1.830   2.951 -0.6648  0.0273 -0.0153
   15Li+     Li   15   3.050   0.973   2.494 -1.0811 -0.1226  0.3295
   16Li+     Li   16   2.085   0.634   2.626 -0.1748  1.5218  0.2621
   17Li+     Li   17   3.594   2.185   4.218 -0.6023 -0.8641 -0.1978
   18Li+     Li   18   2.694   6.072   2.139  0.1890  0.6693 -0.1346
   19Li+     Li   19   3.878   0.854   1.661 -0.5932  1.2469 -0.2887
   20Li+     Li   20   3.343   0.943   1.499 -0.3942  0.5847 -0.9795
   21Li+     Li   21   2.194   1.768   2.632 -0.7807  0.2986 -0.5612
   22Li+     Li   22   3.343   1.412   1.475 -1.3362 -0.1593 -0.5210
   23Li+     Li   23   1.844   5.282   1.565  1.1960  0.1536 -0.9205
   24Li+     Li   24   2.345   0.840   3.517  0.4234  1.3971  0.8312
   25Li+     Li   25   2.898   5.666   1.242  0.2960 -0.0421 -1.3835
   26c3c     N4   26   2.963   5.099   1.276 -0.0502  0.2232 -0.6929
   26c3c     C1   27   2.905   4.985   1.196  0.3274 -0.3344  0.1697
   26c3c     C1   28   2.906   5.225   1.213  0.0970 -0.1932  0.1361
   26c3c     C2   29   2.788   5.045   1.115  0.7675 -0.1837 -0.1749
   26c3c     C2   30   2.768   5.189   1.160 -0.2733  0.2951 -0.1702
   26c3c     C1   31   2.914   5.091   1.417 -0.2398  0.3089 -0.2383
   26c3c     C1   32   3.107   5.103   1.294 -0.0105 -0.3124 -0.3416
   26c3c     H1   33   2.864   4.904   1.256 -2.9075  1.6967  0.8488
   26c3c     H1   34   2.972   4.943   1.121  0.4086  0.5488 -0.2667
   26c3c     H1   35   2.893   5.313   1.275  0.2339 -1.3737  1.8957
   26c3c     H1   36   2.971   5.275   1.143  0.2515  0.3370  0.6556
   26c3c     HC   37   2.690   4.997   1.116  0.2516  0.8466 -0.7197
   26c3c     HC   38   2.810   5.058   1.010 -1.3252  1.4613 -0.4378
   26c3c     HC   39   2.695   5.185   1.241 -0.4244  0.6272 -0.2859
   26c3c     HC   40   2.718   5.256   1.090 -1.7239  0.9369  1.4371
   26c3c     H1   41   2.963   5.007   1.467 -0.5483 -1.3403 -2.5760
   26c3c     H1   42   2.923   5.170   1.491  1.1399 -0.7377  0.7419
   26c3c     H1   43   2.806   5.070   1.414  0.2591 -2.4429 -0.8058
   26c3c     H1   44   3.133   5.199   1.339  0.3727 -0.1102 -0.9817
   26c3c     H1   45   3.137   5.031   1.369 -2.8442  0.0301  1.1998
   26c3c     C2   46   3.193   5.094   1.167 -0.2959  0.1696  0.4040
   26c3c     HC   47   3.176   5.189   1.116  1.8108  0.5103  0.3145
   26c3c     HC   48   3.170   5.010   1.102  1.1121 -0.5347  0.7977
   26c3c     CT   49   3.344   5.093   1.200  0.2903 -0.2086 -0.2248
   26c3c     HC   50   3.388   5.176   1.255  0.5065  0.3481 -1.2292
   26c3c     HC   51   3.408   5.092   1.112 -1.1323 -2.1715 -1.2840
   26c3c     HC   52   3.379   5.007   1.257 -2.1457 -0.2543  1.2685
   27c3c     N4   53   2.891   1.640   3.329 -0.3403  0.2333 -0.4926
   27c3c     C1   54   2.803   1.757   3.329 -0.8412  0.1162 -0.1475
   27c3c     C1   55   2.913   1.621   3.183 -0.1177  0.2783  0.3319
   27c3c     C2   56   2.825   1.836   3.192 -0.4540  0.1847  0.1194
   27c3c     C2   57   2.935   1.756   3.119 -0.2022 -0.4925  0.2643
   27c3c     C1   58   3.016   1.678   3.396  0.2058  0.4989 -0.5305
   27c3c     C1   59   2.821   1.526   3.394 -0.7102  1.1246 -0.5178
   27c3c     H1   60   2.817   1.810   3.423 -0.1227 -3.1611  1.6940
   27c3c     H1   61   2.699   1.730   3.346 -0.4976 -0.1558  1.5525
   27c3c     H1   62   3.001   1.556   3.185  0.7609  1.4127 -0.3723
   27c3c     H1   63   2.830   1.565   3.140 -0.5288  0.5111  0.8207
   27c3c     HC   64   2.857   1.940   3.203  0.6276 -0.2656  1.4183
   27c3c     HC   65   2.729   1.838   3.142 -1.3124 -1.0054  1.6709
   27c3c     HC   66   3.033   1.797   3.145 -1.1305  0.2830  2.6444
   27c3c     HC   67   2.926   1.766   3.011 -2.0115 -2.8448  0.1532
   27c3c     H1   68   3.004   1.704   3.501 -0.2132  0.9741 -0.6995
   27c3c     H1   69   3.087   1.595   3.403 -0.3508  0.2477  2.9928
   27c3c     H1   70   3.073   1.757   3.347  0.6680 -0.1237 -1.0194
   27c3c     H1   71   2.724   1.506   3.348 -1.3981 -0.0910  1.3784
   27c3c     H1   72   2.887   1.441   3.379 -0.7727  0.9759  0.0420
   27c3c     C2   73   2.801   1.532   3.547  0.2564  0.0856 -0.1489
   27c3c     HC   74   2.754   1.628   3.570  2.2327  1.3937 -1.3921
   27c3c     HC   75   2.900   1.544   3.591 -0.4251  0.6809  1.2487
   27c3c     CT   76   2.717   1.418   3.609  0.5706 -0.1568 -0.0683
   27c3c     HC   77   2.631   1.403   3.544  0.9585 -0.0924 -0.5990
   27c3c     HC   78   2.666   1.448   3.700 -1.9947  2.1644 -2.1895
   27c3c     HC   79   2.763   1.319   3.619  1.4871  0.1514 -1.1025
   28c3c     N4   80   1.993   0.036   2.974  0.3197 -0.1538  0.4627
   28c3c     C1   81   1.985  -0.045   2.855 -0.0124  0.5345 -0.1544
   28c3c     C1   82   2.064   0.158   2.938 -0.0713  0.4610  0.0121
   28c3c     C2   83   1.972   0.056   2.735  0.1708 -0.5513 -0.5386
   28c3c     C2   84   2.033   0.183   2.790  0.5037 -0.3754 -0.3724
   28c3c     C1   85   1.861   0.078   3.023 -0.2920 -0.8578  0.6940
   28c3c     C1   86   2.056  -0.029   3.090  0.2496 -0.4192  0.0259
   28c3c     H1   87   1.901  -0.113   2.866  1.1423 -0.8166  0.5115
   28c3c     H1   88   2.078  -0.101   2.840 -1.4533 -2.3001  1.1619
   28c3c     H1   89   2.037   0.245   2.998  0.2039 -0.5126  1.5614
   28c3c     H1   90   2.171   0.141   2.951  0.0683  2.3076  1.3863
   28c3c     HC   91   1.868   0.072   2.706  0.4905 -0.2029 -1.5129
   28c3c     HC   92   2.023   0.021   2.645  2.5657  0.8085  0.2353
   28c3c     HC   93   1.965   0.269   2.791 -0.0339 -0.7940 -0.5956
   28c3c     HC   94   2.130   0.207   2.747  1.2505 -0.3850  1.2847
   28c3c     H1   95   1.800  -0.013   3.022 -0.9696 -0.4089 -0.2954
   28c3c     H1   96   1.853   0.139   3.113 -0.7297 -0.0564  0.1234
   28c3c     H1   97   1.817   0.135   2.941 -0.8660  1.0534  2.2990
   28c3c     H1   98   2.058   0.042   3.173 -2.4247  0.7270 -0.8446
   28c3c     H1   99   1.980  -0.101   3.119  0.2816 -1.2804 -1.9986
   28c3c     C2  100   2.186  -0.108   3.068 -0.1558 -0.8138  1.2185
   28c3c     HC  101   2.254  -0.059   2.999 -1.1151 -0.2924  0.6394
   28c3c     HC  102   2.168  -0.206   3.023  1.0029 -0.0417 -0.9783
   28c3c     CT  103   2.271  -0.140   3.196 -0.5473  0.4689 -0.1826
   28c3c     HC  104   2.277  -0.056   3.266 -0.8681  0.3920 -0.0596
   28c3c     HC  105   2.376  -0.163   3.179 -0.5093  1.8612 -2.0913
   28c3c     HC  106   2.215  -0.220   3.244  0.2697  0.1015  0.1593
   29c3c     N4  107   4.700   3.161   1.573 -0.0094 -0.1780 -0.3352
   29c3c     C1  108   4.685   3.056   1.471 -1.0513 -0.1428 -0.3775
   29c3c     C1  109   4.575   3.237   1.575  0.2787 -0.1981 -0.4760
   29c3c     C2  110   4.529   3.021   1.467  0.3220 -0.3093  0.0022
   29c3c     C2  111   4.470   3.131   1.563 -0.2400  0.5136  0.1348
   29c3c     C1  112   4.725   3.103   1.705  0.3128  0.1805  0.5421
   29c3c     C1  113   4.817   3.245   1.554 -0.2923 -0.2931  0.4202
   29c3c     H1  114   4.748   2.967   1.484 -2.5162 -1.6538 -3.2434
   29c3c     H1  115   4.709   3.092   1.372  2.3996  2.2255  1.2373
   29c3c     H1  116   4.560   3.302   1.661  0.3837  1.2524 -1.5439
   29c3c     H1  117   4.572   3.298   1.485  0.9816  0.6992  0.0994
   29c3c     HC  118   4.512   2.925   1.514 -0.0823  0.0309  0.5554
   29c3c     HC  119   4.490   3.019   1.365  0.4529  0.8174 -0.0831
   29c3c     HC  120   4.447   3.083   1.658  0.3013  0.5207  0.2711
   29c3c     HC  121   4.381   3.178   1.523  0.3970 -0.7456 -2.9233
   29c3c     H1  122   4.820   3.049   1.708  0.8436  0.7552 -3.5853
   29c3c     H1  123   4.736   3.182   1.779  0.1643 -0.7997  1.6362
   29c3c     H1  124   4.645   3.037   1.739  0.4572 -0.3818 -0.2008
   29c3c     H1  125   4.816   3.327   1.626 -0.2823  1.7496 -1.8236
   29c3c     H1  126   4.906   3.184   1.567  0.0811 -0.0775 -1.0650
   29c3c     C2  127   4.836   3.319   1.414 -0.3827  0.0469 -0.4675
   29c3c     HC  128   4.749   3.373   1.376  0.7832  1.7905 -0.7193
   29c3c     HC  129   4.863   3.256   1.329  0.4257  1.8786 -1.5885
   29c3c     CT  130   4.947   3.414   1.413  0.1612  0.3448  0.6614
   29c3c     HC  131   5.027   3.373   1.476 -0.0693 -1.4757 -0.2181
   29c3c     HC  132   4.914   3.505   1.464 -1.3592 -0.0921  0.4663
   29c3c     HC  133   4.992   3.426   1.315  0.1443  0.5155  0.6740
   30c3c     N4  134   4.343   2.341   2.892  0.5184 -0.2275  0.0335
   30c3c     C1  135   4.280   2.468   2.839  0.6988  0.2480  0.2760
   30c3c     C1  136   4.483   2.381   2.933  0.0080 -0.0914 -0.3121
   30c3c     C2  137   4.322   2.577   2.947  0.5766 -0.3029  0.4780
   30c3c     C2  138   4.449   2.516   3.009 -0.7695 -0.2957  0.2690
   30c3c     C1  139   4.270   2.274   2.999  0.2747 -0.0622 -0.1517
   30c3c     C1  140   4.364   2.237   2.789 -0.1563  0.9834  0.7037
   30c3c     H1  141   4.175   2.450   2.815  0.8386 -0.4993  0.2018
   30c3c     H1  142   4.326   2.499   2.745 -0.3309 -1.0295 -0.6665
   30c3c     H1  143   4.536   2.308   2.994  1.3653  0.1283 -1.1925
   30c3c     H1  144   4.541   2.413   2.846 -1.3355  0.3022 -1.0651
   30c3c     HC  145   4.248   2.589   3.026  1.1293 -1.3146  1.1696
   30c3c     HC  146   4.345   2.671   2.897  0.1972 -1.4206 -1.8590
   30c3c     HC  147   4.430   2.478   3.109  0.3793  0.6976  0.8722
   30c3c     HC  148   4.528   2.591   3.009 -2.4351  1.5352 -0.4407
   30c3c     H1  149   4.176   2.240   2.956  0.3873 -0.1968 -0.2935
   30c3c     H1  150   4.320   2.185   3.036 -0.4617 -0.2826  0.3222
   30c3c     H1  151   4.252   2.350   3.075 -2.2555 -0.9484  0.1827
   30c3c     H1  152   4.409   2.148   2.832  0.1343 -0.8500 -3.2150
   30c3c     H1  153   4.265   2.202   2.764  1.0793 -0.3722 -2.5516
   30c3c     C2  154   4.427   2.272   2.649 -0.5723 -0.0417 -1.0629
   30c3c     HC  155   4.534   2.293   2.660 -1.2994  2.6651  1.7903
   30c3c     HC  156   4.381   2.355   2.596 -0.4076  0.6274 -0.1748
   30c3c     CT  157   4.421   2.158   2.556 -0.3572  0.7110  0.5028
   30c3c     HC  158   4.317   2.146   2.527 -0.1454 -1.6711  0.6728
   30c3c     HC  159   4.451   2.061   2.594  1.3782  0.8796 -0.3920
   30c3c     HC  160   4.456   2.172   2.453 -1.8038 -0.0013 -0.0967
   31c3c     N4  161   5.379   2.895   1.005 -0.1307  0.4063  0.0118
   31c3c     C1  162   5.368   2.978   1.130 -0.0844 -0.7141  0.1677
   31c3c     C1  163   5.257   2.931   0.931 -0.5688  0.0241  0.2993
   31c3c     C2  164   5.305   3.108   1.084 -0.6967 -0.2539 -0.6023
   31c3c     C2  165   5.230   3.079   0.957 -0.5079 -0.0261  0.1272
   31c3c     C1  166   5.496   2.938   0.933 -0.2531 -0.1409  0.3542
   31c3c     C1  167   5.398   2.750   1.030 -0.1271 -0.2658 -0.0187
   31c3c     H1  168   5.464   2.978   1.179  0.6843 -1.8946 -1.2855
   31c3c     H1  169   5.307   2.920   1.199  1.0787 -1.1108  0.8719
   31c3c     H1  170   5.267   2.899   0.828 -1.0468 -2.5856  1.0330
   31c3c     H1  171   5.165   2.889   0.972  0.3997  0.0937  2.6620
   31c3c     HC  172   5.381   3.180   1.055  1.2068 -1.9910 -0.0412
   31c3c     HC  173   5.245   3.153   1.163 -1.0179  0.1630 -1.0801
   31c3c     HC  174   5.275   3.140   0.878 -0.2215  1.0062  1.0814
   31c3c     HC  175   5.125   3.101   0.972 -0.0773  0.3925  2.7167
   31c3c     H1  176   5.585   2.943   0.996  1.3779 -0.6813 -1.8538
   31c3c     H1  177   5.517   2.865   0.856 -1.6991 -0.1541 -0.0533
   31c3c     H1  178   5.476   3.034   0.885 -1.2118 -1.4083 -1.8241
   31c3c     H1  179   5.402   2.688   0.941  0.6182 -1.7103  1.0008
   31c3c     H1  180   5.499   2.733   1.068  0.9013  0.8279 -2.1686
   31c3c     C2  181   5.297   2.678   1.123  0.2461  0.1412  0.0071
   31c3c     HC  182   5.193   2.704   1.103 -0.0235 -0.5182  0.5260
   31c3c     HC  183   5.315   2.714   1.225  1.4040  2.1606 -0.8766
   31c3c     CT  184   5.313   2.526   1.116 -0.1975 -0.3102  0.2759
   31c3c     HC  185   5.410   2.501   1.158  1.1028  1.7012 -1.4270
   31c3c     HC  186   5.302   2.491   1.013  0.5650  0.4284 -0.0678
   31c3c     HC  187   5.236   2.481   1.179 -0.3838 -0.6436 -0.1896
   32c3c     N4  188   2.582   0.065   2.316  0.5985  0.0489  0.0898
   32c3c     C1  189   2.466   0.018   2.392 -0.0235 -0.0166 -0.6956
   32c3c     C1  190   2.626   0.180   2.393 -0.0480  0.3109 -0.5037
   32c3c     C2  191   2.519   0.013   2.537  0.3228  0.6664  0.7400
   32c3c     C2  192   2.620   0.126   2.537 -0.2707 -0.3465  0.3121
   32c3c     C1  193   2.686  -0.039   2.303  0.1289  0.1148 -0.7660
   32c3c     C1  194   2.544   0.110   2.178  0.7280  0.5694  0.4796
   32c3c     H1  195   2.414  -0.075   2.368  2.0939 -0.9665 -1.7145
   32c3c     H1  196   2.399   0.104   2.384  1.1775  0.7316 -3.1175
   32c3c     H1  197   2.723   0.222   2.366 -0.7181  0.7592 -2.2803
   32c3c     H1  198   2.554   0.261   2.385  1.5521  1.7369 -0.6549
   32c3c     HC  199   2.559  -0.085   2.563 -0.2198  0.3386  0.3566
   32c3c     HC  200   2.429   0.031   2.596 -0.0249 -2.8717  1.3908
   32c3c     HC  201   2.716   0.089   2.574 -0.3031  0.9161  1.7436
   32c3c     HC  202   2.585   0.196   2.613 -0.5578  2.5629 -2.3956
   32c3c     H1  203   2.652  -0.125   2.246 -0.1638  0.1157 -0.5940
   32c3c     H1  204   2.765   0.003   2.241  0.3343  2.0081  0.7129
   32c3c     H1  205   2.724  -0.071   2.400  2.6793  1.9205 -1.1021
   32c3c     H1  206   2.630   0.154   2.128  0.7879 -1.6263 -1.4432
   32c3c     H1  207   2.519   0.014   2.133 -2.1907  1.4145  0.1691
   32c3c     C2  208   2.435   0.212   2.160 -0.2456  0.1570  0.8282
   32c3c     HC  209   2.452   0.309   2.207 -0.0358  0.0520  0.9687
   32c3c     HC  210   2.342   0.178   2.205 -0.8132  0.3559 -0.1792
   32c3c     CT  211   2.393   0.225   2.015  0.1535 -0.1857  0.0946
   32c3c     HC  212   2.291   0.264   2.017 -0.1906 -0.8423 -2.8719
   32c3c     HC  213   2.383   0.124   1.975 -4.2109  0.6636 -1.1959
   32c3c     HC  214   2.462   0.285   1.956 -1.1808  3.3131  1.9231
   33c3c     N4  215   4.910   2.561   2.408  0.1590  0.2609 -0.1077
   33c3c     C1  216   4.773   2.519   2.437 -0.0530 -0.2168 -0.0728
   33c3c     C1  217   4.974   2.428   2.397  0.0501 -0.1057 -0.3982
   33c3c     C2  218   4.744   2.415   2.332  0.3371  0.0507 -0.1972
   33c3c     C2  219   4.877   2.348   2.315 -0.0911 -0.1944  1.2823
   33c3c     C1  220   4.916   2.630   2.280  0.2233 -0.1810  0.0130
   33c3c     C1  221   4.970   2.651   2.511  0.5071  0.0590 -0.2991
   33c3c     H1  222   4.713   2.609   2.427  2.2446  1.3608  0.0799
   33c3c     H1  223   4.762   2.477   2.537  0.3433  1.3025  0.6102
   33c3c     H1  224   5.076   2.425   2.360  0.4537 -3.0850  0.8898
   33c3c     H1  225   4.989   2.378   2.492  1.4855 -1.6755 -1.4228
   33c3c     HC  226   4.707   2.466   2.243  0.6067 -0.9919 -0.9090
   33c3c     HC  227   4.671   2.348   2.377 -0.1734  0.5772 -0.2345
   33c3c     HC  228   4.914   2.356   2.212 -2.2901 -0.8128  0.4062
   33c3c     HC  229   4.873   2.243   2.343  0.4685 -0.6622 -0.3052
   33c3c     H1  230   4.876   2.731   2.287 -0.6242 -0.6464  2.2493
   33c3c     H1  231   5.015   2.641   2.235  0.5314  0.9782  0.9524
   33c3c     H1  232   4.869   2.578   2.196  1.4666 -1.5779  0.1528
   33c3c     H1  233   5.063   2.683   2.464  0.7023 -2.3023 -1.5729
   33c3c     H1  234   4.910   2.742   2.515 -1.7822 -1.3556 -1.5578
   33c3c     C2  235   5.007   2.606   2.654  0.1811 -0.2395  0.8381
   33c3c     HC  236   5.093   2.540   2.655  0.5323  0.0439 -2.9622
   33c3c     HC  237   4.920   2.550   2.690 -0.5124  0.8570  0.9065
   33c3c     CT  238   5.041   2.724   2.747 -0.5397  0.1219 -0.3110
   33c3c     HC  239   5.093   2.687   2.835 -0.2819 -0.8926 -0.8779
   33c3c     HC  240   4.964   2.791   2.784 -1.4956 -1.4826  0.6261
   33c3c     HC  241   5.108   2.790   2.691 -2.3710  1.1855 -1.2850
   34c3c     N4  242   2.201   1.226   3.170  0.6418 -1.0432 -1.3063
   34c3c     C1  243   2.167   1.334   3.268 -0.3362  0.1993 -0.6556
   34c3c     C1  244   2.215   1.109   3.265  0.4185 -0.5234 -0.0569
   34c3c     C2  245   2.065   1.267   3.360  0.3983 -0.7966 -0.6206
   34c3c     C2  246   2.098   1.126   3.363 -0.4748 -0.1680 -0.1427
   34c3c     C1  247   2.092   1.196   3.083  0.0673 -0.5619  0.6164
   34c3c     C1  248   2.320   1.260   3.083  0.0690 -0.0533 -0.1093
   34c3c     H1  249   2.140   1.427   3.218 -0.4130  0.7688  0.4403
   34c3c     H1  250   2.259   1.343   3.324 -0.9254 -0.4171  0.4436
   34c3c     H1  251   2.200   1.013   3.216 -1.5713 -0.8144  1.0713
   34c3c     H1  252   2.305   1.101   3.325  1.6713 -0.6564 -1.9179
   34c3c     HC  253   1.961   1.288   3.334 -0.1935 -1.1374  1.3880
   34c3c     HC  254   2.073   1.306   3.461 -1.1024  0.3525 -0.9331
   34c3c     HC  255   2.018   1.055   3.341  0.6130 -1.6259  0.5366
   34c3c     HC  256   2.136   1.095   3.460 -1.9245  0.0704  0.5174
   34c3c     H1  257   2.066   1.250   2.992  2.8323 -0.8950 -0.4205
   34c3c     H1  258   2.098   1.095   3.042 -1.6191 -0.8948  1.1452
   34c3c     H1  259   1.994   1.196   3.132  1.1517 -0.5674  2.8233
   34c3c     H1  260   2.334   1.189   3.002  1.1165  0.3524 -0.2861
   34c3c     H1  261   2.299   1.351   3.027 -1.8872 -0.8033 -0.6604
   34c3c     C2  262   2.459   1.268   3.155  0.7194 -0.2879 -0.0193
   34c3c     HC  263   2.499   1.183   3.211  2.0433 -0.6241 -1.4460
   34c3c     HC  264   2.455   1.345   3.233  1.0849  1.6945 -1.9246
   34c3c     CT  265   2.571   1.299   3.049 -0.8730  0.0220 -0.1086
   34c3c     HC  266   2.550   1.391   2.995 -0.1360  0.3865  0.2223
   34c3c     HC  267   2.588   1.217   2.980  0.4400  0.2517 -0.0706
   34c3c     HC  268   2.661   1.305   3.110 -0.5454 -0.9792 -0.4875
   35c3c     N4  269   2.569   5.240   1.955  0.0818  0.6154 -0.3514
   35c3c     C1  270   2.560   5.344   1.846  0.2674 -0.6287  0.5044
   35c3c     C1  271   2.494   5.122   1.900 -1.1569 -0.8978 -0.3225
   35c3c     C2  272   2.575   5.261   1.718 -0.0102  0.1033 -0.2561
   35c3c     C2  273   2.543   5.115   1.756 -0.1297  0.8185  0.0966
   35c3c     C1  274   2.705   5.202   1.997  0.2853  0.5688 -0.1682
   35c3c     C1  275   2.504   5.281   2.087  0.0114 -0.5469 -0.1861
   35c3c     H1  276   2.640   5.418   1.845 -0.5136  0.2328 -1.3148
   35c3c     H1  277   2.466   5.400   1.848 -0.2235 -1.4870  4.2551
   35c3c     H1  278   2.511   5.032   1.959  0.9305  0.2134  0.8487
   35c3c     H1  279   2.389   5.150   1.895 -0.5597  1.3448 -0.9329
   35c3c     HC  280   2.661   5.281   1.654 -0.5897  1.9717 -0.4757
   35c3c     HC  281   2.500   5.299   1.649  0.9867 -0.9783 -1.9554
   35c3c     HC  282   2.636   5.060   1.739 -0.2802  0.6387 -0.1393
   35c3c     HC  283   2.466   5.066   1.696  0.6717  0.8306 -0.9445
   35c3c     H1  284   2.769   5.286   2.024  2.9708 -0.6679 -2.4149
   35c3c     H1  285   2.701   5.134   2.082 -1.8861  5.4675  3.9560
   35c3c     H1  286   2.756   5.152   1.915  1.3288 -0.3620  1.0313
   35c3c     H1  287   2.502   5.192   2.150  0.7877 -0.8131 -0.5321
   35c3c     H1  288   2.560   5.362   2.134 -1.0697 -0.6397  1.2539
   35c3c     C2  289   2.363   5.350   2.086  0.4459  0.5480 -0.2309
   35c3c     HC  290   2.304   5.280   2.025  2.6327 -0.8162 -0.8375
   35c3c     HC  291   2.382   5.446   2.038 -1.1459  0.2208 -1.5973
   35c3c     CT  292   2.307   5.354   2.227 -0.5507  0.0210 -0.0193
   35c3c     HC  293   2.366   5.419   2.292 -1.4211  0.3500  0.4465
   35c3c     HC  294   2.318   5.260   2.280 -0.3647  1.3398  2.3780
   35c3c     HC  295   2.204   5.389   2.237 -1.0978 -1.5346 -0.1853
   36c3c     N4  296   3.128   6.210   0.963  0.0055  1.2629 -0.7124
   36c3c     C1  297   3.098   6.075   1.004 -0.4735 -0.4011  0.7076
   36c3c     C1  298   3.065   6.207   0.832  0.1569 -0.1486 -1.3783
   36c3c     C2  299   2.950   6.049   0.955  0.1608 -0.3515 -0.2462
   36c3c     C2  300   2.925   6.151   0.840  0.1877  0.7611 -0.2575
   36c3c     C1  301   3.071   6.311   1.053 -0.3944  0.3602 -0.1063
   36c3c     C1  302   3.277   6.233   0.956  0.4830 -0.1554 -0.2720
   36c3c     H1  303   3.118   6.061   1.110 -1.2911 -2.6418  0.5942
   36c3c     H1  304   3.160   5.997   0.960 -1.6174  0.0735 -1.8203
   36c3c     H1  305   3.045   6.306   0.789 -2.8350 -0.6483 -1.2231
   36c3c     H1  306   3.119   6.155   0.753 -0.0648  0.4563 -1.9357
   36c3c     HC  307   2.883   6.052   1.041  0.5956  2.5516  0.0631
   36c3c     HC  308   2.946   5.947   0.918  1.7957 -0.1564 -0.9971
   36c3c     HC  309   2.853   6.231   0.858  1.9580  2.2300  0.4482
   36c3c     HC  310   2.904   6.100   0.746 -0.4040 -1.4665  1.0378
   36c3c     H1  311   3.118   6.315   1.151 -2.2623 -1.2151  0.8863
   36c3c     H1  312   3.074   6.412   1.013 -2.5304  0.3971 -0.2534
   36c3c     H1  313   2.967   6.289   1.077 -0.0244 -0.8001  0.4683
   36c3c     H1  314   3.279   6.335   0.918  2.7271 -0.1863 -0.3220
   36c3c     H1  315   3.315   6.240   1.059 -0.6941 -0.8670  0.2124
   36c3c     C2  316   3.370   6.149   0.865 -0.4303  0.3893 -0.0826
   36c3c     HC  317   3.329   6.147   0.764  2.0767 -1.2868 -1.1161
   36c3c     HC  318   3.358   6.043   0.886 -0.4703  0.4369  0.1326
   36c3c     CT  319   3.520   6.180   0.886  0.9154 -0.4564 -0.1962
   36c3c     HC  320   3.554   6.275   0.845  1.9395 -1.5062 -1.8774
   36c3c     HC  321   3.583   6.093   0.864  0.4889 -0.6585 -0.6352
   36c3c     HC  322   3.547   6.184   0.991  0.1412  0.9770 -0.0441
   37c3c     N4  323   3.390   2.110   3.659  0.6451  1.0287  0.1440
   37c3c     C1  324   3.508   2.150   3.580  0.2425  0.6472  0.0076
   37c3c     C1  325   3.420   1.973   3.698  0.0742 -0.0503  0.3996
   37c3c     C2  326   3.628   2.095   3.664 -0.2912 -0.1068  0.1644
   37c3c     C2  327   3.562   1.976   3.742 -0.7593  0.1711  0.5767
   37c3c     C1  328   3.383   2.195   3.777 -0.2310  0.0018  0.6312
   37c3c     C1  329   3.261   2.119   3.592  0.1691 -0.0356  0.7879
   37c3c     H1  330   3.507   2.259   3.570 -0.9687  0.7209  0.8445
   37c3c     H1  331   3.506   2.100   3.484 -2.0300 -0.6776  0.7116
   37c3c     H1  332   3.359   1.944   3.783  0.0259 -0.7186  0.1358
   37c3c     H1  333   3.413   1.901   3.617 -0.4538 -0.6180  0.9448
   37c3c     HC  334   3.671   2.163   3.737  0.9097 -2.3438  1.5966
   37c3c     HC  335   3.713   2.060   3.606 -0.0372  0.0237  0.4551
   37c3c     HC  336   3.565   1.985   3.851 -1.3269  0.6457  0.5576
   37c3c     HC  337   3.619   1.885   3.727  0.7876  1.3320 -0.6977
   37c3c     H1  338   3.377   2.299   3.745 -1.5987 -0.1230  0.4336
   37c3c     H1  339   3.292   2.184   3.836 -0.1208 -0.8488  0.6502
   37c3c     H1  340   3.470   2.190   3.842  0.5429  1.8892 -0.2327
   37c3c     H1  341   3.189   2.084   3.666  0.6638 -0.8967  0.8684
   37c3c     H1  342   3.240   2.224   3.573 -1.1618 -0.2428  1.0448
   37c3c     C2  343   3.245   2.049   3.459 -0.4372  0.4547  0.5316
   37c3c     HC  344   3.275   1.945   3.473  0.5662  0.6708  0.0184
   37c3c     HC  345   3.288   2.094   3.369  1.1010  1.2804  1.6691
   37c3c     CT  346   3.100   2.053   3.395  0.0220  0.6337 -0.4452
   37c3c     HC  347   3.076   2.158   3.379  2.8329  1.2923 -0.5862
   37c3c     HC  348   3.028   2.001   3.460 -0.2075  0.5128 -0.7926
   37c3c     HC  349   3.091   2.002   3.299 -2.2170  1.9976 -0.9845
   38c3c     N4  350   3.408   0.856   0.952 -0.1897 -0.1390  0.0587
   38c3c     C1  351   3.454   0.808   1.080 -0.4986 -0.0877  0.1416
   38c3c     C1  352   3.463   0.760   0.856 -0.1458 -0.1766  0.1177
   38c3c     C2  353   3.433   0.653   1.075 -0.3848 -0.2132  0.3902
   38c3c     C2  354   3.450   0.624   0.924 -0.1915  0.0428 -0.5665
   38c3c     C1  355   3.258   0.859   0.954 -0.3257  0.1801  0.4418
   38c3c     C1  356   3.458   0.991   0.928 -0.5872  0.5764  0.3893
   38c3c     H1  357   3.410   0.868   1.159 -1.3377 -0.7978  0.2185
   38c3c     H1  358   3.559   0.816   1.107 -0.2602 -0.6725 -0.6017
   38c3c     H1  359   3.421   0.763   0.755  0.3239  1.2552 -0.0455
   38c3c     H1  360   3.569   0.780   0.842 -0.0270 -0.1021  1.1093
   38c3c     HC  361   3.332   0.621   1.099 -0.4639  2.1599  3.6840
   38c3c     HC  362   3.493   0.591   1.142 -0.9611 -1.3527 -0.1412
   38c3c     HC  363   3.363   0.569   0.889 -0.9131  1.2555 -0.7126
   38c3c     HC  364   3.540   0.566   0.901  0.6696  0.7456  0.9078
   38c3c     H1  365   3.220   0.930   1.027 -1.5352  1.1208 -1.0951
   38c3c     H1  366   3.223   0.866   0.851 -0.2156 -0.7948  0.3327
   38c3c     H1  367   3.204   0.767   0.977 -0.1928 -0.3573 -1.2987
   38c3c     H1  368   3.422   1.038   0.836 -0.2308 -0.1701 -0.1308
   38c3c     H1  369   3.416   1.061   1.000  1.2053  0.1597  1.8781
   38c3c     C2  370   3.611   1.017   0.931  0.0902  0.0465 -0.0526
   38c3c     HC  371   3.672   0.942   0.881 -0.2344  0.1178 -0.5609
   38c3c     HC  372   3.639   1.018   1.036  0.4324  2.0976 -0.1301
   38c3c     CT  373   3.639   1.159   0.872 -0.9743  0.5917 -0.9622
   38c3c     HC  374   3.578   1.238   0.914 -0.8547  0.6112 -0.8249
   38c3c     HC  375   3.623   1.166   0.764  1.8927  3.4745 -1.2664
   38c3c     HC  376   3.742   1.190   0.890 -1.0014  1.8404 -2.8301
   39c3c     N4  377   5.543   2.981   2.130  0.2284  0.3485  0.6756
   39c3c     C1  378   5.604   2.907   2.245 -0.6466  0.0289 -0.1965
   39c3c     C1  379   5.398   2.972   2.153  0.4391  0.2940 -0.8310
   39c3c     C2  380   5.516   2.932   2.370  0.0153  0.7331  0.0146
   39c3c     C2  381   5.381   2.972   2.305 -0.5815 -0.3349  0.4627
   39c3c     C1  382   5.577   3.120   2.145 -0.1507 -0.1546 -0.2560
   39c3c     C1  383   5.588   2.941   1.996  0.6037 -0.1487 -0.0876
   39c3c     H1  384   5.707   2.939   2.260 -0.4437 -0.3549 -0.7550
   39c3c     H1  385   5.599   2.799   2.230  0.9416 -0.0364 -0.3914
   39c3c     H1  386   5.343   3.046   2.095 -1.3031 -1.3750 -1.3614
   39c3c     H1  387   5.359   2.878   2.114  0.6874 -0.5896  0.9951
   39c3c     HC  388   5.557   3.020   2.420  0.6071 -0.2553  1.3061
   39c3c     HC  389   5.528   2.848   2.439 -0.7257  0.1955 -0.5200
   39c3c     HC  390   5.349   3.068   2.344  2.7287  1.1349 -0.3331
   39c3c     HC  391   5.307   2.894   2.323  0.0743 -1.0485  0.0774
   39c3c     H1  392   5.684   3.142   2.149  0.1758 -1.1987 -2.3463
   39c3c     H1  393   5.533   3.183   2.068  0.5087  1.4026  0.6145
   39c3c     H1  394   5.549   3.164   2.241 -0.3110  1.0873 -0.8520
   39c3c     H1  395   5.520   2.991   1.927 -1.1249 -0.7512  1.1477
   39c3c     H1  396   5.689   2.978   1.976  0.5078 -0.7772 -1.8801
   39c3c     C2  397   5.575   2.791   1.965  0.4462  0.2010 -0.4578
   39c3c     HC  398   5.475   2.749   1.973  1.4536 -2.0581  0.8318
   39c3c     HC  399   5.635   2.737   2.038 -0.1511 -1.3243 -1.0733
   39c3c     CT  400   5.628   2.768   1.827 -0.3844 -0.7000 -0.4283
   39c3c     HC  401   5.580   2.816   1.742 -0.9287 -0.1852  0.1603
   39c3c     HC  402   5.621   2.660   1.819 -1.8604 -0.6989  0.7219
   39c3c     HC  403   5.733   2.796   1.818  0.0504 -2.1912  0.0089
   40c3c     N4  404   2.400   2.248   2.968  0.0010 -0.5952 -0.1250
   40c3c     C1  405   2.453   2.307   3.094  0.3788 -0.3385 -0.0957
   40c3c     C1  406   2.521   2.187   2.908  0.8067  0.1556  1.2730
   40c3c     C2  407   2.537   2.204   3.150  0.0497 -0.3005  0.4235
   40c3c     C2  408   2.587   2.123   3.025  0.0944 -0.7424 -0.5599
   40c3c     C1  409   2.292   2.153   2.990 -0.3290  0.2122  0.0756
   40c3c     C1  410   2.341   2.349   2.881  0.6806 -0.1481  0.2959
   40c3c     H1  411   2.372   2.327   3.164  0.4022 -0.1484 -0.1229
   40c3c     H1  412   2.522   2.390   3.084 -0.8522  1.0394  2.4371
   40c3c     H1  413   2.477   2.131   2.825  0.2000  0.0278  1.6758
   40c3c     H1  414   2.601   2.251   2.870  0.8548  0.5493  2.0221
   40c3c     HC  415   2.486   2.141   3.224  0.8568 -0.2829  1.0076
   40c3c     HC  416   2.615   2.243   3.216  0.5108 -1.9891  0.9135
   40c3c     HC  417   2.540   2.026   3.042  0.1849 -0.4384  1.5298
   40c3c     HC  418   2.695   2.105   3.022  0.4969  1.4514  0.1486
   40c3c     H1  419   2.204   2.187   3.044  0.5727 -0.2409  1.9025
   40c3c     H1  420   2.249   2.111   2.900  0.4807 -0.4879  0.0002
   40c3c     H1  421   2.323   2.072   3.057  0.3063 -0.1547 -0.6514
   40c3c     H1  422   2.305   2.308   2.787 -0.3540 -0.1351  0.6741
   40c3c     H1  423   2.253   2.379   2.938 -1.2856  2.6776 -3.9902
   40c3c     C2  424   2.434   2.472   2.839  0.6074  0.1314  0.4243
   40c3c     HC  425   2.525   2.452   2.783  0.0842  1.2908 -0.8455
   40c3c     HC  426   2.464   2.535   2.923 -2.2582 -0.6497  2.0757
   40c3c     CT  427   2.339   2.569   2.768  1.0202 -0.2472  0.2415
   40c3c     HC  428   2.397   2.646   2.718 -1.6705  1.4820 -0.2597
   40c3c     HC  429   2.276   2.627   2.836  0.5014  0.8317 -1.1529
   40c3c     HC  430   2.286   2.523   2.685  3.0060  2.8421 -2.8624
   41c3c     N4  431   2.383   5.547   0.991 -0.3005  0.2585  0.3486
   41c3c     C1  432   2.384   5.608   1.127 -0.3635 -0.2295  0.2185
   41c3c     C1  433   2.237   5.553   0.954 -1.1776  0.3981 -0.4571
   41c3c     C2  434   2.275   5.723   1.116 -0.0051  0.7367 -0.7740
   41c3c     C2  435   2.187   5.689   0.991  0.1337  0.6826 -0.7780
   41c3c     C1  436   2.477   5.625   0.909 -0.4138  0.4835  0.0632
   41c3c     C1  437   2.434   5.406   0.982  0.3982 -0.1053  0.7367
   41c3c     H1  438   2.483   5.624   1.170 -1.0530 -2.4514  2.7478
   41c3c     H1  439   2.344   5.540   1.202  3.4714  0.6371  3.2268
   41c3c     H1  440   2.235   5.532   0.847 -0.1794 -0.2313 -0.3570
   41c3c     H1  441   2.169   5.499   1.019 -0.9638  0.3191 -0.2991
   41c3c     HC  442   2.322   5.820   1.099 -0.9402  0.9795 -2.0291
   41c3c     HC  443   2.213   5.736   1.205  0.1930 -0.3023 -0.4772
   41c3c     HC  444   2.202   5.753   0.905  1.5989  1.3022 -0.0800
   41c3c     HC  445   2.082   5.692   1.021  0.4704  1.0202  0.4376
   41c3c     H1  446   2.575   5.604   0.951 -0.5611 -2.9547 -1.1875
   41c3c     H1  447   2.477   5.616   0.801 -1.5190 -0.2041  0.1050
   41c3c     H1  448   2.470   5.734   0.915  1.2479  0.5751  0.5214
   41c3c     H1  449   2.434   5.369   0.879  1.4589  2.1737 -0.1072
   41c3c     H1  450   2.527   5.422   1.037 -0.2989  2.6681  1.1588
   41c3c     C2  451   2.351   5.305   1.071 -0.1515  0.3400 -0.1331
   41c3c     HC  452   2.244   5.317   1.058 -0.6620  0.0995  3.3602
   41c3c     HC  453   2.373   5.329   1.176 -1.6151 -0.1437  0.2882
   41c3c     CT  454   2.387   5.153   1.057 -0.5825 -0.3110  0.5610
   41c3c     HC  455   2.325   5.072   1.096  0.8826 -2.3239 -1.1216
   41c3c     HC  456   2.489   5.140   1.096 -0.8591 -3.3313  0.3850
   41c3c     HC  457   2.389   5.109   0.957  0.6465  0.6623  0.1385
   42c3c     N4  458   3.336   0.328   2.507  0.8415  0.1995 -0.1031
   42c3c     C1  459   3.306   0.187   2.524 -0.4869 -1.1707  0.1561
   42c3c     C1  460   3.407   0.336   2.384 -0.6345  0.4206  0.1185
   42c3c     C2  461   3.261   0.147   2.382  0.0794 -0.3784  0.2773
   42c3c     C2  462   3.333   0.245   2.289 -0.2312 -0.7477 -0.0484
   42c3c     C1  463   3.215   0.413   2.505  0.2105 -0.0077  0.0834
   42c3c     C1  464   3.411   0.384   2.616 -0.0209  0.2973 -0.9441
   42c3c     H1  465   3.235   0.181   2.606  0.3878 -0.1032  1.0094
   42c3c     H1  466   3.390   0.121   2.546  0.1773 -0.1769  0.6283
   42c3c     H1  467   3.416   0.440   2.351  0.8004  0.2266 -0.1204
   42c3c     H1  468   3.510   0.300   2.395  0.1883  2.1735 -1.5028
   42c3c     HC  469   3.154   0.159   2.367  0.0254 -1.7324 -0.4611
   42c3c     HC  470   3.281   0.046   2.347 -2.9412 -0.2674 -1.9610
   42c3c     HC  471   3.268   0.313   2.235  0.7826  0.3335  0.0853
   42c3c     HC  472   3.403   0.202   2.217 -0.0015 -1.1724  0.4241
   42c3c     H1  473   3.160   0.377   2.593 -0.1051 -0.1679 -0.1788
   42c3c     H1  474   3.226   0.521   2.513 -2.0741  0.2783 -0.0693
   42c3c     H1  475   3.158   0.403   2.413  1.6746 -1.7306 -0.6408
   42c3c     H1  476   3.419   0.492   2.605 -0.1972  0.7704  2.9767
   42c3c     H1  477   3.351   0.374   2.706 -0.0648 -1.9466 -1.1948
   42c3c     C2  478   3.542   0.313   2.651  0.0445  0.2375  0.6464
   42c3c     HC  479   3.617   0.326   2.573 -1.3871  2.0890 -0.4477
   42c3c     HC  480   3.534   0.213   2.694 -0.7089  0.0951  0.1928
   42c3c     CT  481   3.601   0.375   2.783  0.8327 -0.5346 -0.1228
   42c3c     HC  482   3.645   0.472   2.757 -1.3941  0.3897 -0.5675
   42c3c     HC  483   3.681   0.313   2.824  0.3156  0.5959  2.7028
   42c3c     HC  484   3.537   0.415   2.862  0.4733 -1.0037 -0.1744
   43c3c     N4  485   3.617   1.101   2.839  0.5385  0.3616 -0.3202
   43c3c     C1  486   3.717   1.155   2.744  0.0507  0.2571  0.1287
   43c3c     C1  487   3.664   1.161   2.969 -0.6333  0.1543  0.0648
   43c3c     C2  488   3.742   1.303   2.778 -0.0604 -0.3961  0.4839
   43c3c     C2  489   3.696   1.304   2.929 -0.3791 -0.0876  0.3519
   43c3c     C1  490   3.483   1.135   2.809 -0.0204  0.1261 -0.0838
   43c3c     C1  491   3.615   0.954   2.844  0.6394 -0.0044  0.4284
   43c3c     H1  492   3.671   1.152   2.645 -2.2459  1.4416  1.1321
   43c3c     H1  493   3.820   1.119   2.736  0.3573  0.9688  0.7954
   43c3c     H1  494   3.593   1.154   3.051 -2.2198  1.0486 -1.2044
   43c3c     H1  495   3.748   1.105   3.009 -1.8912 -2.2007 -0.5409
   43c3c     HC  496   3.685   1.380   2.726  1.4209  0.5385  0.2137
   43c3c     HC  497   3.844   1.340   2.774 -0.3922  0.4055 -0.7420
   43c3c     HC  498   3.608   1.368   2.939 -0.1459 -0.0567  2.2884
   43c3c     HC  499   3.775   1.356   2.983  0.9727 -3.0173  1.3173
   43c3c     H1  500   3.447   1.077   2.725  2.3582 -1.9132  0.2276
   43c3c     H1  501   3.413   1.106   2.888 -0.4824 -3.0169 -1.5883
   43c3c     H1  502   3.473   1.243   2.794 -0.9464 -0.1227 -1.2854
   43c3c     H1  503   3.536   0.920   2.912  2.4301 -0.2479  2.4264
   43c3c     H1  504   3.592   0.917   2.744 -0.7855 -2.4541  1.6013
   43c3c     C2  505   3.749   0.887   2.878  0.6882 -0.3433  0.0550
   43c3c     HC  506   3.766   0.898   2.985 -1.0069  1.9921  0.1155
   43c3c     HC  507   3.831   0.926   2.817 -0.9491  0.5619 -1.6359
   43c3c     CT  508   3.736   0.735   2.845 -0.1270 -0.0653 -0.1726
   43c3c     HC  509   3.643   0.692   2.880  0.7269 -0.6029  1.4983
   43c3c     HC  510   3.807   0.682   2.909  1.4698  0.6436 -1.3033
   43c3c     HC  511   3.741   0.719   2.738 -0.3252  1.2521 -0.3885
   44c3c     N4  512   3.553   6.089   1.520  0.3545  0.4261  0.2825
   44c3c     C1  513   3.522   6.139   1.654 -0.2552  1.0222  0.0941
   44c3c     C1  514   3.678   6.013   1.538  0.2648  0.2122  0.1552
   44c3c     C2  515   3.570   6.021   1.752 -0.3952 -0.8293  0.3663
   44c3c     C2  516   3.665   5.935   1.668 -0.0373  0.5994 -0.0310
   44c3c     C1  517   3.449   5.992   1.469  0.0251  0.8881  0.0316
   44c3c     C1  518   3.556   6.195   1.412  0.2294 -0.2232 -0.6163
   44c3c     H1  519   3.416   6.155   1.673 -1.0909 -1.1396 -2.5481
   44c3c     H1  520   3.584   6.226   1.677 -1.6428  1.6110  1.7141
   44c3c     H1  521   3.693   5.957   1.446  0.6192  1.7863 -0.7686
   44c3c     H1  522   3.761   6.084   1.540  1.2981 -0.9040 -1.2515
   44c3c     HC  523   3.492   5.956   1.791 -1.1229 -0.3320 -0.2509
   44c3c     HC  524   3.611   6.062   1.845 -0.8836 -1.9915  1.1041
   44c3c     HC  525   3.621   5.840   1.638 -0.4997  0.9393 -0.4280
   44c3c     HC  526   3.759   5.910   1.718 -0.7113  1.0386  1.5019
   44c3c     H1  527   3.361   6.041   1.426  0.7390  0.0797 -2.4651
   44c3c     H1  528   3.487   5.931   1.386 -1.0149  0.1907  0.0553
   44c3c     H1  529   3.399   5.933   1.545  0.2924  1.3501  0.5657
   44c3c     H1  530   3.577   6.156   1.313  0.7261 -0.4120 -0.4392
   44c3c     H1  531   3.458   6.238   1.396  0.3245  0.7011  1.1391
   44c3c     C2  532   3.640   6.319   1.429  0.2573  0.1609 -0.5414
   44c3c     HC  533   3.738   6.276   1.410 -0.6254 -1.2695 -2.0349
   44c3c     HC  534   3.655   6.353   1.531  0.4963 -2.0266  0.1690
   44c3c     CT  535   3.612   6.436   1.337  0.6394 -0.2004 -0.1282
   44c3c     HC  536   3.690   6.513   1.332  0.6399 -0.3220 -2.8973
   44c3c     HC  537   3.516   6.484   1.354  0.6707 -0.3830  0.5872
   44c3c     HC  538   3.610   6.387   1.240  1.8169 -0.9497  0.2146
   45c3c     N4  539   3.863   1.934   2.219 -0.0767 -0.4973  0.7775
   45c3c     C1  540   4.007   1.937   2.232 -0.0384  0.2248 -0.9250
   45c3c     C1  541   3.834   1.802   2.156 -0.1174  0.7076  0.3659
   45c3c     C2  542   4.043   1.797   2.285 -0.0261 -0.2102 -1.5235
   45c3c     C2  543   3.942   1.701   2.216 -0.0032  0.0145 -0.0970
   45c3c     C1  544   3.806   1.945   2.353  0.7781  0.3923 -0.3784
   45c3c     C1  545   3.808   2.055   2.145 -0.5799 -0.1832  0.1321
   45c3c     H1  546   4.040   2.009   2.307 -0.7486 -0.4654  0.0743
   45c3c     H1  547   4.061   1.943   2.138  0.1341 -0.5658 -0.8761
   45c3c     H1  548   3.730   1.771   2.152 -0.2748  1.2871 -0.1102
   45c3c     H1  549   3.861   1.823   2.052 -0.9093 -0.8525 -0.1751
   45c3c     HC  550   4.038   1.792   2.393  1.5682  2.8624 -1.2540
   45c3c     HC  551   4.144   1.776   2.249  0.5559  1.6210 -0.9932
   45c3c     HC  552   3.895   1.632   2.286 -0.2071  1.3400  1.1013
   45c3c     HC  553   3.977   1.635   2.137 -0.5362 -0.4855  0.0810
   45c3c     H1  554   3.846   2.030   2.408 -1.8224  0.9031  0.8122
   45c3c     H1  555   3.697   1.942   2.345  0.7389 -0.1462  0.3653
   45c3c     H1  556   3.814   1.849   2.403 -2.9704 -0.0820 -0.5462
   45c3c     H1  557   3.699   2.055   2.145 -0.5800  1.2519 -0.2866
   45c3c     H1  558   3.843   2.146   2.194 -1.2902  1.4298 -2.2923
   45c3c     C2  559   3.846   2.070   1.994 -0.1525 -0.4845 -0.1546
   45c3c     HC  560   3.819   1.991   1.924 -0.7200 -0.9695  0.5957
   45c3c     HC  561   3.954   2.087   1.989 -0.4648  1.5129 -0.4798
   45c3c     CT  562   3.787   2.189   1.934  0.7133  0.1345  0.2028
   45c3c     HC  563   3.823   2.195   1.832  3.1819  2.3464  1.1462
   45c3c     HC  564   3.807   2.279   1.993 -3.4307 -0.3365  2.5752
   45c3c     HC  565   3.678   2.185   1.932  0.7911 -1.3555 -1.3527
   46c3c     N4  566   2.953   1.016   3.798 -0.8187  0.4723 -1.0966
   46c3c     C1  567   3.073   0.928   3.800  0.1458 -0.2379 -0.0428
   46c3c     C1  568   2.870   0.950   3.702  0.2602 -1.0209 -0.7375
   46c3c     C2  569   3.025   0.785   3.779 -0.1536 -0.8078  1.2846
   46c3c     C2  570   2.887   0.807   3.724 -0.6998  0.3477 -0.3850
   46c3c     C1  571   2.883   1.005   3.926  0.6014  0.6632 -0.2831
   46c3c     C1  572   2.996   1.154   3.775 -0.7669 -0.3141  0.4142
   46c3c     H1  573   3.121   0.948   3.896 -0.5222  0.1333  0.2209
   46c3c     H1  574   3.152   0.952   3.730 -0.6954 -1.2835 -1.3815
   46c3c     H1  575   2.765   0.979   3.712  0.3712 -1.5902  2.4052
   46c3c     H1  576   2.899   0.971   3.599 -0.5096 -0.1589 -0.7881
   46c3c     HC  577   3.025   0.728   3.872 -0.9515  0.4048  2.0362
   46c3c     HC  578   3.092   0.732   3.711 -0.1891  0.0015  0.6143
   46c3c     HC  579   2.824   0.773   3.806 -0.0129 -0.9175 -0.3705
   46c3c     HC  580   2.870   0.743   3.638 -0.4704  2.0208 -1.7181
   46c3c     H1  581   2.942   1.049   4.006 -0.6372  1.7311  0.0674
   46c3c     H1  582   2.797   1.071   3.914 -0.4289 -0.1832  2.1685
   46c3c     H1  583   2.849   0.904   3.952 -1.4105  0.9985 -1.5306
   46c3c     H1  584   2.913   1.224   3.789  1.6275  3.6284 -3.6826
   46c3c     H1  585   3.064   1.190   3.851 -1.0951  1.4748 -0.1109
   46c3c     C2  586   3.043   1.191   3.636 -0.1621 -0.0644  0.5679
   46c3c     HC  587   2.958   1.195   3.568  0.1820 -2.3882 -0.0387
   46c3c     HC  588   3.111   1.115   3.599  0.8612  0.8063  0.6184
   46c3c     CT  589   3.116   1.332   3.647 -0.3799  0.6781  0.2391
   46c3c     HC  590   3.044   1.398   3.696 -1.6233 -0.3392 -0.1813
   46c3c     HC  591   3.140   1.375   3.550 -1.6018  0.3466 -0.2276
   46c3c     HC  592   3.207   1.321   3.706 -1.4294  2.0293  2.1686
   47c3c     N4  593   3.055   1.374   2.787  0.0599 -0.0084 -0.4921
   47c3c     C1  594   2.934   1.460   2.762 -0.3865  0.9894  0.5184
   47c3c     C1  595   3.041   1.341   2.931 -0.5435  0.4021 -0.1762
   47c3c     C2  596   2.821   1.375   2.834  0.7239  0.0190  0.3644
   47c3c     C2  597   2.895   1.311   2.953  0.9480 -0.3284 -0.1252
   47c3c     C1  598   3.055   1.247   2.708  0.4064  0.0180 -0.1627
   47c3c     C1  599   3.178   1.443   2.760  0.1296  0.4701  0.6947
   47c3c     H1  600   2.908   1.480   2.658 -1.1087 -1.7494  0.1366
   47c3c     H1  601   2.941   1.558   2.808  3.7727  1.4317 -0.7818
   47c3c     H1  602   3.106   1.258   2.958 -1.8480 -0.6437 -0.1864
   47c3c     H1  603   3.068   1.432   2.985 -0.3516 -0.4121  1.1310
   47c3c     HC  604   2.773   1.298   2.773  0.4308  0.0325  0.5747
   47c3c     HC  605   2.742   1.438   2.874  0.9073 -0.5788  1.6787
   47c3c     HC  606   2.870   1.205   2.954  0.1953 -0.1511  0.2025
   47c3c     HC  607   2.864   1.358   3.047 -1.1019  0.5189 -1.1946
   47c3c     H1  608   3.038   1.266   2.602  0.2349 -0.4287 -0.2172
   47c3c     H1  609   3.141   1.183   2.725 -0.8593 -1.0982  2.2933
   47c3c     H1  610   2.968   1.188   2.736 -0.5405  1.4705  0.0651
   47c3c     H1  611   3.254   1.365   2.760 -0.8540 -0.6693 -4.0367
   47c3c     H1  612   3.172   1.461   2.653 -1.7321  2.0024  1.0248
   47c3c     C2  613   3.239   1.554   2.837  0.1619  0.5084  0.3063
   47c3c     HC  614   3.263   1.504   2.930  1.3981  1.6737  0.6285
   47c3c     HC  615   3.167   1.631   2.866 -0.5704  1.0054 -2.6354
   47c3c     CT  616   3.373   1.611   2.773 -0.3504 -1.0853  0.8588
   47c3c     HC  617   3.422   1.698   2.816  0.9862 -0.3077 -2.0646
   47c3c     HC  618   3.350   1.639   2.670  0.2587  0.0990  1.0301
   47c3c     HC  619   3.452   1.537   2.785  0.2669 -0.7063 -0.7126
   48c3c     N4  620   2.479   1.045   2.357 -0.4683 -0.3688  0.0310
   48c3c     C1  621   2.444   1.165   2.278  0.0936  0.2355  0.1870
   48c3c     C1  622   2.612   1.063   2.408 -0.2948  0.4672  1.1382
   48c3c     C2  623   2.500   1.275   2.362  0.9279 -0.7187  0.1019
   48c3c     C2  624   2.608   1.212   2.448  0.7935 -0.0350 -0.2208
   48c3c     C1  625   2.382   1.027   2.469  0.2810 -0.0929  0.6296
   48c3c     C1  626   2.470   0.925   2.277 -0.4401 -0.0140 -0.0633
   48c3c     H1  627   2.340   1.189   2.257  0.2069 -0.3979 -1.0947
   48c3c     H1  628   2.495   1.169   2.182  1.0591 -0.9533  0.6479
   48c3c     H1  629   2.643   1.003   2.493  0.1963  0.9740  1.3193
   48c3c     H1  630   2.688   1.066   2.331 -1.6129 -1.6672 -0.3055
   48c3c     HC  631   2.427   1.327   2.424  0.9584  1.3112 -1.5374
   48c3c     HC  632   2.543   1.357   2.306 -0.1809  1.9150  2.9640
   48c3c     HC  633   2.587   1.218   2.555  2.3989 -1.7196  0.2145
   48c3c     HC  634   2.700   1.266   2.424 -0.4965  3.0502  1.5437
   48c3c     H1  635   2.281   1.027   2.428  0.8929 -0.4627 -0.8993
   48c3c     H1  636   2.380   0.931   2.520  3.2655  0.0673  1.1596
   48c3c     H1  637   2.390   1.104   2.546 -1.5009 -0.0444  0.7756
   48c3c     H1  638   2.505   0.844   2.340 -0.3272  1.2882  1.5557
   48c3c     H1  639   2.366   0.897   2.255 -0.3391 -0.3620 -0.1026
   48c3c     C2  640   2.547   0.913   2.141 -0.4460 -0.0169 -0.1609
   48c3c     HC  641   2.644   0.959   2.156 -1.0127  0.7285  1.3298
   48c3c     HC  642   2.491   0.981   2.077 -0.3845 -0.9198 -1.1735
   48c3c     CT  643   2.564   0.776   2.090  0.1656 -0.3432  0.0286
   48c3c     HC  644   2.468   0.744   2.050  1.2160 -2.2014 -1.0538
   48c3c     HC  645   2.590   0.707   2.171  0.3907  0.6220  0.7851
   48c3c     HC  646   2.628   0.782   2.002 -1.6411 -1.5208 -1.4088
   49c3c     N4  647   1.777   1.205   2.634 -0.9320  0.3126 -0.9418
   49c3c     C1  648   1.699   1.284   2.538 -1.3730  0.0145 -0.2932
   49c3c     C1  649   1.909   1.269   2.629  0.0822  0.2177 -0.2483
   49c3c     C2  650   1.768   1.423   2.509  0.2687  0.0763  0.2132
   49c3c     C2  651   1.900   1.414   2.581  0.0620  0.1727  0.3625
   49c3c     C1  652   1.732   1.229   2.773  0.5087 -0.0762  0.6582
   49c3c     C1  653   1.766   1.056   2.613 -0.1337  0.2164  0.0760
   49c3c     H1  654   1.595   1.299   2.565 -0.8899  0.5401  1.3658
   49c3c     H1  655   1.702   1.226   2.446  1.5467 -0.2262 -0.1099
   49c3c     H1  656   1.973   1.261   2.716  0.1139 -1.1106 -0.3745
   49c3c     H1  657   1.975   1.215   2.561  2.2418  1.9557  0.4275
   49c3c     HC  658   1.716   1.508   2.552  1.1599 -0.0604  1.5958
   49c3c     HC  659   1.782   1.436   2.401 -2.1006  1.3145  0.0262
   49c3c     HC  660   1.892   1.484   2.664 -0.0723  1.3023 -0.5931
   49c3c     HC  661   1.994   1.438   2.532 -0.3692  1.9952  0.4095
   49c3c     H1  662   1.629   1.203   2.797  0.7130 -2.6342 -1.0617
   49c3c     H1  663   1.787   1.184   2.855  0.1239 -0.8027  0.5225
   49c3c     H1  664   1.730   1.336   2.793 -1.5553  0.1882 -0.7686
   49c3c     H1  665   1.819   1.031   2.705 -2.8712  2.3283  2.3260
   49c3c     H1  666   1.663   1.030   2.634 -0.3429  0.4379 -0.6833
   49c3c     C2  667   1.819   1.002   2.479  0.8877  0.0997  0.5696
   49c3c     HC  668   1.925   0.985   2.498  0.2858 -3.7912  0.9485
   49c3c     HC  669   1.830   1.075   2.399  1.8750  0.1874  0.7793
   49c3c     CT  670   1.747   0.876   2.428  0.6661 -0.4375 -1.1871
   49c3c     HC  671   1.740   0.799   2.504 -0.0936 -0.4414 -1.2616
   49c3c     HC  672   1.814   0.832   2.354  0.2902  1.5707 -2.7546
   49c3c     HC  673   1.646   0.893   2.390 -0.0281  0.3057  0.9440
   50c3c     N4  674   4.266   2.744   2.188 -0.5383  0.0399  0.0235
   50c3c     C1  675   4.183   2.819   2.279  0.0607  0.2939  0.1086
   50c3c     C1  676   4.179   2.714   2.074 -0.5361  0.8563  0.2009
   50c3c     C2  677   4.090   2.900   2.184  0.0675  0.4148 -0.3271
   50c3c     C2  678   4.106   2.842   2.047  0.3323 -0.1214  0.6329
   50c3c     C1  679   4.380   2.827   2.154 -0.1542  0.1249  0.2778
   50c3c     C1  680   4.320   2.618   2.238 -0.5848 -0.4928  0.6939
   50c3c     H1  681   4.241   2.888   2.341 -1.0432  1.0702  0.3032
   50c3c     H1  682   4.117   2.758   2.341 -0.9578  0.7323 -0.5360
   50c3c     H1  683   4.238   2.675   1.992  2.4808  1.7804  1.8562
   50c3c     H1  684   4.100   2.640   2.092  0.3190 -0.0225  0.3988
   50c3c     HC  685   4.115   3.006   2.189 -1.7386  0.8506 -0.3111
   50c3c     HC  686   3.990   2.898   2.227  0.4649 -0.0981  0.5740
   50c3c     HC  687   4.167   2.903   1.980  1.6282 -0.4857  1.4628
   50c3c     HC  688   4.007   2.831   2.003  1.2586 -0.5374 -1.3891
   50c3c     H1  689   4.444   2.852   2.239  2.2165 -2.5568 -0.6670
   50c3c     H1  690   4.452   2.776   2.091  1.2908  1.6859  0.6001
   50c3c     H1  691   4.353   2.918   2.101  0.6996 -0.0320 -0.4262
   50c3c     H1  692   4.365   2.560   2.157  1.4763  0.9194  0.7916
   50c3c     H1  693   4.408   2.627   2.301  0.0906 -0.4377 -0.2435
   50c3c     C2  694   4.231   2.520   2.317 -1.2100  0.1902  0.3482
   50c3c     HC  695   4.141   2.501   2.259 -0.5826 -0.1813 -0.5208
   50c3c     HC  696   4.192   2.555   2.412 -3.2934  0.0075 -0.4270
   50c3c     CT  697   4.296   2.384   2.322  0.4070 -0.2913 -0.1982
   50c3c     HC  698   4.393   2.399   2.369  0.4323  1.5202 -0.7720
   50c3c     HC  699   4.307   2.349   2.220 -1.5012 -0.2071 -0.4551
   50c3c     HC  700   4.239   2.311   2.379 -1.9707  1.1774 -0.6480
   51c3c     N4  701   3.619   2.705   2.585  0.6844  0.0387 -0.2468
   51c3c     C1  702   3.756   2.742   2.570 -0.6233  0.6315  0.3065
   51c3c     C1  703   3.581   2.664   2.445  0.9929  0.6871  0.6637
   51c3c     C2  704   3.819   2.636   2.474 -0.0988  0.0875 -0.2743
   51c3c     C2  705   3.700   2.587   2.389  0.0998  0.4034  0.8367
   51c3c     C1  706   3.613   2.587   2.677  0.0073  0.4771  0.1174
   51c3c     C1  707   3.529   2.802   2.644 -0.9381  0.4994  0.8873
   51c3c     H1  708   3.811   2.757   2.663  0.4962  0.8731 -0.3819
   51c3c     H1  709   3.765   2.844   2.532 -2.0207  1.0712  1.1220
   51c3c     H1  710   3.489   2.608   2.433  1.5919 -0.3482  0.8213
   51c3c     H1  711   3.567   2.749   2.378  0.0014 -1.1660 -1.5430
   51c3c     HC  712   3.866   2.562   2.538 -1.3650  0.9563  1.6893
   51c3c     HC  713   3.903   2.683   2.423 -1.1693  0.6457 -1.5612
   51c3c     HC  714   3.683   2.480   2.402 -1.3178  0.5901  0.6058
   51c3c     HC  715   3.712   2.615   2.285 -1.1602 -2.0035  0.0003
   51c3c     H1  716   3.652   2.605   2.777 -2.4203 -0.9302  1.3703
   51c3c     H1  717   3.522   2.527   2.686  0.9634 -1.0823 -0.3672
   51c3c     H1  718   3.682   2.512   2.639 -0.4305  0.0752  0.1060
   51c3c     H1  719   3.434   2.750   2.658 -0.2680 -1.1458 -0.5068
   51c3c     H1  720   3.567   2.835   2.741 -2.8750  1.7621  1.2387
   51c3c     C2  721   3.487   2.925   2.568  0.0184 -0.0562  0.0535
   51c3c     HC  722   3.442   2.902   2.472  1.5108  2.0637 -1.2189
   51c3c     HC  723   3.577   2.981   2.541 -0.6496  1.4448  0.9006
   51c3c     CT  724   3.391   3.020   2.639 -0.5971 -1.1216 -0.0464
   51c3c     HC  725   3.376   3.121   2.602 -0.2303 -0.4697  1.5594
   51c3c     HC  726   3.413   3.036   2.745 -0.0836 -1.1640 -0.1434
   51c3c     HC  727   3.294   2.971   2.642 -0.2041 -2.0461 -1.7245
   52c3c     N4  728   3.301   5.280   2.211  0.2715  0.0959  0.1830
   52c3c     C1  729   3.339   5.134   2.204 -0.0112  0.5047 -0.4506
   52c3c     C1  730   3.435   5.343   2.229  0.0593 -0.2655 -0.8471
   52c3c     C2  731   3.477   5.132   2.130 -0.2055 -0.1486  0.2644
   52c3c     C2  732   3.535   5.276   2.129  0.0747 -0.1690 -1.0524
   52c3c     C1  733   3.240   5.329   2.087 -0.5236  0.0296 -0.4980
   52c3c     C1  734   3.205   5.317   2.315  0.0928  0.7432 -0.3996
   52c3c     H1  735   3.261   5.082   2.148  0.8143 -1.1725 -0.0763
   52c3c     H1  736   3.350   5.091   2.303 -3.4924 -1.8386 -0.9386
   52c3c     H1  737   3.419   5.450   2.230 -0.2594 -0.3105 -0.9843
   52c3c     H1  738   3.468   5.322   2.331 -2.2958 -1.3217 -0.2622
   52c3c     HC  739   3.467   5.091   2.029 -0.4485  2.3964 -0.7930
   52c3c     HC  740   3.549   5.071   2.184  0.6479  0.8402  0.2598
   52c3c     HC  741   3.532   5.337   2.038  1.3632  0.9294 -0.3827
   52c3c     HC  742   3.642   5.282   2.148 -0.2799  1.9656  0.5175
   52c3c     H1  743   3.143   5.280   2.076 -1.0501  0.5943  1.3497
   52c3c     H1  744   3.240   5.438   2.084  1.9758  0.1938  2.4749
   52c3c     H1  745   3.298   5.295   2.002  1.4994  0.8543  0.5151
   52c3c     H1  746   3.202   5.425   2.302 -1.8759  0.7954  0.3171
   52c3c     H1  747   3.104   5.286   2.286  1.3259 -2.2340 -1.7140
   52c3c     C2  748   3.229   5.263   2.458 -0.6278 -0.1725  0.0266
   52c3c     HC  749   3.334   5.274   2.484  0.5067  1.1233 -4.7887
   52c3c     HC  750   3.204   5.159   2.477  1.0353 -0.9128 -1.6743
   52c3c     CT  751   3.146   5.340   2.553 -0.0418  0.5374  0.5498
   52c3c     HC  752   3.149   5.306   2.656 -0.2929  0.2429  0.4592
   52c3c     HC  753   3.041   5.340   2.525 -0.9506  3.5147  3.6024
   52c3c     HC  754   3.184   5.441   2.562 -1.7631  1.1806  0.7719
   53c3c     N4  755   2.861   1.946   4.284 -0.0493 -0.3646  0.0671
   53c3c     C1  756   2.752   1.849   4.271 -0.9854 -0.3532  0.0651
   53c3c     C1  757   2.882   1.943   4.431  0.5365 -0.0633 -0.2146
   53c3c     C2  758   2.778   1.738   4.376  0.5102  0.3335 -0.3558
   53c3c     C2  759   2.880   1.795   4.474 -0.5352 -0.2486  0.1804
   53c3c     C1  760   2.980   1.901   4.215  0.0225  0.3845  0.1666
   53c3c     C1  761   2.835   2.085   4.240  0.3164  0.4867  0.3088
   53c3c     H1  762   2.736   1.805   4.172 -2.6379  0.1976  0.0699
   53c3c     H1  763   2.655   1.895   4.289 -0.6471  0.0112  0.9674
   53c3c     H1  764   2.974   1.994   4.458  1.0148 -0.3896 -1.2008
   53c3c     H1  765   2.803   1.991   4.488 -0.3460 -0.5353 -1.0161
   53c3c     HC  766   2.810   1.652   4.318 -2.6720 -0.2098 -1.4122
   53c3c     HC  767   2.687   1.714   4.431  0.7646  0.8402  0.2843
   53c3c     HC  768   2.981   1.756   4.461 -0.3295  0.0318  0.9097
   53c3c     HC  769   2.863   1.767   4.578 -1.0987  0.0624  0.1725
   53c3c     H1  770   2.955   1.893   4.109 -0.7838 -1.3549  0.4756
   53c3c     H1  771   3.063   1.972   4.217 -1.2667  1.9164  1.0514
   53c3c     H1  772   3.014   1.802   4.245 -1.3343 -0.6463 -1.6060
   53c3c     H1  773   2.913   2.149   4.280  1.8674 -0.8633 -0.5173
   53c3c     H1  774   2.840   2.084   4.131  1.1984  2.1921  0.3208
   53c3c     C2  775   2.701   2.160   4.283 -0.8614  0.2671  0.2702
   53c3c     HC  776   2.693   2.141   4.391  0.6441 -0.5267  0.2719
   53c3c     HC  777   2.613   2.119   4.235  0.5169 -1.4585 -0.8600
   53c3c     CT  778   2.702   2.312   4.254 -0.1917 -0.6988  0.1737
   53c3c     HC  779   2.668   2.328   4.151  2.3462 -1.2757 -0.7927
   53c3c     HC  780   2.801   2.357   4.253  0.0842 -1.3104 -0.0643
   53c3c     HC  781   2.640   2.370   4.322  1.0783  0.8871  0.0106
   54c3c     N4  782   2.973   0.830   1.834  0.1803  0.6941 -0.2701
   54c3c     C1  783   2.934   0.812   1.974  0.6197 -0.3006  0.3080
   54c3c     C1  784   3.071   0.933   1.842  0.0537  0.5312 -0.4569
   54c3c     C2  785   3.067   0.815   2.050 -0.5509 -0.2000  0.2360
   54c3c     C2  786   3.162   0.900   1.965  0.8793 -0.3663  0.1718
   54c3c     C1  787   3.029   0.704   1.783  0.0113  0.2539  0.5113
   54c3c     C1  788   2.859   0.858   1.736 -0.9198 -0.0237 -0.2294
   54c3c     H1  789   2.883   0.717   1.986 -1.1171  0.8560  2.3481
   54c3c     H1  790   2.874   0.891   2.019  2.3861 -0.4491  3.0175
   54c3c     H1  791   3.120   0.942   1.745  2.1690 -0.8276  0.4707
   54c3c     H1  792   3.034   1.033   1.866  0.4575  0.1396  1.8702
   54c3c     HC  793   3.106   0.714   2.063 -1.4426 -0.3586  1.7343
   54c3c     HC  794   3.042   0.841   2.153 -3.9093 -0.7323 -0.4184
   54c3c     HC  795   3.248   0.840   1.936  1.0067  0.2027 -0.6634
   54c3c     HC  796   3.194   0.989   2.018 -3.3225  1.4983 -0.2034
   54c3c     H1  797   2.966   0.615   1.779 -1.7121  1.5448 -2.5500
   54c3c     H1  798   3.076   0.725   1.687 -1.4651  0.5726 -0.1552
   54c3c     H1  799   3.116   0.670   1.839 -0.3343 -3.1415 -0.9073
   54c3c     H1  800   2.903   0.875   1.637  0.9660  0.4410  0.6534
   54c3c     H1  801   2.790   0.774   1.732 -0.0140 -0.9831  3.2074
   54c3c     C2  802   2.772   0.980   1.778 -0.2633 -0.2627 -0.4876
   54c3c     HC  803   2.835   1.062   1.812 -2.5082  0.7255  1.4346
   54c3c     HC  804   2.708   0.944   1.859  2.0180 -0.8451  1.1160
   54c3c     CT  805   2.679   1.025   1.669 -0.0823  1.0083  0.4213
   54c3c     HC  806   2.642   0.947   1.603  0.6838 -0.6254  1.8998
   54c3c     HC  807   2.730   1.099   1.607  0.3540  1.4092  1.2525
   54c3c     HC  808   2.605   1.098   1.703 -0.3246  0.7716  0.4083
   55c3c     N4  809   2.598   1.804   2.412 -0.7630 -0.0902  0.7362
   55c3c     C1  810   2.715   1.735   2.358  0.1553 -0.4685  0.0796
   55c3c     C1  811   2.528   1.687   2.464  0.1300 -0.0056  0.6080
   55c3c     C2  812   2.760   1.633   2.456 -0.2793  0.4663 -0.4482
   55c3c     C2  813   2.635   1.608   2.538  0.3889  0.3642 -0.3144
   55c3c     C1  814   2.637   1.896   2.524  0.3162  0.6319 -0.0118
   55c3c     C1  815   2.516   1.882   2.314  0.0842 -0.2299  0.3483
   55c3c     H1  816   2.795   1.806   2.333  0.5351 -1.9233 -3.1483
   55c3c     H1  817   2.696   1.688   2.262 -0.8136 -0.5395  0.3028
   55c3c     H1  818   2.456   1.721   2.538  0.0913  1.4649 -0.0915
   55c3c     H1  819   2.478   1.626   2.389 -0.0768 -0.8819  1.4395
   55c3c     HC  820   2.827   1.685   2.524 -0.9888 -1.8838  2.0993
   55c3c     HC  821   2.808   1.543   2.418  1.2855  0.4844  1.4263
   55c3c     HC  822   2.631   1.631   2.645 -2.3932  0.3362 -0.3942
   55c3c     HC  823   2.603   1.504   2.540 -0.5381  0.6708  1.3335
   55c3c     H1  824   2.703   1.869   2.606  2.3108  1.3740 -1.3576
   55c3c     H1  825   2.684   1.985   2.484 -1.1012  2.1469  1.6017
   55c3c     H1  826   2.551   1.942   2.572  0.8825  1.0093  0.6467
   55c3c     H1  827   2.464   1.960   2.370 -0.4707  1.9594 -3.1088
   55c3c     H1  828   2.581   1.944   2.253 -2.3558  1.3973 -0.6832
   55c3c     C2  829   2.437   1.796   2.215  0.2019  0.2186  0.4249
   55c3c     HC  830   2.348   1.757   2.265  0.4710  0.0241  0.7581
   55c3c     HC  831   2.504   1.716   2.181 -0.8576  0.5450 -2.5353
   55c3c     CT  832   2.391   1.869   2.093  0.0009  0.5367  0.5700
   55c3c     HC  833   2.310   1.937   2.121 -2.0042 -2.2084  1.6376
   55c3c     HC  834   2.327   1.805   2.033 -0.1065  0.9934  0.1992
   55c3c     HC  835   2.475   1.917   2.043 -1.2893  2.0085 -0.2291
   56c3c     N4  836   3.961   1.589   3.446 -0.1304  0.0426  0.4247
   56c3c     C1  837   4.084   1.637   3.509  0.3909  1.0727  0.5102
   56c3c     C1  838   3.905   1.498   3.545  0.8796 -0.1065 -0.4669
   56c3c     C2  839   4.045   1.658   3.652 -0.1125 -0.0324 -0.3228
   56c3c     C2  840   3.918   1.578   3.677 -0.2311  0.3307 -0.4304
   56c3c     C1  841   3.861   1.691   3.406  0.2471 -0.6358  0.3861
   56c3c     C1  842   3.985   1.530   3.311  0.0628  0.9386 -0.1090
   56c3c     H1  843   4.127   1.732   3.475  0.4483  0.5419 -0.9560
   56c3c     H1  844   4.162   1.561   3.503  0.5542  1.4104 -2.1374
   56c3c     H1  845   3.802   1.467   3.525 -0.3605  3.7390 -0.4833
   56c3c     H1  846   3.961   1.404   3.549 -1.0556 -1.3042 -0.6483
   56c3c     HC  847   4.041   1.763   3.682 -1.1906 -0.2172  0.1896
   56c3c     HC  848   4.123   1.624   3.720 -2.3379 -2.1773  1.2057
   56c3c     HC  849   3.831   1.642   3.694  0.4972  1.9764 -2.6926
   56c3c     HC  850   3.923   1.516   3.767  1.5859  1.0887 -0.0036
   56c3c     H1  851   3.908   1.766   3.343  1.7466 -3.0007 -1.3810
   56c3c     H1  852   3.768   1.652   3.366 -0.9129  1.2409  1.1705
   56c3c     H1  853   3.831   1.754   3.490  1.0000  1.7310 -1.0988
   56c3c     H1  854   3.892   1.496   3.266  0.1037  0.0320  0.4739
   56c3c     H1  855   4.033   1.593   3.236  3.2970 -0.6262  0.5363
   56c3c     C2  856   4.091   1.416   3.298 -0.0600  0.6509 -0.2957
   56c3c     HC  857   4.080   1.346   3.381  1.4398  3.5430  2.4190
   56c3c     HC  858   4.190   1.462   3.300  0.2512 -0.0028 -0.4766
   56c3c     CT  859   4.087   1.326   3.176  0.1243 -0.6123 -0.2566
   56c3c     HC  860   4.113   1.397   3.097  2.6791 -0.7779  0.3848
   56c3c     HC  861   3.990   1.279   3.162 -0.0041 -0.7150  0.9288
   56c3c     HC  862   4.166   1.251   3.184 -0.2287 -1.1987 -2.0931
   57c3c     N4  863   2.870   0.250   1.396  0.3624 -0.1262  0.2857
   57c3c     C1  864   2.890   0.320   1.524  0.1104 -0.1925  0.4021
   57c3c     C1  865   2.860   0.352   1.289 -0.2185 -0.0997 -0.8530
   57c3c     C2  866   2.980   0.433   1.478 -0.6226  0.7105 -0.5270
   57c3c     C2  867   2.962   0.452   1.328 -0.7821 -1.2197 -0.4012
   57c3c     C1  868   2.984   0.165   1.369  0.5057  0.1395 -0.2787
   57c3c     C1  869   2.757   0.161   1.402 -0.3865  0.0898 -0.5678
   57c3c     H1  870   2.938   0.257   1.599 -0.2744  0.9390  1.6142
   57c3c     H1  871   2.798   0.362   1.565 -0.5154  0.2447 -1.3877
   57c3c     H1  872   2.881   0.314   1.189 -1.8434 -0.4490 -1.0686
   57c3c     H1  873   2.764   0.403   1.288  0.1684  0.6672  0.1841
   57c3c     HC  874   3.085   0.410   1.497 -0.7813 -1.0517 -1.6991
   57c3c     HC  875   2.959   0.526   1.531 -1.1286  0.3566 -0.1043
   57c3c     HC  876   3.061   0.420   1.295 -1.3535 -2.0827 -1.2716
   57c3c     HC  877   2.929   0.554   1.308 -1.0095 -1.4710 -1.3351
   57c3c     H1  878   2.992   0.076   1.431  2.7083 -1.3080 -2.5749
   57c3c     H1  879   2.987   0.136   1.264  1.1145 -1.3870  0.1414
   57c3c     H1  880   3.085   0.204   1.383  0.7589 -0.3663 -0.6917
   57c3c     H1  881   2.760   0.085   1.323 -0.3164  0.4151 -0.8822
   57c3c     H1  882   2.756   0.114   1.500  2.0364 -0.3372 -0.7271
   57c3c     C2  883   2.608   0.218   1.392 -0.6306 -0.0998  0.1899
   57c3c     HC  884   2.579   0.274   1.303 -1.2795  0.7483  0.9223
   57c3c     HC  885   2.588   0.279   1.480 -1.4575 -0.2845  0.1372
   57c3c     CT  886   2.502   0.113   1.387  1.2810 -0.4759  0.0170
   57c3c     HC  887   2.397   0.143   1.392  1.1330 -0.5534 -1.9651
   57c3c     HC  888   2.513   0.049   1.474 -0.6033 -2.2590 -1.0092
   57c3c     HC  889   2.507   0.043   1.303  0.4614 -0.8646  0.2835
   58c3c     N4  890   4.364   2.405   3.971 -0.2578  0.1591 -0.1957
   58c3c     C1  891   4.399   2.545   3.980 -0.3386 -0.4944  0.5995
   58c3c     C1  892   4.215   2.404   3.961 -0.1861 -0.1844 -0.4158
   58c3c     C2  893   4.306   2.616   3.879 -0.1298  0.5075 -0.1323
   58c3c     C2  894   4.179   2.529   3.881  0.2146 -0.0063  0.0909
   58c3c     C1  895   4.418   2.338   3.846  0.2765  0.0622 -0.6058
   58c3c     C1  896   4.414   2.326   4.087  0.3443  0.0685  0.5953
   58c3c     H1  897   4.504   2.564   3.959 -0.9466  1.3867 -0.9045
   58c3c     H1  898   4.379   2.600   4.072 -0.0632  2.8610 -1.2318
   58c3c     H1  899   4.178   2.308   3.928  1.0706  0.0322 -2.5701
   58c3c     H1  900   4.158   2.416   4.053  0.0915 -0.2987 -0.2292
   58c3c     HC  901   4.350   2.598   3.781 -0.4505 -1.5980  0.0836
   58c3c     HC  902   4.295   2.723   3.894 -0.0355  0.3546  1.0763
   58c3c     HC  903   4.147   2.510   3.778  0.5102 -1.5991  0.2695
   58c3c     HC  904   4.099   2.583   3.931 -0.1233  0.4723 -0.9496
   58c3c     H1  905   4.527   2.329   3.846  0.1769 -1.1407  0.2481
   58c3c     H1  906   4.393   2.235   3.821  3.3190 -0.4251 -1.9459
   58c3c     H1  907   4.401   2.399   3.757  1.7957 -0.3935 -1.2357
   58c3c     H1  908   4.396   2.218   4.088  0.5120  0.0383  3.0381
   58c3c     H1  909   4.523   2.333   4.090  0.4916 -0.0469 -2.6122
   58c3c     C2  910   4.369   2.365   4.231  0.1027 -0.1845  0.8454
   58c3c     HC  911   4.261   2.376   4.238 -0.0085 -0.0057 -0.9538
   58c3c     HC  912   4.400   2.466   4.259 -0.1566  0.1518 -0.0523
   58c3c     CT  913   4.432   2.269   4.336  1.0478 -0.6488  1.0925
   58c3c     HC  914   4.541   2.274   4.330  0.8812  1.2922 -1.1314
   58c3c     HC  915   4.390   2.172   4.308  0.3313  1.2290 -5.2131
   58c3c     HC  916   4.405   2.297   4.437 -0.6754  1.1633  0.1787
   59c3c     N4  917   3.850   1.155   2.189  0.6929 -0.0111 -0.6126
   59c3c     C1  918   3.857   1.257   2.294  0.3389 -0.6324 -0.4519
   59c3c     C1  919   3.972   1.076   2.203 -0.0919  0.8415  0.2694
   59c3c     C2  920   3.915   1.189   2.420  0.2051  0.5130 -0.5260
   59c3c     C2  921   4.006   1.077   2.360  0.8633  0.0727 -0.1704
   59c3c     C1  922   3.734   1.057   2.221  0.5783 -0.4825 -0.3322
   59c3c     C1  923   3.833   1.200   2.048  0.3706 -0.2086  0.1359
   59c3c     H1  924   3.759   1.298   2.316  0.4903 -0.3328 -0.3264
   59c3c     H1  925   3.923   1.343   2.281  0.7241 -0.8359  0.1523
   59c3c     H1  926   3.956   0.976   2.161 -3.5813  2.0747 -1.5391
   59c3c     H1  927   4.051   1.131   2.151  0.6305  0.7726  1.2709
   59c3c     HC  928   3.840   1.146   2.487  2.3803 -2.3495  0.1890
   59c3c     HC  929   3.979   1.259   2.472  0.4967 -0.6374  0.6956
   59c3c     HC  930   3.989   0.980   2.407 -0.7797  0.3866 -0.1017
   59c3c     HC  931   4.109   1.110   2.376  1.5743 -2.7031  1.1939
   59c3c     H1  932   3.646   1.110   2.184  1.8169  1.5385 -0.4840
   59c3c     H1  933   3.729   0.978   2.146 -1.1734 -1.4078  0.7248
   59c3c     H1  934   3.720   1.034   2.326 -2.9844  0.1290 -0.6054
   59c3c     H1  935   3.866   1.121   1.981 -0.3797 -0.0019 -0.4903
   59c3c     H1  936   3.728   1.229   2.037  0.0900 -0.5822  1.6749
   59c3c     C2  937   3.900   1.329   2.020  0.4339  0.3024  0.5025
   59c3c     HC  938   4.001   1.336   2.059  0.7225  2.2685 -0.5073
   59c3c     HC  939   3.843   1.419   2.044 -1.8207 -0.2732 -2.3169
   59c3c     CT  940   3.918   1.339   1.865  0.3771 -0.1566 -0.8165
   59c3c     HC  941   3.824   1.321   1.814 -0.8427  1.5214  0.7950
   59c3c     HC  942   4.003   1.289   1.817  1.3707  0.3533  0.3746
   59c3c     HC  943   3.930   1.444   1.840  2.1253 -0.0385  0.3454
   60c3c     N4  944   5.261   3.546   1.839  0.2526  0.8827  0.2529
   60c3c     C1  945   5.166   3.476   1.753 -0.0031 -0.1704 -0.3333
   60c3c     C1  946   5.183   3.651   1.900 -0.3917 -0.2150  0.1177
   60c3c     C2  947   5.037   3.472   1.836 -0.3015 -0.3640  0.0402
   60c3c     C2  948   5.043   3.591   1.931 -0.1878  0.0472  0.2737
   60c3c     C1  949   5.308   3.451   1.944  0.2614 -0.0669 -0.2665
   60c3c     C1  950   5.381   3.589   1.767  0.4779  0.9282 -0.9651
   60c3c     H1  951   5.206   3.377   1.732 -0.2791 -0.4307  0.3305
   60c3c     H1  952   5.149   3.525   1.657 -0.5473 -0.1198 -0.2112
   60c3c     H1  953   5.231   3.691   1.989  0.6638 -0.3003 -0.4094
   60c3c     H1  954   5.172   3.737   1.834  1.8635 -1.1715 -1.5702
   60c3c     HC  955   5.027   3.380   1.894  0.4330 -0.4551  0.0246
   60c3c     HC  956   4.956   3.476   1.762  0.0515 -2.5833 -0.5212
   60c3c     HC  957   5.034   3.557   2.034 -0.7771  0.4794  0.3668
   60c3c     HC  958   4.959   3.658   1.912 -0.6176 -0.9041 -1.3472
   60c3c     H1  959   5.357   3.358   1.915 -0.7296 -1.1811  1.5371
   60c3c     H1  960   5.385   3.503   2.002  1.7095 -2.8139  0.3961
   60c3c     H1  961   5.238   3.436   2.026  0.0729  1.7057 -0.0888
   60c3c     H1  962   5.442   3.648   1.835  0.6540 -0.5647  0.1688
   60c3c     H1  963   5.436   3.497   1.750  0.0137  0.5095 -0.2404
   60c3c     C2  964   5.361   3.680   1.638  0.1516 -0.8935 -0.0387
   60c3c     HC  965   5.316   3.774   1.669  0.6280 -0.7780  0.2942
   60c3c     HC  966   5.285   3.650   1.565  1.1152 -1.9596 -0.6131
   60c3c     CT  967   5.492   3.708   1.570 -0.3110  0.1808  0.1199
   60c3c     HC  968   5.476   3.779   1.489  2.2450  1.5869  0.7891
   60c3c     HC  969   5.534   3.615   1.533  0.6296  1.4997 -2.2250
   60c3c     HC  970   5.558   3.745   1.649 -0.3933 -2.0969  1.3000
   61c3c     N4  971   3.145   1.680   2.079 -0.2363 -0.0940  0.1888
   61c3c     C1  972   3.173   1.722   2.220  1.3101  0.1223  0.3047
   61c3c     C1  973   3.224   1.770   1.991 -0.2323 -0.3695  0.2728
   61c3c     C2  974   3.311   1.787   2.212 -0.6736 -0.4994 -0.7981
   61c3c     C2  975   3.350   1.797   2.068 -0.0277 -0.0741  0.5369
   61c3c     C1  976   3.204   1.547   2.061 -0.4244 -0.3604 -1.0407
   61c3c     C1  977   3.006   1.668   2.033  0.4336 -0.5043  0.1066
   61c3c     H1  978   3.172   1.649   2.301 -0.2285  0.3460  0.5020
   61c3c     H1  979   3.099   1.799   2.244  0.8054 -0.4660  0.6362
   61c3c     H1  980   3.245   1.714   1.900  0.2311 -0.6765  0.5631
   61c3c     H1  981   3.183   1.866   1.960 -1.1412 -1.1952 -1.1362
   61c3c     HC  982   3.374   1.708   2.254 -1.2745 -1.1243 -1.0627
   61c3c     HC  983   3.308   1.885   2.258 -1.4859 -0.7187 -0.3649
   61c3c     HC  984   3.422   1.718   2.044 -1.3097 -0.7963 -1.0099
   61c3c     HC  985   3.391   1.893   2.040 -1.3109  0.0136 -1.0774
   61c3c     H1  986   3.153   1.469   2.117 -0.1119 -0.7198 -1.2490
   61c3c     H1  987   3.213   1.510   1.958  0.3596 -1.8143 -0.4680
   61c3c     H1  988   3.307   1.549   2.099 -1.1271  0.9634  0.8600
   61c3c     H1  989   3.013   1.628   1.932 -0.1254 -2.5993  0.8787
   61c3c     H1  990   2.941   1.601   2.089 -0.8980  0.6500 -0.0296
   61c3c     C2  991   2.926   1.798   2.011  0.4341 -0.0106  0.5164
   61c3c     HC  992   2.971   1.859   1.933 -0.8145 -0.7162 -0.7815
   61c3c     HC  993   2.926   1.854   2.104  1.1950 -0.1437  0.6004
   61c3c     CT  994   2.774   1.762   1.978 -0.3080  0.5404  0.0305
   61c3c     HC  995   2.731   1.678   2.033 -0.7410 -0.4231 -1.7111
   61c3c     HC  996   2.761   1.743   1.871 -0.5782  0.4694  0.0763
   61c3c     HC  997   2.707   1.845   1.998  0.2772  0.7598  1.0910
   62c3c     N4  998   2.415   1.364   4.197 -0.2279 -0.3007 -0.5503
   62c3c     C1  999   2.298   1.330   4.115  0.4433  0.0015 -0.5857
   62c3c     C1 1000   2.473   1.232   4.231  0.2820  0.6918  0.7655
   62c3c     C2 1001   2.331   1.206   4.033  0.6550 -0.1278 -0.2805
   62c3c     C2 1002   2.428   1.133   4.117  0.0427 -0.1647 -0.1365
   62c3c     C1 1003   2.514   1.434   4.114 -0.5570  0.6637 -0.5250
   62c3c     C1 1004   2.377   1.433   4.322 -0.0988 -0.1955  0.2551
   62c3c     H1 1005   2.255   1.414   4.059  0.1064 -1.5144 -2.6394
   62c3c     H1 1006   2.222   1.300   4.187 -0.5656 -0.9968 -2.0346
   62c3c     H1 1007   2.582   1.234   4.237  0.4060 -1.2446 -0.4132
   62c3c     H1 1008   2.428   1.183   4.317  0.5759 -1.2066 -0.1329
   62c3c     HC 1009   2.356   1.242   3.933 -0.6140 -0.8485 -0.8728
   62c3c     HC 1010   2.237   1.153   4.026  1.1501 -1.1005  0.4769
   62c3c     HC 1011   2.520   1.109   4.064 -0.9644  1.4924 -2.7621
   62c3c     HC 1012   2.390   1.040   4.159 -1.8363 -0.0026 -1.4032
   62c3c     H1 1013   2.471   1.530   4.087  0.2248  1.6232  1.5438
   62c3c     H1 1014   2.607   1.449   4.170  0.4873 -0.0532 -2.0469
   62c3c     H1 1015   2.543   1.381   4.023  1.8948 -0.1570  0.6852
   62c3c     H1 1016   2.470   1.460   4.374 -1.0965 -0.9243  2.4867
   62c3c     H1 1017   2.335   1.529   4.291  1.4702 -0.1060 -1.6774
   62c3c     C2 1018   2.284   1.372   4.427  0.1041  1.0385  0.8280
   62c3c     HC 1019   2.328   1.281   4.467  1.1937  0.8885 -0.6638
   62c3c     HC 1020   2.187   1.344   4.385 -0.0791  1.0962  1.2099
   62c3c     CT 1021   2.260   1.463   4.548  0.5171 -0.2218 -0.1452
   62c3c     HC 1022   2.185   1.414   4.611 -2.3143  2.0967 -1.5859
   62c3c     HC 1023   2.211   1.554   4.514  0.4771  0.4156  1.5415
   62c3c     HC 1024   2.351   1.494   4.600 -0.3381  0.9310  0.6731
   63c3c     N4 1025   1.906   1.120   3.804 -0.2073  0.1181 -0.4293
   63c3c     C1 1026   1.815   1.012   3.784  0.7668  0.0937  0.0078
   63c3c     C1 1027   1.930   1.098   3.947  0.2153 -0.0182  0.1349
   63c3c     C2 1028   1.871   0.883   3.859 -0.3625 -0.6779  1.3002
   63c3c     C2 1029   1.939   0.946   3.979  0.0257  0.0236  0.4763
   63c3c     C1 1030   2.020   1.101   3.721 -0.2898  0.1801  0.2461
   63c3c     C1 1031   1.855   1.263   3.783 -0.1982 -0.7748 -0.4623
   63c3c     H1 1032   1.799   0.990   3.678  1.2987  1.3665 -0.3454
   63c3c     H1 1033   1.713   1.042   3.809  0.4064 -0.5975 -0.6113
   63c3c     H1 1034   2.029   1.133   3.976  0.2076 -0.9555  1.3788
   63c3c     H1 1035   1.855   1.133   4.019  1.7081  0.1623  1.6417
   63c3c     HC 1036   1.944   0.819   3.811  0.6168  0.5084  1.1705
   63c3c     HC 1037   1.789   0.820   3.892 -1.3214 -1.1943 -1.8648
   63c3c     HC 1038   2.042   0.913   3.997  0.1771 -0.2876 -0.8941
   63c3c     HC 1039   1.883   0.920   4.069 -0.5362 -2.8077 -0.6381
   63c3c     H1 1040   2.060   1.000   3.723 -1.1097 -0.1438  0.8227
   63c3c     H1 1041   1.987   1.127   3.620  1.6851  1.3022 -0.1183
   63c3c     H1 1042   2.102   1.170   3.740 -0.9799  1.5848 -1.7493
   63c3c     H1 1043   1.938   1.329   3.809  2.0511 -3.6789  0.0402
   63c3c     H1 1044   1.839   1.272   3.676 -1.4294 -2.5197 -0.4646
   63c3c     C2 1045   1.731   1.306   3.860  0.4692 -0.0092  0.3126
   63c3c     HC 1046   1.756   1.317   3.966 -0.4121  1.8380  0.3491
   63c3c     HC 1047   1.657   1.226   3.852  0.9037 -0.3906  0.0611
   63c3c     CT 1048   1.683   1.448   3.825 -0.7109 -0.6051  0.4705
   63c3c     HC 1049   1.630   1.445   3.730  0.9556 -1.8145 -0.4485
   63c3c     HC 1050   1.771   1.511   3.821 -0.5147 -0.9998 -1.7554
   63c3c     HC 1051   1.607   1.486   3.893 -0.3891  3.2652 -1.2359
   64c3c     N4 1052   2.956   2.536   3.412 -0.7048  0.1897  0.1247
   64c3c     C1 1053   2.895   2.668   3.406  0.0017 -0.3053 -0.6334
   64c3c     C1 1054   2.837   2.452   3.429 -0.2154 -0.3695 -0.2905
   64c3c     C2 1055   2.772   2.648   3.313 -0.1264  0.4468 -0.0787
   64c3c     C2 1056   2.742   2.500   3.322 -0.6746  0.3897  0.5290
   64c3c     C1 1057   3.030   2.508   3.290 -0.2599 -0.4029  0.6230
   64c3c     C1 1058   3.051   2.527   3.530 -0.1424  0.5177  0.2748
   64c3c     H1 1059   2.975   2.729   3.366  0.5732 -0.0125  0.9141
   64c3c     H1 1060   2.862   2.694   3.507 -2.0060 -0.3719 -1.2599
   64c3c     H1 1061   2.862   2.346   3.420 -1.6035 -0.7567  0.2893
   64c3c     H1 1062   2.782   2.463   3.522  0.1373  0.1570 -0.1463
   64c3c     HC 1063   2.816   2.667   3.215  2.3156  2.7986  1.3983
   64c3c     HC 1064   2.691   2.719   3.334 -0.5529  0.8908 -2.9310
   64c3c     HC 1065   2.745   2.452   3.225 -0.8313 -1.6789  1.5282
   64c3c     HC 1066   2.637   2.487   3.349  0.2042  1.1827  4.8612
   64c3c     H1 1067   3.115   2.575   3.277  1.3810 -2.5769 -0.1392
   64c3c     H1 1068   3.082   2.413   3.297  0.9942  0.1636 -0.6089
   64c3c     H1 1069   2.975   2.502   3.196  1.4278  0.6216 -0.4646
   64c3c     H1 1070   3.109   2.435   3.517 -2.7710 -0.8808 -2.0251
   64c3c     H1 1071   3.124   2.608   3.522 -2.1203  2.1413 -1.6812
   64c3c     C2 1072   2.997   2.517   3.668  0.3137 -0.2600  0.4543
   64c3c     HC 1073   2.967   2.415   3.691  1.1983 -0.9939 -1.5321
   64c3c     HC 1074   2.913   2.582   3.688  0.6231  0.2807  0.0010
   64c3c     CT 1075   3.104   2.548   3.777 -0.1544  0.2814  0.1903
   64c3c     HC 1076   3.149   2.647   3.780 -0.7146  0.6101 -1.7119
   64c3c     HC 1077   3.184   2.474   3.767  1.0650  1.6782 -0.5634
   64c3c     HC 1078   3.047   2.534   3.870  0.0862  2.4051  0.6796
   65c3c     N4 1079   3.444   2.037   2.958 -0.0497  0.1364 -0.1027
   65c3c     C1 1080   3.522   1.992   2.837  0.4922 -0.0298  0.5002
   65c3c     C1 1081   3.439   2.187   2.945  0.6643 -0.2851  0.7571
   65c3c     C2 1082   3.486   2.090   2.724 -0.1555 -0.1880  0.6517
   65c3c     C2 1083   3.443   2.216   2.795 -0.4064 -0.3351  0.5356
   65c3c     C1 1084   3.303   1.984   2.953 -0.2482 -0.1232 -0.5448
   65c3c     C1 1085   3.509   1.991   3.085  0.2129 -0.1298  0.2935
   65c3c     H1 1086   3.512   1.887   2.812 -0.6249 -0.1174  1.2587
   65c3c     H1 1087   3.625   2.019   2.859  0.3921 -0.9978  2.2994
   65c3c     H1 1088   3.348   2.234   2.981  0.7217  0.8346 -0.4970
   65c3c     H1 1089   3.524   2.243   2.984  2.2109 -1.5142 -0.7592
   65c3c     HC 1090   3.414   2.056   2.650 -1.8159  1.8400  1.2915
   65c3c     HC 1091   3.572   2.115   2.662 -0.9921  0.6920 -0.1743
   65c3c     HC 1092   3.350   2.249   2.750 -0.4148 -1.1391 -0.0526
   65c3c     HC 1093   3.529   2.281   2.775  0.8469 -2.1619 -0.1158
   65c3c     H1 1094   3.300   1.875   2.944 -1.2728  0.0026 -1.9885
   65c3c     H1 1095   3.255   2.008   3.048  1.1457  1.6939 -0.2771
   65c3c     H1 1096   3.245   2.027   2.871 -1.2986 -1.2473 -0.3957
   65c3c     H1 1097   3.446   2.039   3.160  0.6733 -0.2025  0.7340
   65c3c     H1 1098   3.509   1.883   3.097  0.2130 -0.1098  0.4789
   65c3c     C2 1099   3.664   2.021   3.112  0.8608  0.3168  0.3007
   65c3c     HC 1100   3.692   2.126   3.107  1.3971  0.3750  3.7264
   65c3c     HC 1101   3.730   1.972   3.040 -0.0971 -0.1694 -0.2460
   65c3c     CT 1102   3.708   1.969   3.249 -0.0697  0.0636 -0.2137
   65c3c     HC 1103   3.672   2.025   3.335  1.2079 -1.0263  1.0512
   65c3c     HC 1104   3.817   1.975   3.254  0.0047 -0.5972 -0.8137
   65c3c     HC 1105   3.678   1.864   3.257 -1.0881  0.3636 -0.1111
   66c3c     N4 1106   5.071   2.502   1.791  0.0677 -0.2273 -0.1165
   66c3c     C1 1107   5.082   2.647   1.799  0.7118  0.5295 -0.0085
   66c3c     C1 1108   5.217   2.468   1.767  0.1355 -0.8971 -0.4048
   66c3c     C2 1109   5.216   2.683   1.871  0.6901  0.2025  0.1902
   66c3c     C2 1110   5.297   2.550   1.861 -0.0320 -0.0048 -0.1799
   66c3c     C1 1111   5.015   2.456   1.919  0.3429  0.0281 -0.2255
   66c3c     C1 1112   4.984   2.448   1.688 -0.0464 -0.3404  0.7763
   66c3c     H1 1113   4.991   2.698   1.832  0.3252 -0.4466  0.4262
   66c3c     H1 1114   5.096   2.689   1.699 -2.4892  2.2245  0.1965
   66c3c     H1 1115   5.228   2.361   1.780 -1.1592 -1.0118 -0.2125
   66c3c     H1 1116   5.256   2.492   1.668  2.0373  0.0710  0.5475
   66c3c     HC 1117   5.200   2.716   1.973 -0.3025  1.3786 -0.3189
   66c3c     HC 1118   5.275   2.765   1.828 -1.1242  0.1562 -2.4930
   66c3c     HC 1119   5.303   2.501   1.958  0.3847  0.9905  0.3115
   66c3c     HC 1120   5.398   2.559   1.821  0.9686 -2.7913  1.6087
   66c3c     H1 1121   4.914   2.495   1.930  0.2464  0.9393 -3.8105
   66c3c     H1 1122   5.004   2.348   1.931  0.5807 -0.2177 -2.1351
   66c3c     H1 1123   5.076   2.495   2.000  0.5385  0.6239 -0.6584
   66c3c     H1 1124   5.004   2.341   1.680  0.1727 -0.1725 -1.1496
   66c3c     H1 1125   4.880   2.455   1.720 -0.7599 -2.3968 -0.9787
   66c3c     C2 1126   5.006   2.494   1.542 -0.4153  0.7370  1.0812
   66c3c     HC 1127   5.107   2.478   1.505 -0.5303 -0.4453  1.2689
   66c3c     HC 1128   4.996   2.602   1.528  0.1795  0.7998  1.1221
   66c3c     CT 1129   4.909   2.424   1.444  0.0421 -0.6480 -0.0109
   66c3c     HC 1130   4.929   2.316   1.449  1.1970 -0.5278 -1.5571
   66c3c     HC 1131   4.937   2.458   1.344  0.1297  0.5161  0.4049
   66c3c     HC 1132   4.805   2.441   1.468  0.5296  0.9026  1.0649
   67c3c     N4 1133   2.774   0.551   3.133  0.4268 -0.3630 -0.7922
   67c3c     C1 1134   2.804   0.545   3.281 -0.2422  0.6028  0.1401
   67c3c     C1 1135   2.658   0.467   3.127 -0.0028 -0.7002 -0.6707
   67c3c     C2 1136   2.668   0.553   3.350  0.6384 -0.0539 -0.8956
   67c3c     C2 1137   2.574   0.492   3.250 -0.1894  0.7219  0.0530
   67c3c     C1 1138   2.743   0.688   3.101 -0.1869 -0.1317  0.4603
   67c3c     C1 1139   2.890   0.508   3.055  0.0816 -0.4189 -0.2732
   67c3c     H1 1140   2.865   0.627   3.319 -0.3604 -0.0369  1.7239
   67c3c     H1 1141   2.847   0.454   3.323  1.6634  2.5267  2.5055
   67c3c     H1 1142   2.604   0.487   3.034  0.4253  0.1811 -0.7373
   67c3c     H1 1143   2.690   0.364   3.114  0.2058 -0.7882  0.4296
   67c3c     HC 1144   2.628   0.653   3.368 -0.8146 -0.8548  0.5488
   67c3c     HC 1145   2.661   0.512   3.451 -0.5165  0.9514 -0.5408
   67c3c     HC 1146   2.505   0.572   3.224  2.1102  2.5702 -0.5844
   67c3c     HC 1147   2.514   0.406   3.281  3.0008 -1.3817  0.6493
   67c3c     H1 1148   2.822   0.761   3.122  0.6387 -0.4974 -1.3311
   67c3c     H1 1149   2.742   0.692   2.992 -0.3815 -0.8288  0.4343
   67c3c     H1 1150   2.642   0.721   3.127 -0.6596  0.4408 -1.9758
   67c3c     H1 1151   2.856   0.508   2.952  3.0140  1.6340 -1.3064
   67c3c     H1 1152   2.969   0.582   3.058  0.5335 -0.9173  0.1586
   67c3c     C2 1153   2.946   0.362   3.083  0.0769 -0.0644 -0.1810
   67c3c     HC 1154   2.872   0.288   3.054 -0.7586  1.1463 -1.1871
   67c3c     HC 1155   2.965   0.350   3.190  2.0628  0.8019 -0.4163
   67c3c     CT 1156   3.076   0.334   3.006 -0.0369  0.7817 -0.1336
   67c3c     HC 1157   3.125   0.242   3.039 -1.9591 -0.0392  0.5710
   67c3c     HC 1158   3.157   0.401   3.035  1.0270 -0.6876  0.3539
   67c3c     HC 1159   3.065   0.337   2.898  0.8306  3.2953 -0.1867
   68c3c     N4 1160   3.835   2.714   3.215 -0.5289  0.1478 -0.2318
   68c3c     C1 1161   3.955   2.799   3.190 -0.3723  0.0110  0.3583
   68c3c     C1 1162   3.870   2.652   3.346  0.3426 -0.1716  0.1252
   68c3c     C2 1163   3.996   2.858   3.325 -0.9612  0.0325  0.4035
   68c3c     C2 1164   3.939   2.760   3.425 -0.1630  0.1867 -0.1871
   68c3c     C1 1165   3.724   2.809   3.221 -0.3996 -0.0107 -0.0436
   68c3c     C1 1166   3.800   2.613   3.115  0.7980 -0.6954  0.2243
   68c3c     H1 1167   3.944   2.884   3.122  1.4505 -1.5883 -2.0173
   68c3c     H1 1168   4.036   2.737   3.153  0.3504  1.3556 -0.3557
   68c3c     H1 1169   3.780   2.610   3.391  0.8221  0.1022  1.3536
   68c3c     H1 1170   3.944   2.573   3.335 -0.6009 -0.9235 -0.9830
   68c3c     HC 1171   3.954   2.958   3.330 -0.2341  0.3751 -0.2471
   68c3c     HC 1172   4.105   2.863   3.333 -0.9239 -0.7626  0.4265
   68c3c     HC 1173   3.864   2.810   3.487 -0.8345 -1.1581  0.0928
   68c3c     HC 1174   4.018   2.718   3.486 -1.2682  0.2007  1.2906
   68c3c     H1 1175   3.716   2.863   3.127  0.5821 -2.0165 -1.3103
   68c3c     H1 1176   3.628   2.763   3.247 -0.0285 -0.1551  1.0686
   68c3c     H1 1177   3.733   2.880   3.303  3.0903 -1.7262  1.1673
   68c3c     H1 1178   3.701   2.569   3.130  1.1294 -1.8814 -0.9542
   68c3c     H1 1179   3.791   2.658   3.016  0.4640 -2.4956 -0.5856
   68c3c     C2 1180   3.901   2.504   3.081 -0.1089 -0.0839  0.1369
   68c3c     HC 1181   3.903   2.426   3.157  1.5123 -0.8842 -0.6804
   68c3c     HC 1182   4.002   2.545   3.069  0.1979 -1.2089 -1.2925
   68c3c     CT 1183   3.852   2.439   2.946 -0.4853 -0.3638  0.2918
   68c3c     HC 1184   3.834   2.507   2.863 -2.4032 -0.7891  0.3228
   68c3c     HC 1185   3.756   2.389   2.956  0.5321 -2.7769 -1.3611
   68c3c     HC 1186   3.929   2.367   2.918 -0.2113  1.1783 -3.1775
   69c3c     N4 1187   3.648   0.479   1.966  0.6248  0.8880 -0.4607
   69c3c     C1 1188   3.516   0.415   1.978 -1.1014  0.4747 -0.1646
   69c3c     C1 1189   3.629   0.617   1.924  0.6597 -0.4203  0.4893
   69c3c     C2 1190   3.419   0.526   2.019 -0.5788 -0.1644  0.0719
   69c3c     C2 1191   3.491   0.657   1.977  0.2458  0.0160  0.3936
   69c3c     C1 1192   3.704   0.480   2.104 -0.0878  0.2188 -0.4868
   69c3c     C1 1193   3.748   0.409   1.885 -0.6867 -0.2024 -0.5967
   69c3c     H1 1194   3.510   0.343   2.059 -2.6366  0.9124  0.1329
   69c3c     H1 1195   3.480   0.377   1.882 -0.5195  0.9889 -0.5928
   69c3c     H1 1196   3.706   0.687   1.955  1.5171 -0.5438 -1.2611
   69c3c     H1 1197   3.632   0.632   1.816  0.7638 -0.7152  0.4505
   69c3c     HC 1198   3.429   0.526   2.128  0.9003  0.8938 -0.0448
   69c3c     HC 1199   3.313   0.517   1.995 -0.1392 -0.6154 -1.7685
   69c3c     HC 1200   3.501   0.719   2.065 -1.1519  1.1355 -0.2193
   69c3c     HC 1201   3.438   0.708   1.897 -4.1198 -0.6306  2.7329
   69c3c     H1 1202   3.712   0.378   2.142 -1.8678  0.9627  1.9557
   69c3c     H1 1203   3.804   0.520   2.123 -0.4161  0.2374  1.2189
   69c3c     H1 1204   3.636   0.529   2.174 -0.1235  2.1040 -1.7917
   69c3c     H1 1205   3.848   0.453   1.898  0.5110 -1.6072 -4.3935
   69c3c     H1 1206   3.740   0.311   1.931  1.3827 -0.1872 -0.1438
   69c3c     C2 1207   3.728   0.422   1.736 -0.2955  0.2145  0.1887
   69c3c     HC 1208   3.754   0.515   1.685 -2.8321  0.8091 -0.0455
   69c3c     HC 1209   3.629   0.398   1.699  0.4165 -1.7159 -0.5591
   69c3c     CT 1210   3.822   0.329   1.654  0.2436  0.3899  0.0288
   69c3c     HC 1211   3.809   0.342   1.546 -0.8593  0.0746  0.1185
   69c3c     HC 1212   3.795   0.225   1.669 -0.6152  0.0405 -3.5026
   69c3c     HC 1213   3.924   0.351   1.685  0.4454  0.3367 -0.5806
   70c3c     N4 1214   3.350   1.561   4.150  0.0705 -0.5092  0.4311
   70c3c     C1 1215   3.493   1.553   4.191  0.0284 -0.1321  0.0178
   70c3c     C1 1216   3.354   1.480   4.027  0.0814  0.0364 -0.4017
   70c3c     C2 1217   3.547   1.414   4.150  0.7344  0.3282 -0.1256
   70c3c     C2 1218   3.449   1.368   4.050 -0.6523 -0.4074  0.2696
   70c3c     C1 1219   3.269   1.491   4.251 -0.1787 -0.8329 -0.1816
   70c3c     C1 1220   3.304   1.702   4.144 -0.5107 -0.3597 -0.0985
   70c3c     H1 1221   3.505   1.574   4.297 -0.4765 -0.1148  0.0771
   70c3c     H1 1222   3.559   1.621   4.138 -0.8814  0.5210 -0.3075
   70c3c     H1 1223   3.258   1.440   3.995  0.7399  1.8161 -5.0314
   70c3c     H1 1224   3.392   1.547   3.950  1.0371  1.3708  1.1848
   70c3c     HC 1225   3.543   1.360   4.245 -1.0414 -0.8061 -0.8101
   70c3c     HC 1226   3.648   1.412   4.109 -0.1956  1.1041 -2.5083
   70c3c     HC 1227   3.393   1.281   4.086  2.1822 -2.4776 -0.1290
   70c3c     HC 1228   3.498   1.342   3.956  1.6069  0.0388  1.2902
   70c3c     H1 1229   3.280   1.540   4.347 -2.8589 -0.4049 -0.0595
   70c3c     H1 1230   3.161   1.493   4.235 -0.1955  0.1196  0.0594
   70c3c     H1 1231   3.297   1.386   4.260 -2.3600 -1.6020 -1.6654
   70c3c     H1 1232   3.195   1.705   4.148 -0.4255  0.7723  2.2638
   70c3c     H1 1233   3.338   1.743   4.239  0.1967 -3.0536  0.8437
   70c3c     C2 1234   3.365   1.797   4.034 -0.1517 -0.8111  0.3791
   70c3c     HC 1235   3.330   1.769   3.935  0.7027 -2.7268  0.5990
   70c3c     HC 1236   3.469   1.771   4.013  0.3994  0.6313  1.2188
   70c3c     CT 1237   3.339   1.947   4.069 -0.0391 -0.3593 -0.0888
   70c3c     HC 1238   3.230   1.946   4.072 -0.0043 -0.4648  1.7727
   70c3c     HC 1239   3.368   2.027   4.001  1.8892 -1.6754 -0.8495
   70c3c     HC 1240   3.376   1.957   4.171  2.2824  0.4739 -0.9886
   71c3c     N4 1241   2.140   2.097   3.859 -0.4832  0.1191  0.0910
   71c3c     C1 1242   2.188   2.126   3.993 -0.5491 -0.4821 -0.1882
   71c3c     C1 1243   2.181   2.215   3.780 -0.4761  0.2606  0.0160
   71c3c     C2 1244   2.331   2.199   3.978 -0.4276 -0.0944 -0.1575
   71c3c     C2 1245   2.308   2.265   3.840 -0.3169 -0.6930 -0.1240
   71c3c     C1 1246   2.202   1.969   3.816  0.0270 -0.2372  0.2378
   71c3c     C1 1247   1.993   2.065   3.859  0.0404  0.1857  0.1444
   71c3c     H1 1248   2.192   2.040   4.059  2.9531  1.1937  1.9664
   71c3c     H1 1249   2.124   2.197   4.046 -1.9855  0.6097 -3.2767
   71c3c     H1 1250   2.189   2.184   3.676  1.9596  1.3568 -0.1376
   71c3c     H1 1251   2.113   2.300   3.772 -0.1618  0.4306 -0.8909
   71c3c     HC 1252   2.417   2.133   3.985 -0.1574  0.1743 -0.8569
   71c3c     HC 1253   2.326   2.278   4.053 -0.7624 -2.1091  2.0015
   71c3c     HC 1254   2.391   2.232   3.777  0.4894 -1.5593  1.3352
   71c3c     HC 1255   2.309   2.373   3.833 -0.5564 -0.7523 -1.1684
   71c3c     H1 1256   2.170   1.880   3.872  1.0717 -0.9769 -0.3222
   71c3c     H1 1257   2.176   1.954   3.712  0.5395 -2.3534  0.3946
   71c3c     H1 1258   2.310   1.980   3.828 -0.2728  0.0999  2.9915
   71c3c     H1 1259   1.966   2.029   3.760  1.1434  0.7823 -0.3840
   71c3c     H1 1260   1.964   1.988   3.931  1.6349  2.1535  2.9873
   71c3c     C2 1261   1.904   2.186   3.890  0.2597 -0.0774  0.0441
   71c3c     HC 1262   1.911   2.254   3.805  2.7102  0.5589  0.7092
   71c3c     HC 1263   1.933   2.226   3.986 -1.0118 -0.3941  0.5782
   71c3c     CT 1264   1.755   2.150   3.897  0.7456 -0.2831  0.9818
   71c3c     HC 1265   1.731   2.065   3.960 -0.6005 -1.1718 -0.7092
   71c3c     HC 1266   1.708   2.122   3.803  0.1343  0.6627  1.0009
   71c3c     HC 1267   1.701   2.239   3.932  0.7637  0.3582 -0.5847
   72c3c     N4 1268   1.858   1.952   3.122  0.0784  0.2464  0.6888
   72c3c     C1 1269   2.001   1.926   3.126  0.6589 -0.0871 -0.2455
   72c3c     C1 1270   1.808   1.869   3.230  0.5013  0.2989  0.0477
   72c3c     C2 1271   2.039   1.913   3.271 -0.0938 -0.0846  0.2412
   72c3c     C2 1272   1.908   1.882   3.351 -0.3056  0.0348  0.8273
   72c3c     C1 1273   1.823   2.090   3.151  0.8292  0.3267 -0.3371
   72c3c     C1 1274   1.796   1.930   2.984  0.2141 -0.9102  0.1548
   72c3c     H1 1275   2.069   1.994   3.074  1.4079 -0.1208  0.6852
   72c3c     H1 1276   2.015   1.826   3.084  0.7632 -0.1736 -0.0026
   72c3c     H1 1277   1.708   1.899   3.263  1.1842 -0.2609  2.7750
   72c3c     H1 1278   1.788   1.766   3.203  1.0117 -0.6260  3.0359
   72c3c     HC 1279   2.074   2.006   3.316  2.1256 -1.8276  2.2241
   72c3c     HC 1280   2.112   1.833   3.279 -0.5825 -0.7241 -1.4073
   72c3c     HC 1281   1.884   1.972   3.407  0.6829  1.4368 -0.9428
   72c3c     HC 1282   1.909   1.795   3.416 -4.1688  1.2641  2.6845
   72c3c     H1 1283   1.854   2.161   3.075  2.2051  0.6073  0.4724
   72c3c     H1 1284   1.716   2.106   3.138  0.8047 -0.1140 -0.6678
   72c3c     H1 1285   1.854   2.122   3.251 -0.6055 -0.6571  0.4375
   72c3c     H1 1286   1.696   1.971   2.973 -0.6090 -2.5545  1.2837
   72c3c     H1 1287   1.861   1.995   2.925  0.9871  0.4010  2.4165
   72c3c     C2 1288   1.785   1.789   2.923 -0.1404 -0.2002  0.1585
   72c3c     HC 1289   1.704   1.734   2.970  0.5498 -0.7896  0.6853
   72c3c     HC 1290   1.871   1.723   2.941  0.4520  1.4788  3.9487
   72c3c     CT 1291   1.758   1.777   2.772 -0.3795  0.2510 -0.3461
   72c3c     HC 1292   1.838   1.812   2.706 -0.5844  1.2579 -0.0647
   72c3c     HC 1293   1.674   1.840   2.745 -0.7089 -0.3243 -0.6731
   72c3c     HC 1294   1.737   1.674   2.742  1.3403  0.1633 -1.3565
   73c3c     N4 1295   2.103   5.864   2.064 -0.5128 -0.1551 -0.1702
   73c3c     C1 1296   2.249   5.869   2.081 -0.0453 -0.6242 -0.3402
   73c3c     C1 1297   2.091   5.787   1.935 -0.0887  0.3675  0.6791
   73c3c     C2 1298   2.296   5.726   2.039  0.7108  0.9509 -0.8988
   73c3c     C2 1299   2.194   5.677   1.945  0.8720 -0.1207 -0.7658
   73c3c     C1 1300   2.040   5.799   2.180  0.0763  0.1528 -0.5050
   73c3c     C1 1301   2.050   6.001   2.062 -0.6905 -0.1291  0.4787
   73c3c     H1 1302   2.273   5.893   2.185 -0.2540 -0.3984 -0.3427
   73c3c     H1 1303   2.294   5.944   2.015  0.4917 -3.1163 -2.9185
   73c3c     H1 1304   1.992   5.743   1.918 -0.6579  1.5533  0.8143
   73c3c     H1 1305   2.124   5.830   1.841  0.9725 -0.2636  0.7622
   73c3c     HC 1306   2.336   5.666   2.120  1.2744  1.3786 -0.8557
   73c3c     HC 1307   2.380   5.733   1.969 -0.0690  0.2385 -1.9095
   73c3c     HC 1308   2.160   5.593   2.006 -0.0214 -0.9106 -2.3387
   73c3c     HC 1309   2.214   5.630   1.849  0.2996 -2.5337  0.2432
   73c3c     H1 1310   2.031   5.860   2.270  0.7393  0.1167 -0.4133
   73c3c     H1 1311   1.933   5.777   2.178  0.6061 -2.5932 -1.3697
   73c3c     H1 1312   2.098   5.711   2.208 -1.2928 -0.8784 -0.8063
   73c3c     H1 1313   1.941   6.003   2.065 -0.7280  0.1854 -0.9194
   73c3c     H1 1314   2.081   6.061   2.148 -0.4735  1.2915 -0.5720
   73c3c     C2 1315   2.083   6.088   1.931  0.0241  0.3416 -0.1837
   73c3c     HC 1316   2.021   6.053   1.848  0.9346 -3.0010  0.4705
   73c3c     HC 1317   2.177   6.054   1.887 -0.2299 -0.0498 -0.4287
   73c3c     CT 1318   2.067   6.236   1.942  0.7663  0.2104  0.2907
   73c3c     HC 1319   1.974   6.272   1.985  0.8823  0.0999  0.6310
   73c3c     HC 1320   2.080   6.284   1.844 -0.7372 -2.7584 -1.4496
   73c3c     HC 1321   2.148   6.281   1.998  3.2789 -2.9061 -0.7081
   74c3c     N4 1322   4.862   3.317   2.443  0.0291 -0.0756  0.3471
   74c3c     C1 1323   4.777   3.198   2.432  0.7020  0.8192  0.3615
   74c3c     C1 1324   4.961   3.289   2.545  0.2326  0.0076  0.4078
   74c3c     C2 1325   4.870   3.078   2.457 -0.4537 -0.3002 -0.5545
   74c3c     C2 1326   4.988   3.139   2.535  0.1326  0.1471  0.2129
   74c3c     C1 1327   4.926   3.332   2.309  0.1976 -0.1590 -0.6489
   74c3c     C1 1328   4.780   3.440   2.462 -0.5388  0.0007  0.2023
   74c3c     H1 1329   4.727   3.183   2.336 -1.2043 -0.1881  1.4692
   74c3c     H1 1330   4.697   3.201   2.506  0.7001 -0.3901  0.4062
   74c3c     H1 1331   5.051   3.350   2.540  0.9396 -1.1336 -1.4695
   74c3c     H1 1332   4.919   3.299   2.645  0.8669  0.9889  0.5770
   74c3c     HC 1333   4.919   3.047   2.365  1.7673  1.5186 -0.0208
   74c3c     HC 1334   4.822   2.990   2.500 -2.8159  0.9366 -0.5437
   74c3c     HC 1335   5.073   3.117   2.470  0.0969  1.0797 -0.1560
   74c3c     HC 1336   5.009   3.095   2.633 -0.2858 -2.5955 -0.8883
   74c3c     H1 1337   4.858   3.350   2.226 -0.9145 -0.1982  0.2373
   74c3c     H1 1338   4.997   3.414   2.310 -1.1892  1.0663  1.1974
   74c3c     H1 1339   4.981   3.243   2.279 -1.3530 -1.0064 -1.0375
   74c3c     H1 1340   4.835   3.531   2.437 -0.0298  0.0471  1.4560
   74c3c     H1 1341   4.700   3.430   2.388 -1.2020 -0.4619  0.9685
   74c3c     C2 1342   4.708   3.471   2.591  0.3446  0.5494 -0.4400
   74c3c     HC 1343   4.777   3.465   2.675  1.1840 -1.9208 -1.2634
   74c3c     HC 1344   4.636   3.392   2.612  0.8759  0.6585  1.8778
   74c3c     CT 1345   4.634   3.604   2.588  0.2773 -0.2982  0.0801
   74c3c     HC 1346   4.607   3.649   2.683  1.0089 -1.1412  0.6905
   74c3c     HC 1347   4.539   3.595   2.535  1.4109 -0.7722 -1.9368
   74c3c     HC 1348   4.690   3.683   2.537  0.2310  0.7633  1.6749
   75c3c     N4 1349   4.171   3.277   2.509 -0.3058 -0.2121  0.3688
   75c3c     C1 1350   4.286   3.342   2.446 -0.2898 -0.3885 -0.0817
   75c3c     C1 1351   4.059   3.360   2.464 -0.1341  0.1815  0.1347
   75c3c     C2 1352   4.244   3.407   2.314  0.2065 -0.4148 -0.1236
   75c3c     C2 1353   4.096   3.397   2.316  0.7050 -0.1796  0.5119
   75c3c     C1 1354   4.166   3.138   2.454 -0.2158 -0.3478  0.3517
   75c3c     C1 1355   4.184   3.275   2.656 -0.4270  0.5603  0.3649
   75c3c     H1 1356   4.373   3.276   2.435 -0.3334 -0.2777 -1.0855
   75c3c     H1 1357   4.319   3.425   2.508 -2.6853  1.9420 -1.8494
   75c3c     H1 1358   3.966   3.308   2.488 -0.3771  0.1764 -0.7889
   75c3c     H1 1359   4.055   3.455   2.517  0.5719 -1.4144  3.1651
   75c3c     HC 1360   4.279   3.350   2.227  0.4924  0.1131 -0.3520
   75c3c     HC 1361   4.283   3.507   2.300  0.5776 -0.6027 -0.4709
   75c3c     HC 1362   4.070   3.320   2.243  1.9180 -0.8698  0.8033
   75c3c     HC 1363   4.058   3.495   2.287  0.7898 -1.2330 -3.5565
   75c3c     H1 1364   4.250   3.078   2.488 -1.5571 -0.9446  2.6720
   75c3c     H1 1365   4.071   3.087   2.467  0.8170 -2.5604 -0.4468
   75c3c     H1 1366   4.173   3.152   2.346  0.2351  1.0140  0.5427
   75c3c     H1 1367   4.092   3.224   2.686  0.6319 -1.4677  0.2794
   75c3c     H1 1368   4.264   3.213   2.697  1.2297  0.9229 -2.2144
   75c3c     C2 1369   4.194   3.409   2.738  0.2930  0.3621  0.4617
   75c3c     HC 1370   4.101   3.465   2.729 -0.1796 -0.1804  1.7378
   75c3c     HC 1371   4.275   3.470   2.700 -1.4888  1.0170 -2.4428
   75c3c     CT 1372   4.203   3.391   2.893  0.2511  0.2453  0.7855
   75c3c     HC 1373   4.130   3.319   2.930  0.5727 -1.8112 -2.4058
   75c3c     HC 1374   4.192   3.489   2.940 -0.7214  0.2013  0.6590
   75c3c     HC 1375   4.305   3.368   2.923 -0.2217  0.1834  2.4163
   76fsi    FSI 1376   2.660   2.282   3.891 -0.1244  0.9166 -0.1711
   76fsi    SBT 1377   2.745   2.159   3.843 -0.5747  0.1106  0.3175
   76fsi    NBT 1378   2.721   2.163   3.685 -0.4581 -0.4344  0.1577
   76fsi    OBT 1379   2.880   2.197   3.867  0.3759  0.0966  0.0314
   76fsi    OBT 1380   2.695   2.042   3.908  0.3562  0.0800  0.0929
   76fsi    SBT 1381   2.624   2.084   3.593  0.0876  0.0485  0.2424
   76fsi    OBT 1382   2.540   1.985   3.659  0.2739 -0.2604  0.0382
   76fsi    OBT 1383   2.681   2.049   3.462  0.2173  0.0118  0.2558
   76fsi    FSI 1384   2.515   2.190   3.554  0.5562 -0.3034 -0.7003
   77fsi    FSI 1385   2.123   1.408   2.106  0.4644  0.0374  0.0310
   77fsi    SBT 1386   2.118   1.439   2.257  0.1218  0.2713 -0.0512
   77fsi    NBT 1387   2.002   1.540   2.274 -0.3662  0.7087  0.1059
   77fsi    OBT 1388   2.107   1.305   2.310  0.4176  0.3279  0.6986
   77fsi    OBT 1389   2.242   1.499   2.285 -0.2498 -0.4797 -0.5662
   77fsi    SBT 1390   2.005   1.678   2.350 -0.2266  0.3014  0.6185
   77fsi    OBT 1391   2.098   1.686   2.463 -0.1172  0.3588  0.3698
   77fsi    OBT 1392   1.875   1.725   2.373  0.3796  0.3152 -0.2282
   77fsi    FSI 1393   2.069   1.775   2.249 -0.5111 -0.5102 -0.5588
   78fsi    FSI 1394   3.948   2.245   4.316 -0.0767 -0.3138 -0.3460
   78fsi    SBT 1395   3.885   2.358   4.227  0.0382  0.2503  0.2066
   78fsi    NBT 1396   3.923   2.295   4.091 -0.4053 -0.4702  0.8184
   78fsi    OBT 1397   3.742   2.349   4.256 -0.0616 -0.0808  0.7529
   78fsi    OBT 1398   3.953   2.473   4.260  0.5189 -0.1890  0.1125
   78fsi    SBT 1399   3.844   2.229   3.978 -0.1189 -0.2569 -0.0314
   78fsi    OBT 1400   3.715   2.183   4.015  0.2509  0.1677 -0.2434
   78fsi    OBT 1401   3.933   2.153   3.895 -0.4766 -0.0630 -0.4468
   78fsi    FSI 1402   3.812   2.352   3.885  0.2577 -0.3129 -0.5270
   79fsi    FSI 1403   3.123   1.198   2.255  0.5475  0.1621 -0.0439
   79fsi    SBT 1404   2.980   1.241   2.295 -0.0232  0.5869  0.5278
   79fsi    NBT 1405   2.893   1.200   2.166 -0.0004  0.4680  0.2952
   79fsi    OBT 1406   2.951   1.156   2.405 -0.1844  0.1855  0.6309
   79fsi    OBT 1407   2.996   1.382   2.325 -0.0161 -0.2196  0.0347
   79fsi    SBT 1408   2.797   1.293   2.080  0.0988  0.3282 -0.4516
   79fsi    OBT 1409   2.752   1.408   2.146  0.1056  0.0754 -0.1030
   79fsi    OBT 1410   2.699   1.220   2.003 -0.1687  0.0737 -0.7201
   79fsi    FSI 1411   2.896   1.347   1.970 -0.2223 -0.7768 -0.3119
   80fsi    FSI 1412   4.100   2.765   2.860 -0.1964  0.1216  0.4595
   80fsi    SBT 1413   4.074   2.870   2.752 -0.0143  0.4196  0.2524
   80fsi    NBT 1414   3.930   2.920   2.795  0.2322  0.3046 -0.0012
   80fsi    OBT 1415   4.179   2.963   2.779  0.5567 -0.5296 -0.0887
   80fsi    OBT 1416   4.069   2.798   2.626 -0.1296 -0.3404 -0.2350
   80fsi    SBT 1417   3.878   3.049   2.867  0.0445  0.3590 -0.0891
   80fsi    OBT 1418   3.977   3.102   2.956  0.9294  0.6342 -0.2416
   80fsi    OBT 1419   3.740   3.046   2.913  0.2551 -0.4985  0.2600
   80fsi    FSI 1420   3.873   3.159   2.755 -0.2223  0.5180 -0.0095
   81fsi    FSI 1421   2.694   0.304   1.886 -0.0853  0.0174  0.2903
   81fsi    SBT 1422   2.740   0.443   1.948  0.7199  0.2857 -0.4940
   81fsi    NBT 1423   2.897   0.422   1.941 -0.2809  0.8310  0.1653
   81fsi    OBT 1424   2.690   0.542   1.860 -0.0183  0.2909  0.1629
   81fsi    OBT 1425   2.697   0.444   2.086  0.0313 -0.8665  0.6863
   81fsi    SBT 1426   2.992   0.361   2.058  0.0397  0.1209  0.4776
   81fsi    OBT 1427   3.129   0.343   2.009  0.1894 -0.6793 -0.0138
   81fsi    OBT 1428   2.940   0.239   2.121  0.5663 -0.3047 -0.2313
   81fsi    FSI 1429   3.002   0.469   2.174  0.3176  0.6342  0.0033
   82fsi    FSI 1430   4.077   2.130   3.193 -0.5334  0.0901  0.1393
   82fsi    SBT 1431   4.126   2.000   3.266 -0.0001  0.3955 -0.2383
   82fsi    NBT 1432   4.052   2.024   3.406 -0.1584 -0.2820  0.2839
   82fsi    OBT 1433   4.073   1.897   3.183 -0.4770  0.9446  0.9331
   82fsi    OBT 1434   4.271   2.016   3.280  0.2567  0.3769  0.0206
   82fsi    SBT 1435   4.104   2.083   3.551  0.2662 -0.1155 -0.1201
   82fsi    OBT 1436   4.247   2.086   3.555 -0.0506 -0.3847  0.3331
   82fsi    OBT 1437   4.033   2.023   3.659 -0.1598 -0.1636  0.4089
   82fsi    FSI 1438   4.068   2.234   3.558 -0.2661 -0.1477  0.1184
   83fsi    FSI 1439   3.825   1.798   4.339  0.0483 -0.3830 -0.3121
   83fsi    SBT 1440   3.815   1.894   4.214  0.0005  0.2120 -0.1164
   83fsi    NBT 1441   3.738   1.806   4.103  0.3218 -0.1607  0.2462
   83fsi    OBT 1442   3.717   1.990   4.259  0.0297 -0.1622  0.3388
   83fsi    OBT 1443   3.950   1.940   4.192 -0.0084 -0.1665  0.5763
   83fsi    SBT 1444   3.803   1.724   3.989  0.2265 -0.0579 -0.1470
   83fsi    OBT 1445   3.903   1.802   3.915 -0.6338  0.6148  0.6309
   83fsi    OBT 1446   3.702   1.647   3.917 -0.0482  0.8201  0.3485
   83fsi    FSI 1447   3.884   1.612   4.065 -0.6224  0.4155  0.0841
   84fsi    FSI 1448   3.668   1.112   1.285  0.4032  0.1336 -0.2032
   84fsi    SBT 1449   3.524   1.171   1.321 -0.3494  0.1538  0.2059
   84fsi    NBT 1450   3.475   1.228   1.181  0.2646  0.2265  0.4117
   84fsi    OBT 1451   3.444   1.057   1.364 -0.4308  0.0423 -0.1147
   84fsi    OBT 1452   3.561   1.277   1.413  0.0676 -0.3874 -0.3154
   84fsi    SBT 1453   3.395   1.360   1.134  0.1887  0.2994 -0.1204
   84fsi    OBT 1454   3.331   1.419   1.250  0.7019 -0.3671  0.3645
   84fsi    OBT 1455   3.310   1.329   1.023 -0.0417 -0.4613  0.6369
   84fsi    FSI 1456   3.501   1.464   1.080  0.8401 -0.5569  0.2127
   85fsi    FSI 1457   4.895   2.944   1.947 -0.3327 -0.1604  0.2934
   85fsi    SBT 1458   5.023   2.993   2.026 -0.2506 -0.1760  0.1593
   85fsi    NBT 1459   5.143   2.967   1.928 -0.1265 -0.2976  0.6724
   85fsi    OBT 1460   4.998   3.131   2.053 -0.3911  0.9261  0.2964
   85fsi    OBT 1461   5.021   2.901   2.136 -0.3485 -0.0431 -0.2515
   85fsi    SBT 1462   5.184   3.055   1.805 -0.0922 -0.3407  0.4882
   85fsi    OBT 1463   5.088   3.154   1.762  0.5024  0.2120 -0.6324
   85fsi    OBT 1464   5.242   2.982   1.697  0.2583 -0.2524  0.2791
   85fsi    FSI 1465   5.303   3.133   1.864  0.2817  0.1856  0.0097
   86fsi    FSI 1466   2.823   0.679   2.254 -0.3529  0.1236 -0.6341
   86fsi    SBT 1467   2.849   0.697   2.408  0.2732  0.0796  0.0373
   86fsi    NBT 1468   2.919   0.569   2.468  0.4586 -0.1676 -0.2784
   86fsi    OBT 1469   2.935   0.810   2.414 -0.3742 -0.4700  0.1108
   86fsi    OBT 1470   2.715   0.717   2.461 -0.2082  0.1863  0.1176
   86fsi    SBT 1471   2.852   0.441   2.535  0.2123 -0.4477 -0.2229
   86fsi    OBT 1472   2.911   0.321   2.474 -0.8629 -1.3438 -0.2166
   86fsi    OBT 1473   2.708   0.447   2.566  0.2884  0.0660 -0.2156
   86fsi    FSI 1474   2.916   0.449   2.673  0.0446 -0.3356 -0.0711
   87fsi    FSI 1475   2.351   0.599   2.243 -0.6367  0.2038 -0.1837
   87fsi    SBT 1476   2.280   0.589   2.379 -0.3576  0.2180 -0.3856
   87fsi    NBT 1477   2.262   0.432   2.394 -0.3169 -0.4990 -0.5287
   87fsi    OBT 1478   2.376   0.645   2.463 -0.2602  0.1559 -0.4484
   87fsi    OBT 1479   2.153   0.651   2.377 -0.7856  0.4170  0.4239
   87fsi    SBT 1480   2.131   0.351   2.428  0.2674  0.4604 -0.1548
   87fsi    OBT 1481   2.046   0.418   2.521 -0.0210  0.1559 -0.0985
   87fsi    OBT 1482   2.159   0.213   2.447  0.8384  0.6235 -0.0663
   87fsi    FSI 1483   2.056   0.348   2.291 -0.3941 -0.0421 -0.1156
   88fsi    FSI 1484   4.755   1.941   3.123  0.3581  0.3843 -0.0742
   88fsi    SBT 1485   4.604   1.985   3.148 -0.1293  0.0173 -0.2303
   88fsi    NBT 1486   4.537   1.847   3.164 -0.1823 -0.2197  0.0099
   88fsi    OBT 1487   4.613   2.059   3.269 -0.1582  0.1695 -0.0040
   88fsi    OBT 1488   4.571   2.061   3.030 -0.5498  0.1055  0.5558
   88fsi    SBT 1489   4.423   1.770   3.090 -0.0812 -0.2074 -0.0040
   88fsi    OBT 1490   4.354   1.847   2.993  0.6053 -0.9965 -0.3176
   88fsi    OBT 1491   4.345   1.688   3.175  0.4396 -0.3762 -0.2213
   88fsi    FSI 1492   4.502   1.662   3.001  0.2349  0.0761 -0.6168
   89fsi    FSI 1493   3.899   1.945   2.684 -0.6220 -0.1763  0.4788
   89fsi    SBT 1494   4.010   2.041   2.737 -0.1864 -0.1708  0.1095
   89fsi    NBT 1495   4.046   2.121   2.602 -0.5306  0.5164  0.1930
   89fsi    OBT 1496   3.952   2.114   2.841  0.4381 -0.2779  0.7419
   89fsi    OBT 1497   4.118   1.962   2.777 -0.0985  0.4954  0.2011
   89fsi    SBT 1498   3.991   2.258   2.553 -0.5493 -0.5205 -0.1576
   89fsi    OBT 1499   3.885   2.321   2.624  0.2995  0.3788 -0.2854
   89fsi    OBT 1500   3.988   2.266   2.408 -0.1760  0.3010 -0.4148
   89fsi    FSI 1501   4.117   2.353   2.587 -0.0599  0.0609 -0.2128
   90fsi    FSI 1502   3.049   2.464   2.739 -0.5463 -0.3106 -0.1606
   90fsi    SBT 1503   3.140   2.477   2.870  0.0705 -0.2088  0.2831
   90fsi    NBT 1504   3.120   2.339   2.946 -0.1579 -0.2322  0.2721
   90fsi    OBT 1505   3.271   2.488   2.817 -0.1785  0.1509  0.4994
   90fsi    OBT 1506   3.092   2.592   2.944 -0.1212 -0.5853  0.3936
   90fsi    SBT 1507   2.985   2.262   2.964  0.0603 -0.0681 -0.0725
   90fsi    OBT 1508   2.872   2.350   2.965  0.1238 -1.0671  0.1628
   90fsi    OBT 1509   2.996   2.167   3.072  0.0602 -0.5806 -0.4325
   90fsi    FSI 1510   2.973   2.169   2.837  0.4875  0.1626  0.2138
   91fsi    FSI 1511   2.640   5.901   2.546  0.1326  0.7728 -0.1537
   91fsi    SBT 1512   2.618   5.868   2.391  0.0230 -0.5091 -0.1347
   91fsi    NBT 1513   2.470   5.815   2.383 -0.4733 -0.6436  0.5078
   91fsi    OBT 1514   2.619   5.994   2.318  0.7977 -0.2949 -0.8013
   91fsi    OBT 1515   2.714   5.766   2.359  0.1341  0.1195  0.1240
   91fsi    SBT 1516   2.406   5.687   2.436  0.2523  0.2283  0.1391
   91fsi    OBT 1517   2.490   5.569   2.441  0.3392  0.3197 -0.1881
   91fsi    OBT 1518   2.275   5.667   2.384  0.2392  0.2378  0.1950
   91fsi    FSI 1519   2.382   5.716   2.582  0.3898 -0.3401 -0.1847
   92fsi    FSI 1520   3.331   5.042   1.528  0.1921  0.7255  0.4244
   92fsi    SBT 1521   3.260   5.106   1.649 -0.0350 -0.0177 -0.0545
   92fsi    NBT 1522   3.152   5.004   1.696 -0.4674 -0.2053  0.0885
   92fsi    OBT 1523   3.359   5.120   1.749  0.2651  0.8641  0.1358
   92fsi    OBT 1524   3.206   5.229   1.595 -0.0468  0.1948  0.0549
   92fsi    SBT 1525   3.029   5.030   1.782  0.0061  0.0494 -0.1306
   92fsi    OBT 1526   2.909   4.970   1.734  0.4192  0.1584  0.1368
   92fsi    OBT 1527   3.025   5.164   1.831 -0.4914 -0.0782 -0.2426
   92fsi    FSI 1528   3.065   4.959   1.920  0.1250  0.1007 -0.4542
   93fsi    FSI 1529   3.151   5.592   0.869 -0.1577  0.2873 -0.2469
   93fsi    SBT 1530   3.002   5.547   0.877 -0.3893  0.0572  0.2791
   93fsi    NBT 1531   3.022   5.390   0.857 -0.5166 -0.1132 -0.2005
   93fsi    OBT 1532   2.953   5.585   1.007 -0.5021 -0.4838 -0.2361
   93fsi    OBT 1533   2.934   5.604   0.764  0.5684 -0.5351  0.0837
   93fsi    SBT 1534   2.945   5.289   0.768 -0.0655 -0.1086  0.1498
   93fsi    OBT 1535   2.807   5.333   0.754  0.3778  0.6105 -0.0168
   93fsi    OBT 1536   2.973   5.153   0.801  0.0969  0.5724 -1.0813
   93fsi    FSI 1537   3.003   5.313   0.635 -0.8576  0.0796  0.1891
   94fsi    FSI 1538   4.545   1.753   3.736 -0.1217 -0.4261 -0.6920
   94fsi    SBT 1539   4.468   1.882   3.694 -0.3519  0.1556  0.0739
   94fsi    NBT 1540   4.438   1.939   3.834 -0.3306 -0.6004 -0.7178
   94fsi    OBT 1541   4.564   1.952   3.618 -0.4351  0.4533  0.9335
   94fsi    OBT 1542   4.354   1.830   3.628  0.1240  0.4031  0.0582
   94fsi    SBT 1543   4.300   1.939   3.909  0.2679 -0.3075 -0.2254
   94fsi    OBT 1544   4.200   1.841   3.875 -0.5288 -0.3374  0.0170
   94fsi    OBT 1545   4.237   2.067   3.936  0.3044 -0.1820  0.4062
   94fsi    FSI 1546   4.331   1.886   4.053 -0.1828 -0.5225  0.4564
   95fsi    FSI 1547   3.012   0.886   3.202 -0.0160 -0.4920 -0.4552
   95fsi    SBT 1548   3.068   0.971   3.320 -0.2988 -0.2710  0.0202
   95fsi    NBT 1549   3.198   1.030   3.260 -0.6772  0.3285 -0.6264
   95fsi    OBT 1550   2.959   1.057   3.340  0.5128  0.5660  0.0955
   95fsi    OBT 1551   3.096   0.880   3.428  0.2903 -0.6665  0.3113
   95fsi    SBT 1552   3.237   1.179   3.233  0.0875 -0.2665  0.0827
   95fsi    OBT 1553   3.138   1.281   3.270 -0.0130  0.5113  0.7987
   95fsi    OBT 1554   3.317   1.192   3.115 -0.3284 -0.1542  0.4776
   95fsi    FSI 1555   3.353   1.210   3.339  0.3299 -0.8366  0.1548
   96fsi    FSI 1556   2.911   5.479   1.946  0.2311 -0.3424 -0.2135
   96fsi    SBT 1557   2.925   5.614   2.028 -0.1610 -0.0501 -0.2552
   96fsi    NBT 1558   2.814   5.712   1.970  0.1044 -0.2704 -0.3870
   96fsi    OBT 1559   2.894   5.573   2.166  0.9330  0.0289 -0.5550
   96fsi    OBT 1560   3.058   5.658   2.001  0.4279  0.4854 -0.6903
   96fsi    SBT 1561   2.661   5.736   2.004 -0.1421  0.0105 -0.2784
   96fsi    OBT 1562   2.631   5.867   2.045 -0.3529 -0.0735  0.3866
   96fsi    OBT 1563   2.598   5.623   2.080  0.1727 -0.2061  0.1099
   96fsi    FSI 1564   2.599   5.719   1.862 -0.2894 -0.0627  0.3194
   97fsi    FSI 1565   5.772   2.767   1.479  0.2776  0.0896 -0.1330
   97fsi    SBT 1566   5.652   2.742   1.376 -0.5753 -0.3078 -0.1639
   97fsi    NBT 1567   5.586   2.610   1.419 -0.1105 -0.6923  0.5708
   97fsi    OBT 1568   5.570   2.857   1.398  0.1581 -0.0966  0.2008
   97fsi    OBT 1569   5.714   2.726   1.248  0.1478  0.4548  0.0043
   97fsi    SBT 1570   5.457   2.584   1.501 -0.0639 -0.0748  0.4572
   97fsi    OBT 1571   5.359   2.501   1.429 -0.3983  0.1767 -0.1795
   97fsi    OBT 1572   5.412   2.701   1.571 -0.1808  0.2814  0.1402
   97fsi    FSI 1573   5.505   2.484   1.616 -0.4532  0.2708 -0.2037
   98fsi    FSI 1574   3.649   0.564   1.396 -0.2674  0.3299 -0.2301
   98fsi    SBT 1575   3.612   0.692   1.477 -0.0033  0.1941 -0.2257
   98fsi    NBT 1576   3.510   0.631   1.586  0.0840 -0.6112  0.1660
   98fsi    OBT 1577   3.737   0.742   1.536  0.0035 -0.4528  0.0315
   98fsi    OBT 1578   3.538   0.776   1.393  0.3729  0.8947  0.7502
   98fsi    SBT 1579   3.348   0.629   1.586 -0.1753  0.0146  0.0985
   98fsi    OBT 1580   3.293   0.759   1.584  0.4688 -0.5780 -0.4862
   98fsi    OBT 1581   3.295   0.539   1.686  0.1040 -0.7330 -0.2064
   98fsi    FSI 1582   3.314   0.566   1.448 -0.2591  0.2401  0.4136
   99fsi    FSI 1583   2.709   0.861   3.447 -0.1502 -0.2838  0.0496
   99fsi    SBT 1584   2.617   0.975   3.396  0.2782 -0.3414  0.1794
   99fsi    NBT 1585   2.613   1.074   3.517 -0.7832 -0.9741 -0.1580
   99fsi    OBT 1586   2.678   1.032   3.278  0.7038  0.2031  0.3686
   99fsi    OBT 1587   2.488   0.915   3.368 -0.2140 -0.0961 -0.1946
   99fsi    SBT 1588   2.496   1.117   3.610  0.4600  0.1708 -0.1078
   99fsi    OBT 1589   2.534   1.160   3.739 -0.1353 -0.1428  0.3260
   99fsi    OBT 1590   2.381   1.030   3.600 -0.1992 -0.0730 -0.3257
   99fsi    FSI 1591   2.462   1.249   3.536 -0.2970  0.3144 -0.2592
  100fsi    FSI 1592   2.325   1.637   3.201 -0.0415 -1.0104  0.0821
  100fsi    SBT 1593   2.435   1.744   3.165  0.1493  0.0749  0.1608
  100fsi    NBT 1594   2.385   1.793   3.023  0.4201 -0.0424  0.0312
  100fsi    OBT 1595   2.419   1.850   3.259 -0.3450 -0.1160 -0.2332
  100fsi    OBT 1596   2.545   1.660   3.175 -0.1234  0.6902 -0.6943
  100fsi    SBT 1597   2.457   1.779   2.881  0.0967  0.5498 -0.8253
  100fsi    OBT 1598   2.588   1.849   2.871  0.7382 -0.1439 -0.0608
  100fsi    OBT 1599   2.370   1.797   2.772  0.1480 -0.0939  0.1329
  100fsi    FSI 1600   2.497   1.630   2.860  0.1167 -0.0706 -0.1169
  101fsi    FSI 1601   4.612   2.379   3.323  0.0373 -0.3060 -0.1944
  101fsi    SBT 1602   4.510   2.374   3.447  0.2184 -0.2864 -0.0531
  101fsi    NBT 1603   4.365   2.386   3.387  0.5408 -0.0009 -0.4241
  101fsi    OBT 1604   4.529   2.246   3.506  0.6919  0.3359  0.2736
  101fsi    OBT 1605   4.542   2.483   3.533  0.0249  0.0373  0.1630
  101fsi    SBT 1606   4.279   2.513   3.349 -0.3742 -0.4368  0.4465
  101fsi    OBT 1607   4.170   2.480   3.264  0.0325 -0.0663 -0.2229
  101fsi    OBT 1608   4.345   2.637   3.325  0.7142 -0.0976  0.3394
  101fsi    FSI 1609   4.205   2.545   3.486  0.0525  0.2344  0.3482
  102fsi    FSI 1610   3.624   1.548   2.269 -0.1482 -0.5503 -0.2460
  102fsi    SBT 1611   3.617   1.558   2.427  0.1680  0.3979  0.2679
  102fsi    NBT 1612   3.482   1.484   2.470  0.5732  0.2365 -0.5365
  102fsi    OBT 1613   3.736   1.492   2.470  0.1170  0.0590  0.4689
  102fsi    OBT 1614   3.621   1.699   2.453  0.6058 -0.0350  0.0196
  102fsi    SBT 1615   3.437   1.338   2.445  0.3064 -0.2146 -0.1449
  102fsi    OBT 1616   3.311   1.304   2.503  0.1353 -0.1268  0.6108
  102fsi    OBT 1617   3.534   1.231   2.454 -0.0931 -0.3890  0.4405
  102fsi    FSI 1618   3.404   1.348   2.291 -0.3302  0.2019 -0.5183
  103fsi    FSI 1619   3.611   1.624   1.869  0.2526 -0.2436 -0.1498
  103fsi    SBT 1620   3.623   1.752   1.793  0.5313 -0.2829  0.4519
  103fsi    NBT 1621   3.498   1.734   1.698 -0.5145 -0.0965  0.2739
  103fsi    OBT 1622   3.610   1.857   1.890  0.2528  0.4124  0.2355
  103fsi    OBT 1623   3.747   1.743   1.722  0.1577 -0.1502  0.4420
  103fsi    SBT 1624   3.475   1.669   1.555  0.0596  0.0713  0.4523
  103fsi    OBT 1625   3.342   1.607   1.544  0.0371 -0.1741 -0.1031
  103fsi    OBT 1626   3.583   1.591   1.505 -0.5672 -0.1607  0.0327
  103fsi    FSI 1627   3.473   1.789   1.455 -0.2546  0.1486  0.5606
  104fsi    FSI 1628   2.967   1.282   4.587 -0.1673 -0.4737  0.5095
  104fsi    SBT 1629   2.932   1.379   4.468 -0.3918 -0.2373 -0.3809
  104fsi    NBT 1630   3.016   1.315   4.350 -0.2896  0.1992  0.0577
  104fsi    OBT 1631   2.788   1.365   4.455  0.1570 -0.3291 -0.2959
  104fsi    OBT 1632   2.986   1.503   4.514  0.1691  0.1324  0.2538
  104fsi    SBT 1633   2.974   1.234   4.218  0.0793 -0.1086 -0.0490
  104fsi    OBT 1634   3.055   1.263   4.105  0.4288  0.5030  0.4110
  104fsi    OBT 1635   2.835   1.233   4.194 -0.1851  0.1012 -0.1701
  104fsi    FSI 1636   3.016   1.091   4.256 -0.2979 -0.0666  0.2193
  105fsi    FSI 1637   3.123   0.312   0.788  0.3058 -0.2192 -0.1028
  105fsi    SBT 1638   3.110   0.307   0.945 -0.2634  0.2979 -0.0962
  105fsi    NBT 1639   3.247   0.241   0.981  0.1679  0.6276  0.2495
  105fsi    OBT 1640   3.118   0.445   0.979  0.3547 -0.1010  0.0864
  105fsi    OBT 1641   2.983   0.237   0.971 -0.2240  0.2634 -0.2255
  105fsi    SBT 1642   3.340   0.263   1.107 -0.2919  0.5533  0.2596
  105fsi    OBT 1643   3.282   0.332   1.225 -0.3134  0.6928 -0.4979
  105fsi    OBT 1644   3.476   0.293   1.073 -0.3361 -0.4747  0.7360
  105fsi    FSI 1645   3.347   0.110   1.165  0.2687 -0.0191  0.1769
  106fsi    FSI 1646   5.518   2.420   2.322  0.9228 -0.0963 -0.6168
  106fsi    SBT 1647   5.387   2.507   2.310  0.2793 -0.1398 -0.0405
  106fsi    NBT 1648   5.297   2.429   2.205 -0.0196 -0.3058  0.4958
  106fsi    OBT 1649   5.327   2.511   2.441 -0.8493 -0.4567 -0.0703
  106fsi    OBT 1650   5.432   2.628   2.257  0.0830  0.2664 -0.4164
  106fsi    SBT 1651   5.271   2.272   2.193 -0.0664  0.1901 -0.3005
  106fsi    OBT 1652   5.159   2.248   2.109  0.3286 -0.3562 -0.0301
  106fsi    OBT 1653   5.269   2.204   2.322  0.1321 -0.0286 -0.1262
  106fsi    FSI 1654   5.390   2.217   2.112 -0.3328 -0.0821  0.4888
  107fsi    FSI 1655   4.511   3.500   1.968  0.2359  0.1783  0.0941
  107fsi    SBT 1656   4.648   3.438   2.000  0.0731 -0.0792  0.4263
  107fsi    NBT 1657   4.616   3.332   2.114 -0.0637  0.7486  0.5375
  107fsi    OBT 1658   4.699   3.388   1.874  0.1500  0.9019  0.4147
  107fsi    OBT 1659   4.716   3.558   2.045  0.1970  0.4328  0.1109
  107fsi    SBT 1660   4.551   3.189   2.098 -0.2498 -0.2768  0.0196
  107fsi    OBT 1661   4.500   3.173   1.965  0.1285  0.9270 -0.2858
  107fsi    OBT 1662   4.465   3.160   2.205 -0.1308  0.8558  0.2506
  107fsi    FSI 1663   4.672   3.090   2.108 -0.0902 -0.5929  0.0551
  108fsi    FSI 1664   2.231   2.173   2.409 -0.1826 -0.7269 -0.0831
  108fsi    SBT 1665   2.266   2.106   2.545 -0.0037 -0.4780 -0.3246
  108fsi    NBT 1666   2.147   2.162   2.630  0.1941 -0.6138  0.1514
  108fsi    OBT 1667   2.251   1.967   2.522 -0.0445 -0.1066 -0.2272
  108fsi    OBT 1668   2.391   2.164   2.578 -0.1965 -0.2180 -0.1008
  108fsi    SBT 1669   2.041   2.100   2.716 -0.3560 -0.7788 -0.1272
  108fsi    OBT 1670   2.011   2.183   2.833  0.4919  0.1678 -0.3906
  108fsi    OBT 1671   2.073   1.962   2.747 -0.3410  0.0450  0.1785
  108fsi    FSI 1672   1.904   2.095   2.632 -0.2804 -0.6401 -0.0365
  109fsi    FSI 1673   3.275   2.288   4.527  0.3551 -0.1534 -0.4629
  109fsi    SBT 1674   3.310   2.192   4.400  0.6773  0.1065  0.3895
  109fsi    NBT 1675   3.233   2.260   4.283  0.5844 -0.1981  0.3737
  109fsi    OBT 1676   3.456   2.195   4.389 -0.4449 -0.5377  0.6732
  109fsi    OBT 1677   3.246   2.066   4.431  0.3273 -0.3628 -0.0933
  109fsi    SBT 1678   3.293   2.351   4.173 -0.1718 -0.1854 -0.4494
  109fsi    OBT 1679   3.208   2.359   4.060  0.1132 -0.4251 -0.3068
  109fsi    OBT 1680   3.431   2.316   4.145  0.0742  0.0752 -0.0727
  109fsi    FSI 1681   3.286   2.492   4.230 -0.5628  0.2031 -0.2307
  110fsi    FSI 1682   2.491   6.240   1.140 -0.1040  0.0987 -0.0608
  110fsi    SBT 1683   2.632   6.191   1.190  0.1585  0.1524 -0.8879
  110fsi    NBT 1684   2.621   6.038   1.171 -0.0097  0.1206  0.3448
  110fsi    OBT 1685   2.727   6.242   1.097  0.2392 -0.0367  0.4563
  110fsi    OBT 1686   2.646   6.240   1.331 -0.3029  0.1851 -0.4098
  110fsi    SBT 1687   2.654   5.916   1.262 -0.2197  0.1196 -0.6494
  110fsi    OBT 1688   2.728   5.948   1.381  0.3099  0.3780 -0.5789
  110fsi    OBT 1689   2.709   5.808   1.184  0.0065 -0.2646 -0.3172
  110fsi    FSI 1690   2.513   5.868   1.313  0.1052  0.0410 -0.1607
  111fsi    FSI 1691   2.526   5.592   1.429 -0.5755  0.5609 -0.4547
  111fsi    SBT 1692   2.642   5.490   1.407 -0.4218 -0.1897  0.2998
  111fsi    NBT 1693   2.733   5.502   1.536  0.3044  0.1102 -0.0074
  111fsi    OBT 1694   2.583   5.356   1.392 -0.0651 -0.2420 -0.0417
  111fsi    OBT 1695   2.718   5.541   1.289  0.4573 -0.0912  0.2578
  111fsi    SBT 1696   2.859   5.591   1.573 -0.1184  0.0322  0.0968
  111fsi    OBT 1697   2.895   5.676   1.471 -0.1069 -0.0448 -0.3324
  111fsi    OBT 1698   2.963   5.517   1.644 -0.1110 -0.0535  0.0712
  111fsi    FSI 1699   2.806   5.691   1.682 -0.2612 -0.4878  0.3303
  112fsi    FSI 1700   2.941   1.258   1.598  0.1069 -0.0387  0.9535
  112fsi    SBT 1701   3.059   1.219   1.507  0.0304  0.1320 -0.5955
  112fsi    NBT 1702   2.996   1.133   1.392 -0.1578  0.3688  0.0833
  112fsi    OBT 1703   3.120   1.343   1.464 -0.0742 -0.4886 -0.0240
  112fsi    OBT 1704   3.136   1.145   1.607 -0.2382  0.1463  0.1692
  112fsi    SBT 1705   3.047   0.996   1.333 -0.3005  0.1370 -0.2692
  112fsi    OBT 1706   2.934   0.912   1.293 -0.3712 -0.0395  0.0313
  112fsi    OBT 1707   3.156   0.931   1.399 -0.2961  0.5314 -0.2586
  112fsi    FSI 1708   3.114   1.055   1.207  0.1341 -0.3981  0.0933
  113fsi    FSI 1709   1.710   5.686   1.639  0.2929  0.1556 -0.3665
  113fsi    SBT 1710   1.791   5.575   1.719  0.2110  0.2255 -0.1550
  113fsi    NBT 1711   1.935   5.613   1.668 -0.2378  0.6086  0.7120
  113fsi    OBT 1712   1.768   5.596   1.855  0.9630 -0.1319 -0.1564
  113fsi    OBT 1713   1.747   5.452   1.660 -0.0142 -0.0465 -0.1012
  113fsi    SBT 1714   2.017   5.568   1.547  0.3087 -0.3295  0.3693
  113fsi    OBT 1715   2.044   5.681   1.458 -0.1122  0.0748 -0.3076
  113fsi    OBT 1716   1.974   5.443   1.490  0.1564  0.2893  0.0741
  113fsi    FSI 1717   2.153   5.531   1.613 -0.2617 -0.2162  0.0191
  114fsi    FSI 1718   1.703   0.660   2.778 -0.5064  0.0926  0.4889
  114fsi    SBT 1719   1.845   0.699   2.832  0.4050 -0.6777 -0.3246
  114fsi    NBT 1720   1.827   0.823   2.922  0.0111 -0.5496 -0.0669
  114fsi    OBT 1721   1.887   0.582   2.908 -0.2884  0.2429  0.1423
  114fsi    OBT 1722   1.914   0.736   2.711  1.0851 -0.0931  0.0930
  114fsi    SBT 1723   1.788   0.844   3.075  0.2577 -0.0362  0.2918
  114fsi    OBT 1724   1.754   0.730   3.151  0.5945 -0.4337 -0.2235
  114fsi    OBT 1725   1.703   0.960   3.099 -0.6478  0.0915  0.6580
  114fsi    FSI 1726   1.925   0.892   3.129  0.2995 -0.7117  0.3368
  115fsi    FSI 1727   3.741   3.256   1.986 -0.4838  0.3989 -0.2025
  115fsi    SBT 1728   3.855   3.162   2.044 -0.0209 -0.2562  0.3179
  115fsi    NBT 1729   3.831   3.182   2.201 -0.5803  0.0289  0.4843
  115fsi    OBT 1730   3.829   3.036   1.993 -0.4122  0.0224  0.2521
  115fsi    OBT 1731   3.976   3.218   1.996 -0.0977 -0.6811 -0.6201
  115fsi    SBT 1732   3.738   3.103   2.296 -0.2193  0.2054  0.0431
  115fsi    OBT 1733   3.782   3.106   2.430 -0.2743 -0.2905  0.1761
  115fsi    OBT 1734   3.685   2.979   2.246 -0.0664 -0.1406  0.7712
  115fsi    FSI 1735   3.613   3.193   2.302 -0.2590 -0.2888  0.3090
  116fsi    FSI 1736   3.026   1.844   2.739  0.1971 -0.2774  0.5275
  116fsi    SBT 1737   3.096   1.841   2.601  0.1750 -0.0499 -0.2250
  116fsi    NBT 1738   2.992   1.902   2.503  0.9046 -0.4085 -0.2346
  116fsi    OBT 1739   3.213   1.920   2.624  0.7550 -0.4771 -0.9221
  116fsi    OBT 1740   3.115   1.705   2.577 -0.3143 -0.1563 -0.3827
  116fsi    SBT 1741   2.995   2.039   2.421 -0.1284  0.0621  0.3112
  116fsi    OBT 1742   2.881   2.055   2.336  0.2783  0.1116  0.1474
  116fsi    OBT 1743   3.120   2.073   2.368 -0.2805 -0.2806 -0.1280
  116fsi    FSI 1744   2.975   2.149   2.534  0.4109 -0.3011 -0.2063
  117fsi    FSI 1745   2.165   5.059   1.802 -0.0240  0.3542 -0.2498
  117fsi    SBT 1746   2.130   5.189   1.723  0.8812  0.0815 -0.2077
  117fsi    NBT 1747   2.201   5.178   1.580  0.0376 -0.0100  0.0233
  117fsi    OBT 1748   1.987   5.204   1.710 -0.0993  0.2720  0.4057
  117fsi    OBT 1749   2.193   5.292   1.796 -0.4797 -0.1484 -0.1177
  117fsi    SBT 1750   2.141   5.119   1.445  0.1878 -0.3575 -0.1156
  117fsi    OBT 1751   2.000   5.148   1.413 -0.9678 -0.5252 -0.5326
  117fsi    OBT 1752   2.184   4.980   1.433 -0.7790 -0.0634 -0.3190
  117fsi    FSI 1753   2.212   5.191   1.323  0.2196 -0.0807 -0.2006
  118fsi    FSI 1754   3.330   1.511   3.176  0.4306  0.3934  0.4270
  118fsi    SBT 1755   3.393   1.627   3.269 -0.1589  0.4597  0.4822
  118fsi    NBT 1756   3.344   1.593   3.420  0.1406  0.2543  0.4100
  118fsi    OBT 1757   3.536   1.619   3.242  0.2768 -0.2479 -0.0050
  118fsi    OBT 1758   3.320   1.742   3.222  0.0327 -0.4268  0.4366
  118fsi    SBT 1759   3.422   1.569   3.561 -0.8749  0.2956  0.0080
  118fsi    OBT 1760   3.352   1.600   3.680  0.0467  0.0617 -0.0230
  118fsi    OBT 1761   3.560   1.619   3.560 -0.1801 -0.7296  0.0942
  118fsi    FSI 1762   3.430   1.416   3.569  0.1753 -0.3383  0.0355
  119fsi    FSI 1763   5.211   3.242   1.522  0.1530 -0.4342 -0.4559
  119fsi    SBT 1764   5.346   3.250   1.449 -0.2832 -0.0579  0.1226
  119fsi    NBT 1765   5.450   3.307   1.561  0.3782 -0.3501  0.3518
  119fsi    OBT 1766   5.381   3.116   1.416  0.3268 -0.0005 -0.4817
  119fsi    OBT 1767   5.330   3.341   1.335 -0.4604  0.0401  0.9162
  119fsi    SBT 1768   5.548   3.227   1.652  0.1815 -0.3417 -0.5198
  119fsi    OBT 1769   5.521   3.083   1.660  0.0484 -0.2251 -0.3637
  119fsi    OBT 1770   5.582   3.289   1.776 -0.6598 -0.1437 -0.2251
  119fsi    FSI 1771   5.676   3.231   1.568  0.0706 -0.4030 -0.2526
  120fsi    FSI 1772   3.680   5.781   1.955 -0.3506  0.2831  0.1914
  120fsi    SBT 1773   3.549   5.699   2.003  0.1570  0.0524 -0.1325
  120fsi    NBT 1774   3.532   5.585   1.901  0.3636 -0.1655 -0.7441
  120fsi    OBT 1775   3.593   5.639   2.126  0.4008 -0.1165  0.1356
  120fsi    OBT 1776   3.437   5.788   1.999 -0.0715  0.2738 -0.2692
  120fsi    SBT 1777   3.443   5.575   1.774  0.2397  0.3000  0.3107
  120fsi    OBT 1778   3.391   5.704   1.726 -0.0012  0.6980 -0.3416
  120fsi    OBT 1779   3.352   5.466   1.786 -0.3004 -0.1008  0.5166
  120fsi    FSI 1780   3.541   5.532   1.659 -0.7350 -0.2685 -0.3118
  121fsi    FSI 1781   2.111   1.643   3.484 -0.4311 -0.3468  0.0999
  121fsi    SBT 1782   2.107   1.628   3.640 -0.2172  0.2395 -0.0362
  121fsi    NBT 1783   2.250   1.681   3.684  0.1948  0.0719  0.4463
  121fsi    OBT 1784   2.004   1.717   3.681 -0.0281  0.1611  0.2882
  121fsi    OBT 1785   2.085   1.487   3.659  0.0543  0.2793 -0.3103
  121fsi    SBT 1786   2.377   1.602   3.718 -0.0081  0.3299  0.1234
  121fsi    OBT 1787   2.360   1.496   3.811  0.0073 -0.2280  0.6194
  121fsi    OBT 1788   2.485   1.687   3.745  0.2139 -0.0973 -0.3852
  121fsi    FSI 1789   2.430   1.537   3.582  0.2405  0.2359 -0.4881
  122fsi    FSI 1790   2.842   4.923   2.295  0.0386 -0.1956  0.8388
  122fsi    SBT 1791   2.929   5.050   2.318  0.2043 -0.0054  0.1481
  122fsi    NBT 1792   2.849   5.125   2.434 -0.7077 -0.7721 -0.6977
  122fsi    OBT 1793   3.051   4.988   2.371 -0.6903 -0.1316 -0.2039
  122fsi    OBT 1794   2.929   5.112   2.189  0.1178 -0.5502 -0.2686
  122fsi    SBT 1795   2.767   5.258   2.432 -0.1523 -0.4910 -0.1379
  122fsi    OBT 1796   2.783   5.334   2.306 -0.0803  0.3953  0.0074
  122fsi    OBT 1797   2.765   5.329   2.556  0.3838 -0.4256 -0.0388
  122fsi    FSI 1798   2.627   5.203   2.416  0.2037  0.2608  0.1790
  123fsi    FSI 1799   2.389   0.455   3.707  0.5125  0.3889  0.6877
  123fsi    SBT 1800   2.462   0.584   3.682  0.1212 -0.4903 -0.0682
  123fsi    NBT 1801   2.390   0.673   3.791  0.4964  0.1018 -0.3747
  123fsi    OBT 1802   2.601   0.556   3.705  0.3984  0.4615 -0.2180
  123fsi    OBT 1803   2.432   0.625   3.543 -0.3796  0.6267 -0.3484
  123fsi    SBT 1804   2.447   0.786   3.890 -0.1020  0.1231 -0.3091
  123fsi    OBT 1805   2.350   0.876   3.944 -0.2380 -0.4245  0.2424
  123fsi    OBT 1806   2.569   0.840   3.837 -0.3806 -0.6024 -0.7004
  123fsi    FSI 1807   2.500   0.706   4.012 -0.1323  0.5517  0.2355
  124fsi    FSI 1808   3.717   0.825   2.491 -0.2784 -0.2885 -0.2911
  124fsi    SBT 1809   3.603   0.748   2.418 -0.0927  0.4103 -0.2147
  124fsi    NBT 1810   3.475   0.830   2.462  1.4071  0.2537  0.3095
  124fsi    OBT 1811   3.653   0.763   2.282 -0.6990 -0.3583 -0.0437
  124fsi    OBT 1812   3.608   0.620   2.479  0.1965 -0.1397 -0.0330
  124fsi    SBT 1813   3.353   0.880   2.370  0.0825 -0.2224  0.1491
  124fsi    OBT 1814   3.256   0.941   2.454  0.0838  0.3179 -0.0434
  124fsi    OBT 1815   3.310   0.792   2.264 -0.1229  0.4521 -0.1038
  124fsi    FSI 1816   3.414   1.004   2.298  0.0249  0.1224 -0.2361
  125fsi    FSI 1817   4.461   3.052   2.831 -0.1805  0.1901  0.2102
  125fsi    SBT 1818   4.553   3.011   2.710 -0.0176  0.0123  0.1738
  125fsi    NBT 1819   4.537   2.858   2.708 -0.3284  0.6802 -0.6680
  125fsi    OBT 1820   4.489   3.074   2.594 -0.1363  0.1047  0.4472
  125fsi    OBT 1821   4.680   3.068   2.749 -0.1876  0.7361 -0.1948
  125fsi    SBT 1822   4.504   2.768   2.584  0.2247 -0.1497  0.2796
  125fsi    OBT 1823   4.512   2.630   2.619 -0.1599  0.2079 -0.4889
  125fsi    OBT 1824   4.579   2.807   2.472 -0.1548  0.1227 -0.3527
  125fsi    FSI 1825   4.355   2.803   2.557 -0.2494 -0.2298  0.8266
  126fsi    FSI 1826   2.211   0.496   3.307  0.2892  0.0952 -0.6539
  126fsi    SBT 1827   2.138   0.629   3.245 -0.2360  0.0485  0.0832
  126fsi    NBT 1828   2.013   0.635   3.341  0.2496 -0.2261 -0.4425
  126fsi    OBT 1829   2.232   0.733   3.271 -0.1133 -0.2554  0.1405
  126fsi    OBT 1830   2.109   0.589   3.113 -0.8477 -0.3733 -0.2092
  126fsi    SBT 1831   1.999   0.683   3.489 -0.0784  0.2945  0.0801
  126fsi    OBT 1832   1.931   0.811   3.505  0.5163  0.2104 -0.5438
  126fsi    OBT 1833   2.111   0.666   3.574 -0.0818  0.6729  0.7870
  126fsi    FSI 1834   1.899   0.582   3.544  0.0071 -0.3271  0.3464
  127fsi    FSI 1835   2.819   6.351   1.727  0.1955 -0.3987  0.3064
  127fsi    SBT 1836   2.887   6.409   1.855  0.1607 -0.6488  0.0928
  127fsi    NBT 1837   2.998   6.309   1.895  0.0964  0.2263 -0.4557
  127fsi    OBT 1838   2.940   6.537   1.806 -0.0955  1.1280 -0.1779
  127fsi    OBT 1839   2.784   6.420   1.952  0.5332 -0.2303 -0.6724
  127fsi    SBT 1840   2.995   6.228   2.033 -0.1051  0.3127  0.3894
  127fsi    OBT 1841   2.883   6.141   2.053 -0.1583 -0.2671 -0.8905
  127fsi    OBT 1842   3.047   6.303   2.148 -0.0206 -0.6441  0.0606
  127fsi    FSI 1843   3.113   6.132   2.003 -0.1019  0.0618  0.0657
  128fsi    FSI 1844   3.726   1.091   1.619 -0.2861 -0.0110 -0.7429
  128fsi    SBT 1845   3.642   1.018   1.733  0.1028  0.0041 -0.1857
  128fsi    NBT 1846   3.613   1.142   1.823  0.0450  0.5812  0.0217
  128fsi    OBT 1847   3.527   0.962   1.671  0.0009  0.6906 -0.1127
  128fsi    OBT 1848   3.731   0.915   1.795  0.6529  0.0028  0.3866
  128fsi    SBT 1849   3.493   1.243   1.826 -0.1665 -0.4713  0.3484
  128fsi    OBT 1850   3.430   1.257   1.960  0.0838  0.0708 -0.2741
  128fsi    OBT 1851   3.403   1.238   1.716  0.0014 -1.0926  0.1586
  128fsi    FSI 1852   3.578   1.376   1.802  0.8970  0.6451  0.1978
  129fsi    FSI 1853   2.365   1.961   4.199 -0.4805 -0.7657  0.2547
  129fsi    SBT 1854   2.392   1.814   4.149  0.5792 -0.3821  0.2314
  129fsi    NBT 1855   2.252   1.769   4.102  0.2221 -0.1173 -0.0994
  129fsi    OBT 1856   2.476   1.830   4.032 -0.1799 -0.0122 -0.6500
  129fsi    OBT 1857   2.444   1.749   4.261  0.1805  0.4672  0.2738
  129fsi    SBT 1858   2.127   1.716   4.192 -0.3247 -0.0160  0.3879
  129fsi    OBT 1859   2.134   1.747   4.334 -0.0559 -0.9692  0.2311
  129fsi    OBT 1860   2.081   1.584   4.152 -0.8269  0.3017 -0.7936
  129fsi    FSI 1861   2.006   1.814   4.145  0.1826 -0.1946  0.0980
  130fsi    FSI 1862   3.376   2.726   3.381  0.2562 -0.0172 -0.1915
  130fsi    SBT 1863   3.465   2.620   3.460  0.5368 -0.1518  0.4139
  130fsi    NBT 1864   3.517   2.530   3.344 -0.2497 -0.3309  0.6136
  130fsi    OBT 1865   3.576   2.707   3.510 -0.2311 -0.0423  0.3770
  130fsi    OBT 1866   3.376   2.549   3.550 -0.1745 -0.6687 -0.0621
  130fsi    SBT 1867   3.456   2.407   3.273  0.1425  0.1232  0.3059
  130fsi    OBT 1868   3.341   2.349   3.339 -0.0179 -0.1220  0.1669
  130fsi    OBT 1869   3.555   2.315   3.227 -1.0300  0.4524 -0.6419
  130fsi    FSI 1870   3.396   2.475   3.141  0.1362 -0.5008  0.3649
  131fsi    FSI 1871   2.222   1.290   2.602 -0.0923  0.2687  0.1594
  131fsi    SBT 1872   2.299   1.390   2.697  0.2462 -0.2274 -0.6660
  131fsi    NBT 1873   2.189   1.403   2.808 -0.2622 -0.0966  0.2240
  131fsi    OBT 1874   2.411   1.316   2.744  0.0527 -0.0567  0.6651
  131fsi    OBT 1875   2.322   1.510   2.614 -0.3327  0.3068 -0.3007
  131fsi    SBT 1876   2.092   1.521   2.853 -0.2708  0.2863  0.3694
  131fsi    OBT 1877   1.976   1.470   2.914  0.1258 -0.2861 -0.8408
  131fsi    OBT 1878   2.073   1.625   2.750 -0.3520  0.5527 -0.2730
  131fsi    FSI 1879   2.178   1.588   2.965  0.6192 -0.0167  0.5255
  132fsi    FSI 1880   1.365   0.828   3.526 -0.3415 -0.2735  0.3668
  132fsi    SBT 1881   1.509   0.840   3.571  0.2401 -0.2533 -0.3567
  132fsi    NBT 1882   1.570   0.934   3.452 -0.1571 -0.3089 -0.6659
  132fsi    OBT 1883   1.493   0.896   3.702 -0.4696  0.2998  0.5350
  132fsi    OBT 1884   1.559   0.707   3.555 -0.3589 -0.4297  0.4736
  132fsi    SBT 1885   1.602   1.088   3.445  0.5575  0.3275 -0.3296
  132fsi    OBT 1886   1.568   1.155   3.568 -0.7402 -0.3311 -0.5170
  132fsi    OBT 1887   1.545   1.141   3.324  0.2032  0.5361 -0.3207
  132fsi    FSI 1888   1.759   1.094   3.435  0.1823 -0.0421 -0.1093
  133fsi    FSI 1889   4.294   0.926   1.797 -0.6963 -0.7724  0.2174
  133fsi    SBT 1890   4.145   0.965   1.829 -0.2522  0.3008 -0.0688
  133fsi    NBT 1891   4.106   0.859   1.935  0.2635 -0.1078  0.6308
  133fsi    OBT 1892   4.161   1.090   1.894 -0.2660  0.1812 -0.2748
  133fsi    OBT 1893   4.074   0.966   1.705 -0.3981  0.2585  0.6457
  133fsi    SBT 1894   4.027   0.720   1.911  0.1117  0.2731  0.4301
  133fsi    OBT 1895   3.964   0.700   1.783 -0.3190 -0.5821 -0.4983
  133fsi    OBT 1896   3.953   0.687   2.030  0.3814  0.4770  0.5652
  133fsi    FSI 1897   4.145   0.616   1.907  0.6378 -0.1627 -0.4063
  134fsi    FSI 1898   1.503   1.458   2.872  0.6289  0.4905  0.0660
  134fsi    SBT 1899   1.497   1.439   3.030  0.3595 -0.1687  0.0128
  134fsi    NBT 1900   1.636   1.482   3.089 -0.0230  0.1919  0.8812
  134fsi    OBT 1901   1.404   1.539   3.066  0.5486  0.2557  0.0308
  134fsi    OBT 1902   1.455   1.307   3.058  0.2039  0.5388  0.1851
  134fsi    SBT 1903   1.742   1.405   3.174  0.1256 -0.1529  0.1135
  134fsi    OBT 1904   1.865   1.480   3.191 -0.3594  0.1304  0.5787
  134fsi    OBT 1905   1.761   1.272   3.132 -0.5246  0.0483 -0.5300
  134fsi    FSI 1906   1.692   1.385   3.323  0.0621  0.1130 -0.3611
  135fsi    FSI 1907   3.297   5.468   1.205  0.2053  1.1954  0.4479
  135fsi    SBT 1908   3.217   5.542   1.325 -0.3879 -0.3085 -0.0985
  135fsi    NBT 1909   3.262   5.692   1.300 -0.0104  0.7113  0.3497
  135fsi    OBT 1910   3.080   5.517   1.292  0.6684  0.6460  0.2882
  135fsi    OBT 1911   3.272   5.493   1.445 -0.1408  0.2054 -0.5184
  135fsi    SBT 1912   3.195   5.805   1.226  0.0146  0.8018 -0.2401
  135fsi    OBT 1913   3.272   5.927   1.225  0.5456 -0.0569 -0.6260
  135fsi    OBT 1914   3.051   5.814   1.234 -0.4254  0.4011  0.2296
  135fsi    FSI 1915   3.223   5.759   1.073 -0.5019 -0.3719  0.4550
  136fsi    FSI 1916   5.510   3.465   2.439 -0.2139 -0.3108  0.1197
  136fsi    SBT 1917   5.368   3.391   2.432 -0.3219 -0.2590  0.2594
  136fsi    NBT 1918   5.263   3.506   2.465  0.2826  0.1351 -0.3204
  136fsi    OBT 1919   5.366   3.361   2.292  0.0323 -0.0855  0.3428
  136fsi    OBT 1920   5.375   3.282   2.528 -0.1651 -0.2457 -0.1883
  136fsi    SBT 1921   5.188   3.613   2.378 -0.2711 -0.2096  0.3415
  136fsi    OBT 1922   5.078   3.667   2.450 -0.2530 -0.4149 -0.2064
  136fsi    OBT 1923   5.164   3.576   2.241 -0.4950 -0.1595  0.6406
  136fsi    FSI 1924   5.296   3.729   2.380 -0.1219  0.4870  0.0922
  137fsi    FSI 1925   2.363   0.585   2.899 -0.0900 -0.7768  0.0687
  137fsi    SBT 1926   2.346   0.476   2.791  0.3083  0.0514  0.6230
  137fsi    NBT 1927   2.337   0.346   2.879 -0.3234  0.0566  0.1855
  137fsi    OBT 1928   2.213   0.505   2.738  0.0207  0.2665  0.2654
  137fsi    OBT 1929   2.464   0.493   2.711  0.7601  0.1002 -0.1459
  137fsi    SBT 1930   2.433   0.226   2.898 -0.4206  0.0441 -0.1606
  137fsi    OBT 1931   2.576   0.257   2.877  0.0825  0.0396 -0.0952
  137fsi    OBT 1932   2.380   0.100   2.844  0.2724  0.2453 -0.6662
  137fsi    FSI 1933   2.434   0.214   3.058  0.3391  0.1285 -0.0332
  138fsi    FSI 1934   2.209   2.600   3.595  0.3326 -0.1792 -0.1531
  138fsi    SBT 1935   2.248   2.495   3.487 -0.0541 -0.3864 -0.0755
  138fsi    NBT 1936   2.137   2.386   3.504 -0.1648  0.6659  0.4699
  138fsi    OBT 1937   2.231   2.564   3.367 -0.0608 -0.2169  0.3527
  138fsi    OBT 1938   2.381   2.446   3.517  0.4918  0.0706 -0.0220
  138fsi    SBT 1939   2.037   2.321   3.401  0.2347  0.1176  0.0671
  138fsi    OBT 1940   1.945   2.227   3.466 -0.7889 -0.5911 -0.0711
  138fsi    OBT 1941   2.089   2.291   3.272  0.2550  0.3346 -0.3417
  138fsi    FSI 1942   1.946   2.451   3.372 -0.2119  0.0340  0.1216
  139fsi    FSI 1943   3.067   6.289   1.600  0.1136 -0.2603 -0.3936
  139fsi    SBT 1944   3.042   6.160   1.515 -0.2647  0.1675 -0.2077
  139fsi    NBT 1945   3.129   6.049   1.588  0.2787 -0.0915 -0.3277
  139fsi    OBT 1946   2.900   6.141   1.515 -0.1541  0.0055  0.0516
  139fsi    OBT 1947   3.102   6.195   1.388 -0.4427  0.6788  0.0669
  139fsi    SBT 1948   3.094   5.947   1.701  0.1766  0.2228  0.3061
  139fsi    OBT 1949   2.959   5.949   1.739  0.4154 -0.2722 -0.4115
  139fsi    OBT 1950   3.188   5.932   1.810 -0.5105 -0.3474 -0.4785
  139fsi    FSI 1951   3.098   5.803   1.627 -0.2242 -0.0833 -0.2739
  140fsi    FSI 1952   4.798   2.766   1.191 -0.3562 -0.2576  0.0666
  140fsi    SBT 1953   4.906   2.863   1.138 -0.0954 -0.3113  0.0086
  140fsi    NBT 1954   5.017   2.834   1.243 -0.1743  0.0420 -0.2777
  140fsi    OBT 1955   4.937   2.809   1.008 -0.7214 -0.5527 -0.3306
  140fsi    OBT 1956   4.841   2.992   1.137 -0.3446  0.3529 -0.3210
  140fsi    SBT 1957   5.070   2.923   1.356  0.3374 -0.3807 -0.1997
  140fsi    OBT 1958   5.075   3.065   1.329  0.3821  1.0834 -0.1519
  140fsi    OBT 1959   5.181   2.862   1.423  0.0624  0.0014  0.2955
  140fsi    FSI 1960   4.967   2.910   1.463 -0.1794  0.0909 -0.1052
  141fsi    FSI 1961   3.452   6.295   1.916  0.2683 -0.2628  0.3136
  141fsi    SBT 1962   3.447   6.455   1.896 -0.0490 -0.1684 -0.1015
  141fsi    NBT 1963   3.471   6.482   1.746 -0.3849  0.2266  0.0214
  141fsi    OBT 1964   3.315   6.486   1.937  0.6180 -0.1703 -0.0602
  141fsi    OBT 1965   3.556   6.505   1.975  0.0381  1.0633 -0.3430
  141fsi    SBT 1966   3.374   6.562   1.647 -0.6373 -0.5028 -0.2096
  141fsi    OBT 1967   3.453   6.650   1.557 -0.0517  0.1433 -0.2525
  141fsi    OBT 1968   3.258   6.617   1.705 -0.3280  0.3085 -0.6873
  141fsi    FSI 1969   3.315   6.449   1.553 -0.4204 -0.0515 -0.0606
  142fsi    FSI 1970   2.849   0.938   2.905  0.5755 -0.2027 -0.2482
  142fsi    SBT 1971   2.915   0.839   2.795 -0.1359  0.1621 -0.2575
  142fsi    NBT 1972   3.030   0.772   2.885  0.1591 -0.1156  0.3935
  142fsi    OBT 1973   2.802   0.762   2.748 -0.0446  0.5508  0.3463
  142fsi    OBT 1974   2.971   0.931   2.700  0.3868  0.2757 -0.1332
  142fsi    SBT 1975   3.181   0.762   2.857 -0.0712  0.1071  0.1779
  142fsi    OBT 1976   3.225   0.723   2.724 -0.1494  0.0001  0.4928
  142fsi    OBT 1977   3.246   0.695   2.964 -0.2175 -0.5971  0.1287
  142fsi    FSI 1978   3.227   0.915   2.877  0.8000 -0.6721 -0.0585
  143fsi    FSI 1979   3.208   5.718   2.529 -0.1271 -0.2358  0.1082
  143fsi    SBT 1980   3.107   5.718   2.418  0.5681  0.4121 -0.2583
  143fsi    NBT 1981   3.040   5.857   2.428  0.3185 -0.1992  0.6439
  143fsi    OBT 1982   3.188   5.699   2.299 -0.4487  0.1787 -0.0494
  143fsi    OBT 1983   3.010   5.620   2.449  0.0558  0.2515 -1.0688
  143fsi    SBT 1984   3.042   5.975   2.333 -0.3589  0.0588  0.0870
  143fsi    OBT 1985   2.919   6.045   2.347 -0.3262 -0.0389 -0.2283
  143fsi    OBT 1986   3.082   5.949   2.197 -0.5945 -0.1976 -0.8298
  143fsi    FSI 1987   3.151   6.074   2.386  0.8041  0.5275  0.0588
  144fsi    FSI 1988   2.492   6.258   1.761 -0.5083  0.2127 -0.1612
  144fsi    SBT 1989   2.540   6.135   1.847 -0.1275 -0.1801 -0.0487
  144fsi    NBT 1990   2.431   6.036   1.798 -0.3089  0.3352 -0.1535
  144fsi    OBT 1991   2.674   6.097   1.797  0.0453  0.2362 -0.8850
  144fsi    OBT 1992   2.526   6.176   1.985  0.1641  0.2751 -0.4182
  144fsi    SBT 1993   2.444   5.934   1.676  0.0887 -0.1231 -0.0144
  144fsi    OBT 1994   2.339   5.833   1.675  0.1254  0.0735 -0.3255
  144fsi    OBT 1995   2.574   5.899   1.640  1.3139  0.1125 -0.8219
  144fsi    FSI 1996   2.391   6.027   1.555 -0.1248 -0.1221  0.3041
  145fsi    FSI 1997   4.561   2.687   1.659 -0.0148  0.0006 -0.0759
  145fsi    SBT 1998   4.603   2.709   1.805 -0.1750 -0.0613 -0.1205
  145fsi    NBT 1999   4.527   2.594   1.875  0.4738  0.2068  0.2411
  145fsi    OBT 2000   4.747   2.699   1.806 -0.2900  0.3161  0.5446
  145fsi    OBT 2001   4.547   2.841   1.828  0.9326  0.1664 -0.1817
  145fsi    SBT 2002   4.576   2.444   1.887 -0.3011 -0.1538  0.3322
  145fsi    OBT 2003   4.636   2.413   2.014  0.6133  0.5081 -0.1413
  145fsi    OBT 2004   4.645   2.397   1.769 -0.0401  0.4567 -0.1369
  145fsi    FSI 2005   4.439   2.368   1.891  0.0280  0.3116 -0.1311
  146fsi    FSI 2006   3.010   1.941   3.860 -0.4640  0.0233 -0.1965
  146fsi    SBT 2007   3.002   1.818   3.775 -0.0433  0.1142  0.0818
  146fsi    NBT 2008   3.002   1.702   3.883  1.4725 -1.0047 -0.1218
  146fsi    OBT 2009   2.876   1.844   3.710  0.6421 -0.2466  1.0678
  146fsi    OBT 2010   3.124   1.827   3.696 -0.0342  0.0290  0.4322
  146fsi    SBT 2011   2.872   1.631   3.945 -0.1668 -0.1409 -0.6435
  146fsi    OBT 2012   2.743   1.697   3.928 -0.4335  0.1644 -0.0534
  146fsi    OBT 2013   2.903   1.576   4.075 -0.3167 -0.1915 -1.0959
  146fsi    FSI 2014   2.853   1.505   3.861  0.3037  0.8287 -0.3495
  147fsi    FSI 2015   3.884   1.553   3.002  0.3396  0.0243 -0.0478
  147fsi    SBT 2016   3.850   1.654   2.895  0.2432 -0.0747 -0.3738
  147fsi    NBT 2017   3.932   1.596   2.776  0.7010  0.0379 -0.0588
  147fsi    OBT 2018   3.707   1.649   2.879  0.2876  0.2801  0.4569
  147fsi    OBT 2019   3.904   1.774   2.950  0.2449 -0.1650  0.0528
  147fsi    SBT 2020   4.074   1.629   2.730  0.0072 -0.2875 -0.6673
  147fsi    OBT 2021   4.164   1.658   2.840 -0.1180  0.1723  0.4365
  147fsi    OBT 2022   4.085   1.707   2.613  0.3860  0.3116 -0.1572
  147fsi    FSI 2023   4.140   1.487   2.689 -0.3732  0.0143  0.4874
  148fsi    FSI 2024   2.162   0.843   2.927  0.2413  0.2054  0.3452
  148fsi    SBT 2025   2.214   0.926   2.800  0.1148  0.3172 -0.4870
  148fsi    NBT 2026   2.354   0.982   2.841 -0.5258  0.7103 -0.1212
  148fsi    OBT 2027   2.205   0.834   2.687 -0.0074 -0.1427  0.1518
  148fsi    OBT 2028   2.113   1.037   2.800  0.3857 -0.0191 -0.1105
  148fsi    SBT 2029   2.498   0.927   2.812 -0.2500  0.2752 -0.4433
  148fsi    OBT 2030   2.586   1.034   2.772 -0.0456  0.5701  0.6621
  148fsi    OBT 2031   2.516   0.810   2.731  0.0568  0.3829  0.7131
  148fsi    FSI 2032   2.539   0.883   2.955 -0.0911  0.6999 -0.1461
  149fsi    FSI 2033   1.240   0.736   3.046  0.4664 -0.7874 -0.0487
  149fsi    SBT 2034   1.381   0.791   3.091 -0.1059  0.3366 -0.0845
  149fsi    NBT 2035   1.453   0.803   2.956  0.5468  0.5708 -0.2086
  149fsi    OBT 2036   1.352   0.918   3.154  0.3190 -0.0919 -0.8382
  149fsi    OBT 2037   1.428   0.682   3.170 -0.6845  0.0335  0.4137
  149fsi    SBT 2038   1.451   0.924   2.857 -0.0801 -0.0309  0.3427
  149fsi    OBT 2039   1.510   0.875   2.734  0.1277  0.3606  0.9849
  149fsi    OBT 2040   1.502   1.046   2.909  0.4953  0.1630  0.1106
  149fsi    FSI 2041   1.305   0.948   2.822  0.0664 -0.3202  0.0127
  150fsi    FSI 2042   1.582   0.284   3.256  0.7212 -0.4696 -0.1901
  150fsi    SBT 2043   1.713   0.370   3.269 -0.1901  0.1713 -0.4354
  150fsi    NBT 2044   1.796   0.286   3.367 -0.5639 -0.1769  0.3433
  150fsi    OBT 2045   1.757   0.382   3.134 -0.7114  0.2007  0.1819
  150fsi    OBT 2046   1.682   0.494   3.338 -0.2454  0.0826 -0.4333
  150fsi    SBT 2047   1.943   0.230   3.371 -0.0095 -0.0973  0.3622
  150fsi    OBT 2048   2.032   0.281   3.271  0.5528 -0.3374  0.1624
  150fsi    OBT 2049   1.944   0.083   3.386 -0.0860 -0.3831 -0.4729
  150fsi    FSI 2050   2.003   0.292   3.506  0.2616  0.2848  0.1454
   6.41140   6.41140   6.41140
