integrator              = md
nsteps                  = 20
dt                      = 0.002

nstxout                 = 20
nstvout                 = 20
nstenergy               = 1
nstlog                  = 1

cutoff-scheme           = Verlet
nstlist                 = 1
rlist                   = 0.8
coulombtype             = Cut-off
rcoulomb                = 0.8
vdwtype                 = Cut-off
rvdw                    = 0.8
pbc                     = xyz

tcoupl                  = no
pcoupl                  = no
constraints             = none
gen_vel                 = yes
gen_temp                = 100
gen_seed                = 173529
