simbox
 2300
    1Li      Li    1   1.926   2.428   1.861  0.4991  0.7909 -1.4856
    2Li      Li    2   0.154   1.840   0.060 -0.7376  0.6361 -0.0655
    3Li      Li    3   2.621   0.934   2.961  0.7890 -1.1885  0.5787
    4Li      Li    4   2.297   0.377   0.149  0.0735  0.7343 -0.1066
    5Li      Li    5   1.548   2.908   2.440 -1.1874  0.2878 -0.2932
    6Li      Li    6   0.647   1.031   1.433  0.5908  0.3336 -0.7132
    7Li      Li    7   1.270   2.586   2.962 -0.4920 -0.0979 -0.4534
    8Li      Li    8   1.600   2.979   0.406  0.2563 -1.0190  0.0716
    9Li      Li    9   0.226   2.437   2.614  0.3960  0.9410  0.1852
   10Li      Li   10   2.935   2.545   1.781 -0.2383 -0.1491 -0.2037
   11Li      Li   11   1.988   0.952   1.461 -0.4325  0.9529 -0.4099
   12Li      Li   12   2.252   1.395   2.180 -0.3009  0.1723  0.4083
   13Li      Li   13   0.746   2.185   0.866 -0.0297 -0.3042  0.4583
   14Li      Li   14   1.683   0.506   1.231  0.5089  0.0083 -0.3651
   15Li      Li   15   0.180   2.046   2.412  0.5683  0.1712 -0.9617
   16Li      Li   16   1.947   2.794   1.435  0.4900  1.0125  0.1864
   17Li      Li   17   0.375   0.665   2.304 -0.2836 -0.2773  0.0854
   18Li      Li   18   2.076   2.491   2.415 -0.5636  0.2151 -0.8205
   19Li      Li   19   0.513   2.058   0.557 -0.3755  0.2972  0.0996
   20Li      Li   20   2.244   1.337   0.261  0.4650 -0.8855  0.4015
   21Li      Li   21   0.196   1.024   0.685  1.0414  0.7458 -0.5078
   22Li      Li   22   2.728   2.688   2.471 -0.5225 -0.0560 -0.6281
   23Li      Li   23   1.832   0.040   1.813 -0.1680 -0.5876  0.3993
   24Li      Li   24   2.972   2.431   0.176 -0.0881  1.2579 -0.5726
   25Li      Li   25   1.093   1.725   2.331  0.3738 -0.0474  0.7481
   26Li      Li   26   2.555   0.052   0.538  0.3343  0.2097 -0.2404
   27Li      Li   27   2.602   2.884   1.387  0.2868  0.2482  0.0096
   28Li      Li   28   1.199   1.947   0.100  1.4546 -0.2193 -0.3392
   29Li      Li   29   1.418   0.850   2.758 -0.5406  0.1467 -0.5088
   30Li      Li   30   2.472   1.550   0.734  0.2508 -0.8118  0.7498
   31Li      Li   31   0.049   0.502   2.790  0.9159 -0.6892 -0.3572
   32Li      Li   32   0.438   0.816   1.142 -0.0028 -0.4613  0.2351
   33Li      Li   33   0.062   0.936   1.802  0.7039 -0.3872  0.5895
   34Li      Li   34   0.660   2.581   2.859  0.4725  0.1983  0.0536
   35Li      Li   35   2.562   1.942   0.226 -0.0148  0.1487  0.1103
   36Li      Li   36   2.416   0.589   1.474 -0.2481  0.2689 -0.6594
   37Li      Li   37   0.683   2.614   0.962 -1.1581 -0.4869  0.3625
   38Li      Li   38   0.601   2.242   0.248  0.0088 -0.8092 -0.3206
   39Li      Li   39   0.636   0.456   2.867 -0.0254  1.7637  0.0811
   40Li      Li   40   0.234   0.953   2.984  0.0775 -0.1709 -1.6189
   41Li      Li   41   0.909   2.781   2.419 -0.9441 -0.2411  0.0333
   42Li      Li   42   2.581   0.062   2.661 -0.4099 -0.7463  0.6509
   43Li      Li   43   0.548   0.543   1.736  0.1301  0.2105  0.0521
   44Li      Li   44   1.947   2.199   1.264 -0.6447  0.0496 -0.5598
   45Li      Li   45   1.676   1.193   2.015  0.4647 -0.5054 -0.1794
   46Li      Li   46   2.698   2.841   0.106  0.4268  0.7089 -0.0176
   47Li      Li   47   0.901   0.815   2.225  0.0343  0.8181  0.1861
   48Li      Li   48   1.036   1.095   1.938 -0.0508 -0.6762 -0.1665
   49Li      Li   49   1.427   2.716   1.839  0.0820  0.8253  0.7485
   50Li      Li   50   2.406   2.676   1.836  0.1728  0.4874 -0.0928
   51c3c      N   51   2.097   2.963   2.888 -0.0784  0.0088  0.2444
   51c3c     C1   52   2.038   3.046   2.998  0.4940 -0.1528 -0.2615
   51c3c     C2   53   1.978   2.904   2.825  0.5680  0.1924  0.0201
   51c3c     C3   54   1.907   3.110   2.948  0.2565 -0.3591 -0.0528
   51c3c     C4   55   1.878   3.027   2.823  0.4087 -0.1845 -0.7045
   51c3c     C5   56   2.158   3.062   2.794 -0.1357 -0.2521 -0.1428
   51c3c     C6   57   2.192   2.864   2.935  0.6196  0.5782 -0.4382
   51c3c     H1   58   2.104   3.118   3.046  1.2192 -1.0790  0.1486
   51c3c     H2   59   2.023   2.974   3.078 -0.4020  2.4158  1.9599
   51c3c     H3   60   1.986   2.847   2.732 -0.4509  0.1829 -0.0735
   51c3c     H4   61   1.937   2.827   2.890  1.4365  0.2795  0.6758
   51c3c     H5   62   1.928   3.213   2.919  0.3436 -0.8535 -1.8663
   51c3c     H6   63   1.827   3.104   3.021  2.0366 -2.4888  1.8055
   51c3c     H7   64   1.893   3.079   2.729  0.4528 -1.0982 -1.2125
   51c3c     H8   65   1.779   2.981   2.816  2.2354 -4.5965  0.2585
   51c3c     H9   66   2.194   3.021   2.699 -1.3007 -1.3893 -0.1026
   51c3c    H10   67   2.093   3.144   2.766 -1.7564 -1.1784  0.8172
   51c3c    H11   68   2.241   3.109   2.847  2.1174 -0.7281 -3.1111
   51c3c    H12   69   2.240   2.821   2.847 -1.0852 -0.1354 -1.0543
   51c3c    H13   70   2.277   2.920   2.971 -1.4716  2.8292  1.1322
   51c3c     C7   71   2.147   2.752   3.033  0.1880 -0.1751  0.4764
   51c3c    H14   72   2.079   2.681   2.986 -0.4880 -0.6195  2.0849
   51c3c    H15   73   2.096   2.781   3.125  1.3443  0.8118  0.8250
   51c3c     C8   74   2.270   2.686   3.090 -0.1911 -0.1994 -0.5183
   51c3c    H16   75   2.249   2.599   3.153 -0.3641  1.4477  1.7732
   51c3c    H17   76   2.339   2.747   3.149  1.0922 -0.0659 -2.1319
   51c3c    H18   77   2.329   2.641   3.011 -3.4634 -3.6482 -1.1448
   52c3c      N   78   1.530   0.697   0.467  0.3065  0.5362  0.5639
   52c3c     C1   79   1.611   0.672   0.589  0.0596  0.0559  0.4969
   52c3c     C2   80   1.624   0.753   0.361  0.1059 -0.0083 -0.7083
   52c3c     C3   81   1.745   0.642   0.534  0.0959 -0.6295  0.4933
   52c3c     C4   82   1.759   0.680   0.389  0.5033 -0.3108  0.2739
   52c3c     C5   83   1.482   0.572   0.416  0.2178 -0.5788 -0.2854
   52c3c     C6   84   1.407   0.782   0.490  0.7319 -0.2016  0.0892
   52c3c     H1   85   1.573   0.591   0.652 -1.6352  0.2455 -0.2343
   52c3c     H2   86   1.623   0.763   0.647  1.9845 -0.9800  1.7605
   52c3c     H3   87   1.594   0.734   0.258 -1.3480  0.7531 -0.4475
   52c3c     H4   88   1.641   0.860   0.379  0.5122 -0.3158  0.7403
   52c3c     H5   89   1.772   0.538   0.547  2.5851 -0.1701 -0.7501
   52c3c     H6   90   1.827   0.696   0.582  0.1805  1.1999 -1.6120
   52c3c     H7   91   1.787   0.604   0.316  1.0205  1.6372 -1.6024
   52c3c     H8   92   1.841   0.751   0.385 -0.8988  1.2677 -0.6148
   52c3c     H9   93   1.410   0.528   0.485  0.4112  0.5979  0.6761
   52c3c    H10   94   1.431   0.590   0.321 -0.9403  0.1103  0.4625
   52c3c    H11   95   1.556   0.494   0.395 -1.9132 -2.2010 -2.0079
   52c3c    H12   96   1.363   0.793   0.391 -2.7705 -4.4571  0.9796
   52c3c    H13   97   1.335   0.723   0.546 -1.3700 -0.6326 -2.9165
   52c3c     C7   98   1.431   0.925   0.539 -0.4287 -0.0671  0.4041
   52c3c    H14   99   1.489   0.989   0.472 -0.0933  0.8201  1.5183
   52c3c    H15  100   1.491   0.934   0.630  1.6860 -2.7908 -0.6436
   52c3c     C8  101   1.302   0.988   0.577  0.3410 -0.4634 -0.2245
   52c3c    H16  102   1.297   1.097   0.587 -1.6897 -0.5339 -0.1581
   52c3c    H17  103   1.254   0.935   0.659 -1.2852 -0.5970 -1.2359
   52c3c    H18  104   1.230   0.971   0.496  0.2246 -0.4198 -0.1307
   53c3c      N  105   2.803   0.993   1.315  0.2071  0.4352  0.3909
   53c3c     C1  106   2.750   1.061   1.198 -0.3500 -0.4530 -0.1126
   53c3c     C2  107   2.689   0.908   1.359 -0.1195 -0.4312  0.1807
   53c3c     C3  108   2.671   0.956   1.118 -0.1621 -0.6188 -1.0074
   53c3c     C4  109   2.610   0.879   1.232 -0.5004  0.2966 -0.5479
   53c3c     C5  110   2.921   0.913   1.268  0.3145 -0.2370 -0.6645
   53c3c     C6  111   2.855   1.076   1.416  0.2812  0.3686  0.2227
   53c3c     H1  112   2.820   1.119   1.139 -0.4710 -1.6100 -1.4060
   53c3c     H2  113   2.669   1.128   1.228  0.5648  1.2574 -1.3793
   53c3c     H3  114   2.713   0.819   1.417  0.9683 -1.2523 -1.5146
   53c3c     H4  115   2.617   0.958   1.425 -0.1117  1.4197 -1.1771
   53c3c     H5  116   2.733   0.890   1.058  1.4183  0.1982 -0.2937
   53c3c     H6  117   2.593   1.002   1.058 -0.5675  0.3715  0.2497
   53c3c     H7  118   2.624   0.776   1.198 -1.2630  0.0639 -0.1465
   53c3c     H8  119   2.502   0.894   1.233 -0.4023  1.1032 -1.4153
   53c3c     H9  120   2.976   0.866   1.349 -0.7957 -2.0350 -0.9212
   53c3c    H10  121   2.891   0.831   1.203 -1.4701 -1.4727  1.6589
   53c3c    H11  122   2.991   0.969   1.206  1.2064  0.7960  1.2468
   53c3c    H12  123   2.880   1.005   1.494 -1.3185  0.2189  0.6205
   53c3c    H13  124   2.939   1.136   1.382 -0.7957  0.9433 -1.5028
   53c3c     C7  125   2.765   1.191   1.468  0.2734 -0.1218 -0.4864
   53c3c    H14  126   2.683   1.140   1.519 -1.3172 -0.0395 -2.9148
   53c3c    H15  127   2.729   1.251   1.384  1.4608 -0.6014 -1.3453
   53c3c     C8  128   2.845   1.283   1.562  0.1679 -0.3799  1.1572
   53c3c    H16  129   2.878   1.231   1.652 -0.1168 -0.8458  0.9955
   53c3c    H17  130   2.782   1.367   1.591  0.0612 -0.3963  0.9761
   53c3c    H18  131   2.935   1.326   1.518  0.1835 -2.1836 -0.6749
   54c3c      N  132   0.296   1.543   1.299  0.3827 -0.1464  0.6733
   54c3c     C1  133   0.300   1.687   1.269 -1.1937  0.7095 -0.2199
   54c3c     C2  134   0.389   1.477   1.206  0.3332  0.1420 -0.1924
   54c3c     C3  135   0.450   1.711   1.246 -0.0778 -0.2959 -0.2178
   54c3c     C4  136   0.506   1.577   1.195  0.6621 -0.1644 -0.0526
   54c3c     C5  137   0.338   1.523   1.440  0.1734  0.4244  0.0684
   54c3c     C6  138   0.162   1.488   1.290  0.4657 -0.3325 -0.1935
   54c3c     H1  139   0.259   1.755   1.343 -0.8978 -0.4042  0.9758
   54c3c     H2  140   0.246   1.712   1.177 -2.1574 -0.2293  0.0779
   54c3c     H3  141   0.403   1.371   1.224 -1.0410 -0.4001 -2.1067
   54c3c     H4  142   0.337   1.480   1.110 -1.6224 -1.7878  0.7654
   54c3c     H5  143   0.510   1.748   1.329  3.4397 -1.5298 -2.1268
   54c3c     H6  144   0.470   1.785   1.169 -2.1271  0.9375  0.3782
   54c3c     H7  145   0.594   1.547   1.253  0.1772  0.2975  0.9325
   54c3c     H8  146   0.539   1.588   1.092  0.7910 -2.1645 -0.2529
   54c3c     H9  147   0.445   1.537   1.455  0.3472 -0.0518 -0.6983
   54c3c    H10  148   0.285   1.595   1.502  2.0089  2.0299 -0.1598
   54c3c    H11  149   0.307   1.424   1.473  2.0133 -0.2447 -0.1427
   54c3c    H12  150   0.167   1.382   1.316  0.5200 -0.1898  0.3750
   54c3c    H13  151   0.103   1.543   1.362 -1.8979 -1.7347 -0.9873
   54c3c     C7  152   0.083   1.495   1.159 -0.4099 -0.1787  0.5053
   54c3c    H14  153   0.132   1.436   1.081 -0.9051 -1.2319  0.9921
   54c3c    H15  154   0.089   1.595   1.116 -2.7556 -0.2714 -0.0845
   54c3c     C8  155  -0.065   1.462   1.167  0.0685 -0.4638 -0.6059
   54c3c    H16  156  -0.075   1.357   1.196  2.8857 -0.0186  2.1766
   54c3c    H17  157  -0.121   1.483   1.076  0.3934 -0.0326 -0.7064
   54c3c    H18  158  -0.106   1.520   1.250 -0.5162  1.7987 -2.4429
   55c3c      N  159   0.231   2.662   1.163  0.0440  0.2653  0.2041
   55c3c     C1  160   0.226   2.519   1.168 -0.3651 -0.5081 -0.2801
   55c3c     C2  161   0.140   2.707   1.265  0.7316 -0.3381 -0.1496
   55c3c     C3  162   0.218   2.487   1.320 -0.3938 -0.5037  0.2017
   55c3c     C4  163   0.158   2.613   1.382 -0.0376 -0.2376  0.5745
   55c3c     C5  164   0.366   2.708   1.192 -0.7016 -0.3801 -0.5368
   55c3c     C6  165   0.201   2.718   1.029 -0.3341 -0.1184 -0.0036
   55c3c     H1  166   0.311   2.474   1.117  0.6584  2.8889 -1.6848
   55c3c     H2  167   0.130   2.492   1.124 -1.8148  1.7277  1.3673
   55c3c     H3  168   0.157   2.809   1.301 -0.5031 -0.2553  0.2179
   55c3c     H4  169   0.033   2.716   1.248  0.5423 -0.0910  1.0874
   55c3c     H5  170   0.317   2.461   1.357 -0.3309 -0.8414 -0.2081
   55c3c     H6  171   0.153   2.403   1.341 -1.0930  0.4447  1.9399
   55c3c     H7  172   0.224   2.658   1.456  1.9445  1.4319 -2.1323
   55c3c     H8  173   0.061   2.601   1.430  1.0192 -2.2253  2.2698
   55c3c     H9  174   0.443   2.659   1.134  1.1869  1.9605 -0.1005
   55c3c    H10  175   0.383   2.814   1.169 -1.8155 -0.1114 -0.1619
   55c3c    H11  176   0.392   2.700   1.298  0.3563  1.7541 -0.5914
   55c3c    H12  177   0.206   2.827   1.033  2.3178 -0.1515 -1.2796
   55c3c    H13  178   0.286   2.681   0.971  0.5960 -0.4904  1.5483
   55c3c     C7  179   0.068   2.676   0.959 -0.4555  0.6020 -0.1242
   55c3c    H14  180  -0.008   2.701   1.032  0.3773 -1.3345  1.4504
   55c3c    H15  181   0.057   2.568   0.952 -4.3683  0.8960  0.3985
   55c3c     C8  182   0.034   2.736   0.817  0.3732  0.3213 -0.1725
   55c3c    H16  183  -0.055   2.692   0.772  1.6022 -1.3819 -1.0073
   55c3c    H17  184   0.120   2.715   0.753  1.5623 -0.2476  1.5749
   55c3c    H18  185   0.015   2.843   0.812  1.0858  0.3899 -1.6215
   56c3c      N  186   1.295   2.052   0.938 -0.4211 -0.0202 -0.2913
   56c3c     C1  187   1.402   2.075   0.843 -0.2730  0.1643  0.4650
   56c3c     C2  188   1.370   2.030   1.061 -0.3522  0.1010 -0.7996
   56c3c     C3  189   1.512   2.153   0.913  0.3171 -0.0750 -0.1322
   56c3c     C4  190   1.479   2.129   1.057  0.1753  0.6013 -0.5245
   56c3c     C5  191   1.208   2.172   0.954  0.0898  0.2010 -0.1020
   56c3c     C6  192   1.205   1.934   0.900  0.4226  0.1552 -0.0622
   56c3c     H1  193   1.369   2.134   0.758 -0.4008  2.2572  1.9244
   56c3c     H2  194   1.450   1.985   0.804 -0.8652 -0.5212  1.2853
   56c3c     H3  195   1.308   2.039   1.150 -0.1884 -1.5176 -0.5089
   56c3c     H4  196   1.411   1.929   1.055  1.2550  0.7397 -0.9940
   56c3c     H5  197   1.494   2.259   0.894  0.5429  0.1080  0.6520
   56c3c     H6  198   1.615   2.126   0.890 -0.1242 -0.8669 -1.2242
   56c3c     H7  199   1.443   2.215   1.112 -1.9985  0.1218 -1.1305
   56c3c     H8  200   1.557   2.083   1.118 -0.5631  2.1815  1.6669
   56c3c     H9  201   1.140   2.187   0.871  0.3087  1.8756 -0.0007
   56c3c    H10  202   1.142   2.144   1.037  1.9399 -1.2435  0.9244
   56c3c    H11  203   1.257   2.267   0.976  0.4355  0.2637 -1.1376
   56c3c    H12  204   1.127   1.912   0.973  0.7878 -1.6796 -0.2161
   56c3c    H13  205   1.148   1.969   0.813  0.4527  0.8204  0.1829
   56c3c     C7  206   1.270   1.793   0.881 -1.3049 -0.0063 -0.2806
   56c3c    H14  207   1.309   1.753   0.975 -0.4482  1.2579 -0.0873
   56c3c    H15  208   1.351   1.801   0.808 -1.0318  0.5616  0.0779
   56c3c     C8  209   1.170   1.691   0.828  0.0924 -0.4531  0.3609
   56c3c    H16  210   1.114   1.738   0.747  1.1170 -2.5270 -1.6030
   56c3c    H17  211   1.113   1.659   0.916 -1.1497 -0.0664 -0.2898
   56c3c    H18  212   1.216   1.603   0.783 -0.5047 -0.0424 -1.0799
   57c3c      N  213   0.965   0.283   0.799 -0.0351 -0.5990 -0.1744
   57c3c     C1  214   0.941   0.183   0.899 -0.6715 -0.0113 -0.7533
   57c3c     C2  215   0.949   0.413   0.864 -0.3449  0.3324 -0.3061
   57c3c     C3  216   1.004   0.234   1.030 -0.3817  0.1921  0.7603
   57c3c     C4  217   0.989   0.386   1.012  0.1492 -0.0692  0.9306
   57c3c     C5  218   1.107   0.267   0.765 -0.1598 -0.2805  0.2333
   57c3c     C6  219   0.892   0.261   0.676  0.2813  0.3338 -0.3316
   57c3c     H1  220   0.968   0.084   0.862 -0.3411  0.5809 -2.0979
   57c3c     H2  221   0.833   0.172   0.908 -0.5629 -0.6521 -0.2273
   57c3c     H3  222   1.010   0.496   0.828 -0.0174 -0.8161 -2.5023
   57c3c     H4  223   0.850   0.457   0.857 -1.1543 -1.2173  0.9652
   57c3c     H5  224   1.110   0.218   1.049 -0.4098 -1.4005 -0.3067
   57c3c     H6  225   0.956   0.183   1.114 -1.6980 -0.0347 -0.1133
   57c3c     H7  226   1.087   0.430   1.030  0.2170 -0.7992  2.4546
   57c3c     H8  227   0.918   0.433   1.079  2.5434 -0.0316  3.5306
   57c3c     H9  228   1.125   0.164   0.732 -1.0088  0.0638 -1.3665
   57c3c    H10  229   1.140   0.322   0.677  1.4170  1.4601  1.8673
   57c3c    H11  230   1.177   0.288   0.845  1.0337  1.3062 -1.1921
   57c3c    H12  231   0.916   0.336   0.601 -1.1294  0.0012 -1.1394
   57c3c    H13  232   0.932   0.173   0.628 -2.3922 -0.9441 -0.3329
   57c3c     C7  233   0.739   0.251   0.683  0.0756 -0.8310  0.7102
   57c3c    H14  234   0.688   0.341   0.716  2.6380  0.8099  0.3070
   57c3c    H15  235   0.703   0.173   0.750  0.0669 -1.4809 -0.0418
   57c3c     C8  236   0.679   0.193   0.552 -0.0187 -0.1042 -0.3390
   57c3c    H16  237   0.717   0.096   0.523 -1.8377 -0.3818 -1.8854
   57c3c    H17  238   0.691   0.262   0.469  0.5929  3.7514  2.7660
   57c3c    H18  239   0.576   0.164   0.572 -0.4175 -0.0232 -2.2227
   58c3c      N  240   1.696   1.670   2.681  0.0559  0.1418  0.3489
   58c3c     C1  241   1.781   1.553   2.666 -0.9568 -0.5327 -0.2622
   58c3c     C2  242   1.787   1.765   2.744  0.5254 -0.0102  0.2003
   58c3c     C3  243   1.915   1.604   2.620  0.2427 -0.2243  0.1280
   58c3c     C4  244   1.918   1.748   2.666  0.0476 -0.3593 -0.4799
   58c3c     C5  245   1.639   1.723   2.552  0.2151 -0.5613 -0.5654
   58c3c     C6  246   1.581   1.635   2.762 -0.1574 -0.1125  0.3628
   58c3c     H1  247   1.726   1.483   2.602  1.3445 -3.1529  0.5018
   58c3c     H2  248   1.806   1.504   2.760 -0.8357  0.6407  0.3204
   58c3c     H3  249   1.761   1.871   2.747  0.8104  0.1119 -1.2662
   58c3c     H4  250   1.815   1.744   2.847  0.0214 -1.2901  0.0873
   58c3c     H5  251   1.944   1.613   2.515 -1.5636 -0.6875 -0.4433
   58c3c     H6  252   2.004   1.555   2.660  0.1238 -0.2110  0.4068
   58c3c     H7  253   1.911   1.815   2.580 -0.9419  1.3144  0.8604
   58c3c     H8  254   2.011   1.769   2.720  1.0222 -2.7081 -1.1782
   58c3c     H9  255   1.550   1.668   2.524 -0.3612  0.2319 -0.3220
   58c3c    H10  256   1.598   1.822   2.569  1.0242 -0.4429  0.7927
   58c3c    H11  257   1.714   1.720   2.474  0.4246 -0.0569 -0.3839
   58c3c    H12  258   1.511   1.718   2.764  1.1955  1.0438  1.1266
   58c3c    H13  259   1.517   1.557   2.722 -0.4758  0.4366 -0.2115
   58c3c     C7  260   1.602   1.605   2.909  0.0131 -0.2742  0.5550
   58c3c    H14  261   1.631   1.693   2.966 -0.7276  1.2588 -1.3897
   58c3c    H15  262   1.684   1.534   2.922 -1.3078 -1.5984  1.7707
   58c3c     C8  263   1.476   1.540   2.976 -0.3894  0.1360 -0.6149
   58c3c    H16  264   1.513   1.450   3.025 -3.1991  0.1447  1.7097
   58c3c    H17  265   1.405   1.504   2.901  0.6852 -1.1995 -1.0155
   58c3c    H18  266   1.424   1.605   3.047 -1.0292  0.3785 -1.3036
   59c3c      N  267   0.796   2.247   2.105  0.5035  0.5378  0.1071
   59c3c     C1  268   0.813   2.361   2.198 -0.7309  0.8679 -0.6367
   59c3c     C2  269   0.926   2.199   2.077  0.3243 -0.4669  0.9019
   59c3c     C3  270   0.910   2.300   2.299  0.0112 -0.1723 -0.0613
   59c3c     C4  271   1.001   2.211   2.213  0.1489 -0.4087  0.5471
   59c3c     C5  272   0.717   2.136   2.173  0.1051 -0.0510  0.6434
   59c3c     C6  273   0.723   2.279   1.986  0.1301  0.4030  0.6161
   59c3c     H1  274   0.724   2.384   2.256 -2.0029 -0.7007 -1.8846
   59c3c     H2  275   0.860   2.449   2.156 -2.2376  1.4495 -1.1436
   59c3c     H3  276   0.923   2.094   2.047 -1.2616 -0.0801 -0.3713
   59c3c     H4  277   0.980   2.249   1.997 -0.2033 -2.8594 -1.0087
   59c3c     H5  278   0.866   2.235   2.374  0.1495  1.8654  1.8171
   59c3c     H6  279   0.969   2.380   2.344 -0.0121 -0.6821  0.8716
   59c3c     H7  280   1.009   2.112   2.258 -2.7024 -1.5464 -1.2771
   59c3c     H8  281   1.098   2.261   2.202 -0.5240  0.9607  0.7326
   59c3c     H9  282   0.619   2.166   2.210  0.7924  1.8035  1.0009
   59c3c    H10  283   0.700   2.052   2.105 -1.2205  1.6048 -1.1287
   59c3c    H11  284   0.765   2.092   2.261  0.3861  1.3636  1.2069
   59c3c    H12  285   0.713   2.196   1.916 -1.4610 -0.0843  1.4126
   59c3c    H13  286   0.617   2.290   2.011 -0.0342  2.8357 -0.9703
   59c3c     C7  287   0.781   2.398   1.903 -0.6241 -0.1872 -0.2020
   59c3c    H14  288   0.881   2.437   1.925  0.5660 -2.1358 -1.9056
   59c3c    H15  289   0.713   2.481   1.922 -0.2339  0.4100 -1.3936
   59c3c     C8  290   0.774   2.396   1.754 -0.2710  0.3396 -0.6897
   59c3c    H16  291   0.807   2.299   1.718  0.0017  0.9016 -2.0087
   59c3c    H17  292   0.839   2.464   1.698 -0.5290  2.2882  1.3017
   59c3c    H18  293   0.671   2.415   1.723 -0.0167 -1.0542 -2.5199
   60c3c      N  294   1.523   0.484   1.703 -0.8348  0.2354 -0.1167
   60c3c     C1  295   1.525   0.552   1.833 -0.2605  0.0841 -0.0975
   60c3c     C2  296   1.500   0.600   1.609 -0.8126  0.3984 -0.2382
   60c3c     C3  297   1.604   0.683   1.814 -0.6194 -0.2734 -0.4784
   60c3c     C4  298   1.583   0.724   1.673 -0.0835  0.1477 -0.4641
   60c3c     C5  299   1.653   0.421   1.678 -0.8267 -0.0205  0.2880
   60c3c     C6  300   1.422   0.375   1.699  0.4563 -0.3149  0.4931
   60c3c     H1  301   1.551   0.484   1.914  4.2641  1.4042 -0.2812
   60c3c     H2  302   1.427   0.589   1.861  0.3532  2.4135 -0.9157
   60c3c     H3  303   1.528   0.585   1.505  0.9953 -1.7124  0.5079
   60c3c     H4  304   1.397   0.634   1.615 -0.6597  0.6988  0.9087
   60c3c     H5  305   1.710   0.658   1.822 -0.3033  0.7939 -1.2138
   60c3c     H6  306   1.570   0.754   1.890 -0.3247 -0.6539  0.0077
   60c3c     H7  307   1.677   0.730   1.618  0.5057 -1.2795  0.3780
   60c3c     H8  308   1.530   0.818   1.658  0.3119  0.5257  0.4784
   60c3c     H9  309   1.668   0.338   1.746  1.9490 -0.9686 -1.3919
   60c3c    H10  310   1.656   0.370   1.581 -1.3467  0.1929  0.1583
   60c3c    H11  311   1.740   0.487   1.683  1.4818 -2.8817 -0.6723
   60c3c    H12  312   1.421   0.333   1.598  3.7419 -0.7315  0.5725
   60c3c    H13  313   1.456   0.305   1.775  0.5082  0.1556  0.9016
   60c3c     C7  314   1.274   0.415   1.727 -0.1558  0.5799 -0.8645
   60c3c    H14  315   1.236   0.473   1.643  1.7276  1.4219 -1.1684
   60c3c    H15  316   1.259   0.474   1.818 -2.6007 -1.4522  0.1149
   60c3c     C8  317   1.188   0.285   1.744  0.1248 -0.4646  0.1680
   60c3c    H16  318   1.243   0.200   1.783  0.3878 -0.5297 -0.3362
   60c3c    H17  319   1.165   0.248   1.644 -0.4497 -2.2042  0.9203
   60c3c    H18  320   1.104   0.299   1.812 -0.4973 -0.4560 -0.5864
   61c3c      N  321   1.940   2.263   2.972  0.0656  0.0508  0.9857
   61c3c     C1  322   1.808   2.278   2.908 -0.2417 -0.1484 -0.3809
   61c3c     C2  323   1.971   2.128   2.934  0.4182  0.2544 -0.0683
   61c3c     C3  324   1.825   2.207   2.769 -0.0595  0.4665 -0.6177
   61c3c     C4  325   1.943   2.117   2.783  0.0716 -0.0448 -0.4212
   61c3c     C5  326   2.040   2.361   2.915 -0.0957 -0.1991 -0.5821
   61c3c     C6  327   1.946   2.293   3.114 -0.2712  0.0681 -0.8414
   61c3c     H1  328   1.782   2.383   2.889  1.2089  0.3567  0.3391
   61c3c     H2  329   1.724   2.234   2.961 -1.0001  1.7734  0.0653
   61c3c     H3  330   2.078   2.105   2.943  0.2459 -2.2516 -3.6023
   61c3c     H4  331   1.914   2.048   2.981  0.8742 -0.0690 -0.0589
   61c3c     H5  332   1.844   2.283   2.694  0.3774  0.4748 -0.4997
   61c3c     H6  333   1.731   2.157   2.747  0.0259  0.2967 -0.5933
   61c3c     H7  334   2.027   2.163   2.731  0.4143 -0.8999 -0.6396
   61c3c     H8  335   1.931   2.022   2.729 -0.9310  0.2883 -0.7891
   61c3c     H9  336   2.001   2.462   2.914 -1.6293 -0.7857 -1.0811
   61c3c    H10  337   2.138   2.352   2.962  0.0682 -1.9698 -1.2254
   61c3c    H11  338   2.062   2.345   2.809  1.0179  0.0010 -0.3884
   61c3c    H12  339   2.041   2.273   3.164 -1.8072 -1.4751  1.5544
   61c3c    H13  340   1.922   2.398   3.132  0.0118 -0.0187  0.0881
   61c3c     C7  341   1.839   2.226   3.193  0.3548 -0.2663  1.3522
   61c3c    H14  342   1.810   2.127   3.157  0.6437  0.4880 -1.0647
   61c3c    H15  343   1.751   2.290   3.185  0.9706  0.4721  0.3013
   61c3c     C8  344   1.889   2.197   3.332  0.2224  0.6062 -0.1030
   61c3c    H16  345   1.798   2.153   3.372  1.1992 -0.8586  0.5343
   61c3c    H17  346   1.928   2.285   3.384 -1.1405  1.5877 -0.7172
   61c3c    H18  347   1.953   2.109   3.331  0.7158  0.9511  1.0954
   62c3c      N  348   1.135   0.817   1.198 -0.1918  0.3061  0.3017
   62c3c     C1  349   1.231   0.898   1.267  0.3296  0.3418  0.9699
   62c3c     C2  350   1.180   0.685   1.237 -0.5086 -0.1583 -0.1155
   62c3c     C3  351   1.261   0.840   1.399 -0.1860 -0.2890 -0.1182
   62c3c     C4  352   1.235   0.692   1.379 -0.5204  0.2552 -0.3206
   62c3c     C5  353   1.000   0.833   1.254 -0.6729 -0.3681  0.8000
   62c3c     C6  354   1.140   0.835   1.051 -0.0457  0.0402  0.7800
   62c3c     H1  355   1.207   1.005   1.265  0.1649  0.3184 -2.6047
   62c3c     H2  356   1.325   0.895   1.212  1.0207  0.0658  2.1584
   62c3c     H3  357   1.117   0.596   1.241 -1.0539  0.2771  1.9478
   62c3c     H4  358   1.270   0.658   1.182  0.0390 -2.8368  1.9540
   62c3c     H5  359   1.193   0.880   1.475  0.2092  2.2232 -1.0510
   62c3c     H6  360   1.359   0.859   1.443 -0.8430 -1.7751  2.0771
   62c3c     H7  361   1.180   0.650   1.463  1.7843  0.7543  1.4830
   62c3c     H8  362   1.335   0.648   1.378 -0.7679 -0.3095 -0.2569
   62c3c     H9  363   0.968   0.936   1.243 -1.0264 -0.2689  2.6602
   62c3c    H10  364   0.923   0.774   1.204  0.3530 -0.0687 -1.2070
   62c3c    H11  365   0.995   0.798   1.357  2.2022 -0.8697  0.8185
   62c3c    H12  366   1.130   0.942   1.032  2.1627  0.7966  3.5206
   62c3c    H13  367   1.243   0.815   1.021 -0.3625  1.3107 -1.2127
   62c3c     C7  368   1.044   0.755   0.957 -0.0387 -0.1420  0.2197
   62c3c    H14  369   0.937   0.764   0.977  0.4220  1.1783  2.2476
   62c3c    H15  370   1.078   0.654   0.976 -1.6203 -1.0974 -1.8135
   62c3c     C8  371   1.056   0.790   0.808  0.4034 -0.3568  0.7388
   62c3c    H16  372   1.024   0.893   0.795  1.4013 -0.0924  0.3633
   62c3c    H17  373   0.996   0.719   0.750  0.7648  0.8438 -1.1527
   62c3c    H18  374   1.157   0.786   0.767  0.7228 -0.8975  1.5728
   63c3c      N  375   1.535   2.244   2.238  0.1866  0.0772 -0.4937
   63c3c     C1  376   1.623   2.189   2.343  0.4488  0.1839  0.2722
   63c3c     C2  377   1.406   2.267   2.304  0.6053  0.3435 -0.4722
   63c3c     C3  378   1.585   2.268   2.469  0.2019 -0.7012  0.1761
   63c3c     C4  379   1.448   2.323   2.442  0.0313  0.0315 -0.1218
   63c3c     C5  380   1.584   2.372   2.192  0.3382 -0.0525 -0.8287
   63c3c     C6  381   1.527   2.157   2.115  0.7636  0.0880  0.5787
   63c3c     H1  382   1.727   2.186   2.314 -0.0740 -2.8031 -1.4936
   63c3c     H2  383   1.595   2.084   2.357  0.1613  0.2582  0.2564
   63c3c     H3  384   1.349   2.342   2.251  2.0075  0.8848 -1.2159
   63c3c     H4  385   1.347   2.176   2.318 -0.4107  0.8223 -1.5886
   63c3c     H5  386   1.649   2.353   2.492 -1.0236 -0.0003  1.0673
   63c3c     H6  387   1.586   2.213   2.564 -0.7091 -0.2698  0.4428
   63c3c     H7  388   1.443   2.432   2.450  2.1983  0.0670  1.4106
   63c3c     H8  389   1.384   2.290   2.524 -1.3879  4.6845  0.7915
   63c3c     H9  390   1.515   2.423   2.124 -0.3708  0.3892  0.2072
   63c3c    H10  391   1.605   2.436   2.278 -0.1629 -3.4002  1.8674
   63c3c    H11  392   1.679   2.359   2.141  0.5278 -1.5690 -0.1086
   63c3c    H12  393   1.492   2.218   2.032  1.0821  1.4283  1.4204
   63c3c    H13  394   1.627   2.126   2.085 -0.7213 -1.5195 -3.0610
   63c3c     C7  395   1.430   2.038   2.103 -0.1831  0.3054 -0.1568
   63c3c    H14  396   1.323   2.054   2.116  0.2962  1.4850  2.8348
   63c3c    H15  397   1.447   1.959   2.177 -1.5043  0.8393  0.7376
   63c3c     C8  398   1.450   1.966   1.972 -1.3371 -0.2580  0.0568
   63c3c    H16  399   1.420   2.017   1.880 -2.8849 -2.2672 -0.6006
   63c3c    H17  400   1.394   1.872   1.971 -0.9361 -0.4985  0.0673
   63c3c    H18  401   1.554   1.939   1.956 -1.1651  1.0495 -1.1087
   64c3c      N  402   2.503   2.093   1.567  0.1808 -0.0672 -0.3490
   64c3c     C1  403   2.473   2.206   1.651 -0.7307 -0.2731  0.1121
   64c3c     C2  404   2.374   2.051   1.517 -0.0036 -0.3305  0.3707
   64c3c     C3  405   2.371   2.292   1.567 -0.1209 -0.2104 -0.0250
   64c3c     C4  406   2.296   2.181   1.485 -0.0490 -0.0607 -0.6250
   64c3c     C5  407   2.597   2.147   1.464  0.6162 -0.2363  0.3935
   64c3c     C6  408   2.588   1.983   1.629 -0.3307  0.1658  0.0660
   64c3c     H1  409   2.552   2.271   1.688 -1.7112  0.1154  1.5682
   64c3c     H2  410   2.417   2.188   1.743 -1.0087 -1.4663 -0.2851
   64c3c     H3  411   2.392   1.983   1.434  2.0781 -0.1610  0.6576
   64c3c     H4  412   2.324   1.992   1.594  1.2732 -0.4770  1.1064
   64c3c     H5  413   2.429   2.362   1.506 -0.7303  0.8771  0.6312
   64c3c     H6  414   2.301   2.349   1.628 -1.3445  1.5138 -2.9179
   64c3c     H7  415   2.281   2.204   1.379 -0.3219  0.2069 -0.5255
   64c3c     H8  416   2.194   2.178   1.522  0.0608  1.6326 -0.1502
   64c3c     H9  417   2.694   2.180   1.503 -0.3602  2.3833  0.7582
   64c3c    H10  418   2.599   2.084   1.376  2.2917 -0.2419  0.4215
   64c3c    H11  419   2.556   2.237   1.418 -0.8099 -2.2714 -2.3889
   64c3c    H12  420   2.600   1.896   1.564 -1.5156 -0.3907  0.5524
   64c3c    H13  421   2.689   2.021   1.643 -0.5929  1.1911 -0.8477
   64c3c     C7  422   2.544   1.933   1.766 -0.3091 -0.5937  0.2136
   64c3c    H14  423   2.443   1.894   1.765 -0.3665 -0.4744  1.3073
   64c3c    H15  424   2.548   2.018   1.833 -1.4801 -1.9975  2.1187
   64c3c     C8  425   2.635   1.824   1.819  0.4355  0.3848  0.1943
   64c3c    H16  426   2.617   1.810   1.925 -3.9935  0.7450 -0.4032
   64c3c    H17  427   2.740   1.847   1.805  0.0287  1.9668 -0.4628
   64c3c    H18  428   2.638   1.726   1.772  0.4686 -0.5530  2.1259
   65c3c      N  429   2.513   2.657   0.851  0.1195 -0.2203 -0.0929
   65c3c     C1  430   2.651   2.625   0.818 -0.5283  0.2351  0.6639
   65c3c     C2  431   2.475   2.551   0.944  0.6991  0.2009 -0.6611
   65c3c     C3  432   2.716   2.568   0.945 -0.1011  0.0707 -0.0990
   65c3c     C4  433   2.600   2.525   1.036 -0.8839  0.7971  0.7253
   65c3c     C5  434   2.502   2.789   0.924  0.3561 -0.3394  0.2146
   65c3c     C6  435   2.430   2.669   0.729 -0.2744 -0.5824  0.3555
   65c3c     H1  436   2.696   2.720   0.786 -1.8682  0.4527 -0.6669
   65c3c     H2  437   2.661   2.557   0.733 -2.3125 -1.8477  2.0808
   65c3c     H3  438   2.382   2.565   0.999  1.0961  2.5843 -0.5276
   65c3c     H4  439   2.456   2.461   0.885  1.1431  1.4195 -2.7331
   65c3c     H5  440   2.794   2.629   0.991  0.3644  0.7754 -1.7975
   65c3c     H6  441   2.763   2.471   0.927 -1.1036 -0.3731 -0.3199
   65c3c     H7  442   2.568   2.575   1.127 -0.7516  0.1301  1.1420
   65c3c     H8  443   2.612   2.421   1.068 -0.1856  1.2002  1.8371
   65c3c     H9  444   2.517   2.867   0.850  2.0452 -0.2085  0.6635
   65c3c    H10  445   2.399   2.809   0.951  0.6951 -0.8073  1.9257
   65c3c    H11  446   2.576   2.799   1.004  3.3182 -0.2973 -2.4547
   65c3c    H12  447   2.336   2.718   0.756 -0.4482 -0.4567 -0.4471
   65c3c    H13  448   2.469   2.749   0.665  0.7614 -0.6856  0.8555
   65c3c     C7  449   2.398   2.544   0.640 -0.3058  0.1370 -0.6157
   65c3c    H14  450   2.360   2.463   0.702  1.8022 -0.7737 -0.4569
   65c3c    H15  451   2.493   2.514   0.595  1.1941  2.5666  0.7974
   65c3c     C8  452   2.291   2.541   0.531  0.0312  0.4316  0.3730
   65c3c    H16  453   2.318   2.464   0.460 -0.5019 -0.1685  0.8207
   65c3c    H17  454   2.269   2.628   0.468 -1.8325  0.4051  0.9437
   65c3c    H18  455   2.195   2.515   0.576 -0.5396  1.8773  0.0236
   66c3c      N  456   1.223   2.408   0.469  0.1184  0.2414 -0.0019
   66c3c     C1  457   1.163   2.542   0.467 -0.1213  0.4697  0.2450
   66c3c     C2  458   1.135   2.340   0.567 -0.0851 -0.3609 -0.5261
   66c3c     C3  459   1.010   2.527   0.468  0.2466  1.0326 -0.2281
   66c3c     C4  460   0.991   2.388   0.534 -0.0288 -1.4027  0.2992
   66c3c     C5  461   1.198   2.341   0.340 -0.1144 -0.1667  0.1290
   66c3c     C6  462   1.370   2.395   0.496 -0.6958  0.4820  0.0710
   66c3c     H1  463   1.193   2.586   0.372 -1.2381 -3.2594 -1.9760
   66c3c     H2  464   1.197   2.604   0.550 -0.2983  0.0172  0.6584
   66c3c     H3  465   1.130   2.231   0.569  1.2486 -0.4118  0.7392
   66c3c     H4  466   1.149   2.378   0.669 -4.3406 -2.5568  0.9841
   66c3c     H5  467   0.964   2.515   0.370 -0.3579  1.1490  0.0381
   66c3c     H6  468   0.948   2.602   0.517  2.3755  2.7885 -0.1117
   66c3c     H7  469   0.942   2.315   0.469 -0.7868  1.5560 -2.6272
   66c3c     H8  470   0.931   2.387   0.625  0.8701 -1.8760  0.8927
   66c3c     H9  471   1.261   2.375   0.258  0.4550  0.9304  1.0196
   66c3c    H10  472   1.213   2.234   0.350 -2.7884 -0.6738 -0.6821
   66c3c    H11  473   1.100   2.343   0.291 -0.6516  1.3335  1.2242
   66c3c    H12  474   1.389   2.289   0.510 -0.2887  0.5487  0.0284
   66c3c    H13  475   1.414   2.432   0.403 -3.0297  0.2224 -1.1788
   66c3c     C7  476   1.440   2.452   0.617 -0.1831 -0.3533 -0.0651
   66c3c    H14  477   1.379   2.421   0.702 -0.6440 -1.7925 -0.8931
   66c3c    H15  478   1.433   2.561   0.617 -2.5338 -0.4651 -0.7708
   66c3c     C8  479   1.591   2.411   0.636  0.4246  0.0722  0.3691
   66c3c    H16  480   1.604   2.346   0.723 -2.1221  0.0537  0.7671
   66c3c    H17  481   1.661   2.494   0.644  0.1772  0.3048  0.1509
   66c3c    H18  482   1.611   2.348   0.549 -3.8825  1.8212 -2.0585
   67c3c      N  483   0.209   0.091   2.573 -0.8536 -0.4654  0.7308
   67c3c     C1  484   0.208   0.012   2.445  0.3146 -0.4734 -0.6398
   67c3c     C2  485   0.311   0.192   2.550 -0.0761 -0.1743  0.5667
   67c3c     C3  486   0.253   0.111   2.334  0.4611 -0.0953 -0.4253
   67c3c     C4  487   0.309   0.239   2.408  0.2155 -0.0519  0.1596
   67c3c     C5  488   0.080   0.155   2.586  0.1076  0.0862 -0.1340
   67c3c     C6  489   0.236   0.021   2.695  0.0624  0.1673  0.4824
   67c3c     H1  490   0.113  -0.037   2.424 -0.3313  0.0291  1.0067
   67c3c     H2  491   0.285  -0.065   2.445  0.7816 -0.0166 -0.0192
   67c3c     H3  492   0.315   0.280   2.615 -2.1239 -0.0090  0.4969
   67c3c     H4  493   0.411   0.155   2.574  0.8487  1.0195 -1.3484
   67c3c     H5  494   0.176   0.143   2.263 -0.9795  0.4080  1.3275
   67c3c     H6  495   0.327   0.062   2.272 -0.2708  1.6186 -2.7473
   67c3c     H7  496   0.236   0.318   2.392  0.0314 -0.2593 -0.0491
   67c3c     H8  497   0.407   0.266   2.369 -0.1834  0.0314 -0.8106
   67c3c     H9  498  -0.006   0.089   2.598 -1.7706  2.4458 -0.0352
   67c3c    H10  499   0.079   0.236   2.659  1.2040  0.1391 -0.1784
   67c3c    H11  500   0.052   0.209   2.495 -1.3103  0.8195  0.7050
   67c3c    H12  501   0.207   0.095   2.769 -1.7277 -0.0741  0.0493
   67c3c    H13  502   0.163  -0.059   2.707 -0.2936  0.2969 -0.7530
   67c3c     C7  503   0.377  -0.044   2.720  0.2762 -0.3795  0.2907
   67c3c    H14  504   0.461   0.025   2.731 -2.4684  3.4847 -1.6890
   67c3c    H15  505   0.411  -0.109   2.640  0.9901 -1.5199  1.4994
   67c3c     C8  506   0.373  -0.119   2.856 -0.0770  0.5887 -0.1867
   67c3c    H16  507   0.327  -0.068   2.941 -0.7449  1.1560 -0.8790
   67c3c    H17  508   0.475  -0.141   2.885 -0.3961  0.5584  0.9218
   67c3c    H18  509   0.314  -0.208   2.832  0.4800  0.7349 -2.2059
   68c3c      N  510   0.336   2.962   1.908  0.1399 -0.0749 -0.6164
   68c3c     C1  511   0.291   2.881   2.025 -0.7016  0.2559 -0.3300
   68c3c     C2  512   0.213   2.966   1.819 -0.6354  0.0670  0.1540
   68c3c     C3  513   0.144   2.904   2.043  0.4640  0.8891  0.6856
   68c3c     C4  514   0.104   2.975   1.914  0.0042  0.1089 -0.5713
   68c3c     C5  515   0.368   3.097   1.952 -0.3547 -0.4043  0.6688
   68c3c     C6  516   0.448   2.902   1.835 -1.1042 -0.5164 -0.0396
   68c3c     H1  517   0.352   2.896   2.114  1.1784 -1.6385 -1.2595
   68c3c     H2  518   0.295   2.777   1.993  1.2159  0.4942 -0.9832
   68c3c     H3  519   0.226   3.054   1.756  3.6222 -0.9276 -0.5214
   68c3c     H4  520   0.198   2.884   1.750  0.7413  1.0878 -1.3975
   68c3c     H5  521   0.113   2.962   2.130 -3.9103 -1.1147  0.5703
   68c3c     H6  522   0.097   2.805   2.042 -0.4341  1.3153 -0.4865
   68c3c     H7  523   0.070   3.078   1.928  0.5636  0.0699  1.2814
   68c3c     H8  524   0.008   2.939   1.876  1.6593 -3.0633 -1.8982
   68c3c     H9  525   0.402   3.157   1.868 -2.2914  0.6011  0.5722
   68c3c    H10  526   0.291   3.155   2.003 -0.5230  1.5705 -1.7791
   68c3c    H11  527   0.448   3.085   2.026  0.6038 -0.4404 -0.3650
   68c3c    H12  528   0.460   2.959   1.742 -0.8691 -4.5843 -2.6194
   68c3c    H13  529   0.546   2.917   1.881 -1.2756  1.0218 -0.1401
   68c3c     C7  530   0.438   2.752   1.781  0.0032 -0.0497  0.3146
   68c3c    H14  531   0.348   2.722   1.725  0.7017 -0.7219 -0.4743
   68c3c    H15  532   0.442   2.683   1.865 -0.7386 -0.7916 -0.2362
   68c3c     C8  533   0.556   2.719   1.693  0.5640 -0.0880 -0.4877
   68c3c    H16  534   0.647   2.753   1.742 -0.2001  0.1517  0.7824
   68c3c    H17  535   0.554   2.772   1.597 -2.7985 -0.3114 -0.6129
   68c3c    H18  536   0.560   2.611   1.677  0.9631 -0.3409  1.2912
   69c3c      N  537   2.073   2.033   0.721  0.5744 -0.4607 -0.3332
   69c3c     C1  538   1.948   1.968   0.681  0.1227 -0.2672  0.2568
   69c3c     C2  539   2.077   1.997   0.866 -0.1785 -0.3253  0.9456
   69c3c     C3  540   1.963   1.828   0.748  0.5021 -0.0991 -0.7548
   69c3c     C4  541   2.039   1.854   0.870  0.8135 -0.6066  0.4732
   69c3c     C5  542   2.188   1.976   0.648  0.6507  0.2429 -0.5530
   69c3c     C6  543   2.069   2.179   0.695  0.8833  0.7334 -0.6700
   69c3c     H1  544   1.936   1.971   0.573 -2.5580  2.9537  0.5449
   69c3c     H2  545   1.856   2.014   0.719  0.8892 -0.3463  2.3026
   69c3c     H3  546   2.173   2.016   0.913  0.3598  1.9079 -0.9615
   69c3c     H4  547   2.011   2.053   0.932  2.8889  0.5653  3.3088
   69c3c     H5  548   2.006   1.755   0.680  1.3830  1.0631 -1.4478
   69c3c     H6  549   1.866   1.790   0.780  0.9501 -0.3472  0.3587
   69c3c     H7  550   2.138   1.809   0.869  1.8792  1.6664 -1.5392
   69c3c     H8  551   1.997   1.830   0.968  2.6002  1.5499  1.8412
   69c3c     H9  552   2.179   1.982   0.540 -0.0324  0.4468 -0.4830
   69c3c    H10  553   2.285   2.022   0.670  1.4857 -1.6086 -0.2685
   69c3c    H11  554   2.212   1.875   0.680  1.0812  1.1550  2.1828
   69c3c    H12  555   2.154   2.228   0.744 -0.6078  2.0288  0.6867
   69c3c    H13  556   2.076   2.189   0.587 -1.0414 -0.1937 -0.8887
   69c3c     C7  557   1.940   2.252   0.735  0.6964 -0.0318 -0.4436
   69c3c    H14  558   1.931   2.239   0.843  2.2774  0.2622 -0.2593
   69c3c    H15  559   1.850   2.205   0.696  0.9170 -0.9530  0.1269
   69c3c     C8  560   1.935   2.402   0.717  0.3139 -0.3696 -0.1090
   69c3c    H16  561   1.856   2.448   0.776  0.3780 -0.5356  0.1086
   69c3c    H17  562   1.909   2.436   0.617  0.4327  1.8548  0.5875
   69c3c    H18  563   2.019   2.461   0.752 -1.2525  0.3040  2.6540
   70c3c      N  564   1.222   2.031   1.552  0.0237 -0.4208 -0.1155
   70c3c     C1  565   1.212   2.074   1.692 -0.1329  0.5011 -0.2714
   70c3c     C2  566   1.087   1.981   1.520 -0.4761 -0.3125  0.0661
   70c3c     C3  567   1.075   2.147   1.706 -0.0405 -0.2691  0.0024
   70c3c     C4  568   0.993   2.072   1.602 -0.4330  0.0198 -0.0496
   70c3c     C5  569   1.240   2.149   1.465 -0.1023  0.4657 -0.1813
   70c3c     C6  570   1.326   1.930   1.521 -0.0467  0.1700 -0.3313
   70c3c     H1  571   1.294   2.140   1.721 -0.5757  1.0569 -0.2753
   70c3c     H2  572   1.212   1.997   1.769 -0.3780 -0.1806 -0.9614
   70c3c     H3  573   1.067   2.000   1.414 -1.2117 -1.9619 -0.1083
   70c3c     H4  574   1.070   1.877   1.547 -0.5109 -0.4937 -0.6441
   70c3c     H5  575   1.094   2.246   1.663  3.1717 -1.2324 -0.9135
   70c3c     H6  576   1.036   2.165   1.806 -0.4858 -1.7245  0.0969
   70c3c     H7  577   0.956   2.158   1.546  2.2619  0.3311 -1.4520
   70c3c     H8  578   0.912   2.016   1.649 -0.8861 -0.3104 -1.2046
   70c3c     H9  579   1.170   2.232   1.479 -0.8154 -0.2383  0.5112
   70c3c    H10  580   1.340   2.190   1.480 -0.0800  0.4839 -0.3792
   70c3c    H11  581   1.247   2.119   1.361  1.5191 -0.5147  0.1900
   70c3c    H12  582   1.310   1.882   1.425  0.9472  1.5006 -1.1846
   70c3c    H13  583   1.424   1.977   1.508 -0.7723  0.8641 -3.7679
   70c3c     C7  584   1.335   1.818   1.627 -0.3198 -0.0214 -0.5530
   70c3c    H14  585   1.233   1.780   1.639 -0.2537  0.1317  0.5682
   70c3c    H15  586   1.374   1.853   1.723 -0.2093  1.0314 -0.9854
   70c3c     C8  587   1.418   1.712   1.579  0.0116 -0.6960 -0.1641
   70c3c    H16  588   1.385   1.622   1.630  0.3139  0.1896  1.6378
   70c3c    H17  589   1.523   1.742   1.577 -0.3173  0.4421 -1.4475
   70c3c    H18  590   1.400   1.700   1.472  1.1227 -2.2740 -0.1855
   71c3c      N  591   2.382   0.783   0.801 -0.5990  0.3414  0.0023
   71c3c     C1  592   2.361   0.930   0.778  0.1094  0.4274 -0.3759
   71c3c     C2  593   2.289   0.729   0.700 -0.5510  0.0829 -0.2613
   71c3c     C3  594   2.345   0.953   0.628 -0.0795  0.3098 -0.1545
   71c3c     C4  595   2.311   0.818   0.572  0.4298 -0.2544  0.3080
   71c3c     C5  596   2.522   0.741   0.763  0.7429  0.7972 -0.0301
   71c3c     C6  597   2.355   0.729   0.936 -0.5433  0.9657  0.0272
   71c3c     H1  598   2.436   0.987   0.832 -0.2704 -0.3858  1.0386
   71c3c     H2  599   2.267   0.960   0.824  0.8679  2.8484 -0.3674
   71c3c     H3  600   2.299   0.624   0.675  0.4640 -0.1491  1.1038
   71c3c     H4  601   2.183   0.739   0.725 -0.3826  0.2294  0.4036
   71c3c     H5  602   2.444   0.984   0.594  0.2563 -2.5910 -1.9313
   71c3c     H6  603   2.263   1.024   0.627 -2.2032 -2.0824 -0.4497
   71c3c     H7  604   2.386   0.771   0.507 -1.7722 -1.6196 -1.3200
   71c3c     H8  605   2.226   0.820   0.503 -0.3419  2.0324  1.2981
   71c3c     H9  606   2.558   0.771   0.665  3.4177  0.6999  0.8954
   71c3c    H10  607   2.597   0.778   0.832  0.1832 -0.1263  1.0901
   71c3c    H11  608   2.522   0.632   0.764 -2.2081  0.7366  2.4487
   71c3c    H12  609   2.374   0.622   0.940  0.6243  1.1522 -0.2669
   71c3c    H13  610   2.424   0.773   1.008 -1.4156  0.4407  1.1977
   71c3c     C7  611   2.212   0.753   0.994 -0.4386  0.7584  0.3442
   71c3c    H14  612   2.134   0.722   0.925 -0.2475  1.2559 -0.0984
   71c3c    H15  613   2.186   0.858   1.003  2.4641  1.2805  3.7214
   71c3c     C8  614   2.195   0.689   1.124 -0.2198 -0.0122  0.4734
   71c3c    H16  615   2.089   0.702   1.146 -0.4373  1.8753 -1.4160
   71c3c    H17  616   2.251   0.737   1.204  2.4825 -0.3674 -1.1135
   71c3c    H18  617   2.223   0.584   1.119 -0.0483  0.0856 -1.0462
   72c3c      N  618   2.016   0.830   2.886 -0.0068 -0.1522  0.5601
   72c3c     C1  619   1.889   0.757   2.858  0.4107  0.2953 -0.9551
   72c3c     C2  620   2.032   0.817   3.029  0.4639 -0.2009  0.4327
   72c3c     C3  621   1.888   0.640   2.962 -0.5699 -0.1256 -0.1641
   72c3c     C4  622   1.969   0.683   3.078 -0.1624  0.5447  0.1139
   72c3c     C5  623   2.127   0.757   2.818  0.1645 -0.0106  0.1047
   72c3c     C6  624   2.015   0.966   2.831  0.0657 -0.4306 -0.1686
   72c3c     H1  625   1.887   0.725   2.754 -0.4005 -0.9843 -0.5518
   72c3c     H2  626   1.802   0.818   2.881  0.8626 -0.2579  2.5367
   72c3c     H3  627   2.135   0.829   3.063  0.8514  0.2629 -0.8768
   72c3c     H4  628   1.969   0.895   3.072  0.9753  0.7969 -0.6067
   72c3c     H5  629   1.942   0.558   2.913 -0.7457 -0.5491  0.3525
   72c3c     H6  630   1.786   0.613   2.989 -1.4164  1.7521 -1.4069
   72c3c     H7  631   2.041   0.607   3.108 -1.5700 -0.7808  0.2363
   72c3c     H8  632   1.904   0.695   3.164  1.8351 -1.3330  1.9376
   72c3c     H9  633   2.112   0.757   2.710 -1.2478  0.9273  0.2742
   72c3c    H10  634   2.212   0.824   2.830 -1.1318  1.5578  0.6928
   72c3c    H11  635   2.148   0.655   2.849  1.8637  0.4837  0.6270
   72c3c    H12  636   2.112   1.014   2.846  1.2429 -2.9911  0.8256
   72c3c    H13  637   2.000   0.963   2.723  0.7790 -2.0326 -0.2435
   72c3c     C7  638   1.912   1.064   2.885  0.2789 -0.1958 -0.5052
   72c3c    H14  639   1.921   1.084   2.992 -1.9652  1.3641 -0.5745
   72c3c    H15  640   1.811   1.032   2.860  0.0440  0.6353 -0.6431
   72c3c     C8  641   1.922   1.198   2.814 -1.1534 -0.8731 -0.0245
   72c3c    H16  642   1.848   1.273   2.843  0.7035  2.1097 -2.6342
   72c3c    H17  643   1.918   1.179   2.707 -0.2303  0.3937 -0.3020
   72c3c    H18  644   2.019   1.247   2.823 -0.9487 -1.2361 -0.2586
   73c3c      N  645   2.568   2.147   2.415  0.0099  0.2510  0.1858
   73c3c     C1  646   2.484   2.033   2.436 -0.1404  0.4612  0.1215
   73c3c     C2  647   2.678   2.091   2.334  0.4562 -0.4136  0.3428
   73c3c     C3  648   2.495   1.947   2.307 -0.8129 -0.3058 -0.2158
   73c3c     C4  649   2.624   1.983   2.235  0.0635  0.4315 -0.3656
   73c3c     C5  650   2.500   2.247   2.331  0.6723 -0.5307  0.2070
   73c3c     C6  651   2.607   2.208   2.543  0.1822  0.0559  0.1121
   73c3c     H1  652   2.389   2.056   2.483 -0.7083  3.2947 -2.2240
   73c3c     H2  653   2.527   1.963   2.507 -3.7196 -3.2581 -1.1828
   73c3c     H3  654   2.726   2.170   2.276  1.6044  0.4272  2.4033
   73c3c     H4  655   2.749   2.049   2.405 -1.3474 -0.1422  2.3494
   73c3c     H5  656   2.405   1.968   2.249 -0.2174  1.8341 -0.4267
   73c3c     H6  657   2.472   1.845   2.338 -0.5595 -0.3856 -0.2908
   73c3c     H7  658   2.606   2.021   2.135 -0.7216  1.0475  0.0055
   73c3c     H8  659   2.690   1.897   2.231  0.5488  0.8369 -1.0781
   73c3c     H9  660   2.459   2.207   2.238 -1.1640  4.1129 -1.0984
   73c3c    H10  661   2.420   2.292   2.389 -0.9067 -2.6102 -0.3006
   73c3c    H11  662   2.568   2.324   2.294 -1.3383 -0.4541 -3.5449
   73c3c    H12  663   2.668   2.294   2.516 -1.1488  0.8212 -0.5626
   73c3c    H13  664   2.523   2.254   2.596 -0.5811  1.0125 -1.8769
   73c3c     C7  665   2.680   2.119   2.644 -0.1538  0.9188 -1.2795
   73c3c    H14  666   2.775   2.078   2.610  0.3243  1.3724 -0.4975
   73c3c    H15  667   2.623   2.039   2.690 -1.7008  1.0203 -2.9451
   73c3c     C8  668   2.730   2.212   2.759  0.0507 -0.4753 -0.4395
   73c3c    H16  669   2.659   2.282   2.804  0.3042 -0.1597 -0.5297
   73c3c    H17  670   2.801   2.282   2.715 -3.1392  0.7155 -4.0114
   73c3c    H18  671   2.772   2.164   2.847 -0.8729  0.3280  0.4433
   74c3c      N  672   1.073   1.421   1.527  0.1049  0.1452 -0.3111
   74c3c     C1  673   1.010   1.337   1.631  0.3207 -0.0310  0.4416
   74c3c     C2  674   0.982   1.398   1.413  0.5695 -0.2244  0.1997
   74c3c     C3  675   0.861   1.365   1.613  0.2183  0.1098 -0.3539
   74c3c     C4  676   0.842   1.416   1.470 -0.2817 -0.0754 -0.0472
   74c3c     C5  677   1.071   1.567   1.556 -0.0256  0.3532  0.0919
   74c3c     C6  678   1.211   1.387   1.503 -0.2928  0.4989  0.2021
   74c3c     H1  679   1.042   1.341   1.736 -0.0691  2.4454  0.4908
   74c3c     H2  680   1.027   1.232   1.609  2.7623  0.1156  1.3477
   74c3c     H3  681   1.006   1.469   1.334 -0.1516 -0.1526  0.0425
   74c3c     H4  682   0.995   1.301   1.367 -0.1120 -0.4340  0.4374
   74c3c     H5  683   0.814   1.440   1.677 -1.7194 -0.4872 -1.0368
   74c3c     H6  684   0.814   1.271   1.645  0.0439  0.7771  1.4019
   74c3c     H7  685   0.802   1.518   1.468 -0.1126  0.1124  3.4984
   74c3c     H8  686   0.769   1.353   1.418 -1.1580 -1.1344  2.3848
   74c3c     H9  687   1.135   1.586   1.642 -1.7736  1.1653  1.2520
   74c3c    H10  688   1.120   1.608   1.467  1.1091 -1.8876 -0.3522
   74c3c    H11  689   0.975   1.610   1.587  0.1189  2.0783 -1.7253
   74c3c    H12  690   1.247   1.445   1.418 -1.5058 -0.3988 -0.9410
   74c3c    H13  691   1.266   1.414   1.594 -0.0259 -2.3691  0.9715
   74c3c     C7  692   1.241   1.238   1.470  0.1252  0.4806  0.1797
   74c3c    H14  693   1.167   1.208   1.396  1.2208 -1.6551 -0.1077
   74c3c    H15  694   1.218   1.180   1.559  1.0632 -0.3930 -0.1365
   74c3c     C8  695   1.391   1.224   1.421  0.5661 -0.4895 -0.6142
   74c3c    H16  696   1.467   1.230   1.499  1.1111 -1.2085 -1.0852
   74c3c    H17  697   1.418   1.307   1.356 -1.0089  0.7821  0.3119
   74c3c    H18  698   1.405   1.135   1.360 -0.0366  0.3423 -1.9875
   75c3c      N  699   1.831   0.727   2.321  0.0298 -0.0011 -0.2923
   75c3c     C1  700   1.747   0.827   2.252  0.0316  0.5100 -0.5112
   75c3c     C2  701   1.885   0.804   2.432  1.0104  0.5527  0.2563
   75c3c     C3  702   1.686   0.917   2.358  0.6382 -0.5533 -0.0235
   75c3c     C4  703   1.779   0.907   2.481 -0.0411  0.0016 -0.4344
   75c3c     C5  704   1.748   0.622   2.376 -0.0917  0.5050 -0.1329
   75c3c     C6  705   1.921   0.648   2.233 -0.0049  0.6109  0.5981
   75c3c     H1  706   1.679   0.777   2.183 -1.6409 -1.6569  2.5799
   75c3c     H2  707   1.822   0.887   2.200  0.1799 -0.5480 -1.5251
   75c3c     H3  708   1.918   0.743   2.517 -0.9953 -1.4066 -0.3210
   75c3c     H4  709   1.961   0.876   2.403 -0.2350  0.8717 -2.3770
   75c3c     H5  710   1.591   0.875   2.390  0.9492  0.1486  1.8713
   75c3c     H6  711   1.656   1.017   2.327 -2.5137 -0.8167  2.0079
   75c3c     H7  712   1.726   0.872   2.570  1.7622 -2.7922 -0.4023
   75c3c     H8  713   1.829   1.003   2.495  0.7157 -0.2938 -1.0589
   75c3c     H9  714   1.674   0.589   2.304 -0.8965  1.8403  0.0643
   75c3c    H10  715   1.804   0.533   2.405  0.9924  1.2421  0.0754
   75c3c    H11  716   1.695   0.656   2.465  2.0665 -0.9308  1.7599
   75c3c    H12  717   1.975   0.575   2.294  3.1041  0.3820 -2.3140
   75c3c    H13  718   1.861   0.586   2.167  1.1683  0.8242 -0.6981
   75c3c     C7  719   2.025   0.731   2.156  0.4076 -0.3818  0.2125
   75c3c    H14  720   2.074   0.789   2.235  0.0297  1.0604 -0.5908
   75c3c    H15  721   1.975   0.795   2.084 -1.2517 -0.5525  1.1929
   75c3c     C8  722   2.127   0.649   2.073 -0.0778  0.2724  0.1623
   75c3c    H16  723   2.081   0.580   2.002  0.9309  1.7648 -1.9912
   75c3c    H17  724   2.196   0.586   2.129  1.3272  1.7986  0.1903
   75c3c    H18  725   2.180   0.706   1.997  2.6281 -0.7021  1.2845
   76c3c      N  726   0.990   1.199   2.581 -0.0216  0.3154 -0.0800
   76c3c     C1  727   0.947   1.326   2.541  0.3510 -1.0110 -0.1024
   76c3c     C2  728   1.060   1.228   2.706 -0.2614 -0.4236  0.8502
   76c3c     C3  729   0.898   1.390   2.671  0.9257  0.3573  0.1744
   76c3c     C4  730   0.967   1.314   2.783  0.3978  0.4900  0.5803
   76c3c     C5  731   0.888   1.099   2.616  0.5772 -0.2289 -0.2121
   76c3c     C6  732   1.081   1.138   2.482 -0.3671  0.1219  0.0859
   76c3c     H1  733   0.871   1.327   2.462 -0.5260  4.0822  0.6012
   76c3c     H2  734   1.024   1.398   2.515 -0.4387  0.7329  2.1785
   76c3c     H3  735   1.096   1.138   2.755 -1.4789  0.1609  2.8733
   76c3c     H4  736   1.155   1.275   2.684  0.3580 -2.3174 -0.7373
   76c3c     H5  737   0.792   1.376   2.692  1.2343  0.6496  2.0302
   76c3c     H6  738   0.917   1.498   2.676 -0.5548  0.5875  1.3584
   76c3c     H7  739   0.888   1.267   2.842  2.2662 -1.0919  1.8932
   76c3c     H8  740   1.026   1.380   2.848 -0.5167  0.8065  1.0964
   76c3c     H9  741   0.807   1.123   2.685  1.4370 -0.2371  0.8199
   76c3c    H10  742   0.840   1.069   2.523 -1.2272 -0.1272  0.6648
   76c3c    H11  743   0.939   1.011   2.655 -0.7492 -1.3099 -0.8893
   76c3c    H12  744   1.120   1.048   2.529 -0.9384 -0.1283  0.0914
   76c3c    H13  745   1.023   1.104   2.396 -0.6216  1.1080 -0.1437
   76c3c     C7  746   1.197   1.217   2.426 -0.0177  0.3459 -0.0599
   76c3c    H14  747   1.275   1.238   2.500 -1.3719  0.4076  1.3860
   76c3c    H15  748   1.167   1.312   2.382 -2.7760  0.0487  1.0693
   76c3c     C8  749   1.257   1.138   2.315 -0.5225 -0.2761  0.4638
   76c3c    H16  750   1.355   1.170   2.281 -0.1462 -0.0230  1.7476
   76c3c    H17  751   1.195   1.142   2.226  0.0460  0.7841  0.1056
   76c3c    H18  752   1.279   1.036   2.349  2.8015 -0.8169 -2.9818
   77c3c      N  753   0.001   0.414   1.792 -0.2182  0.3573 -0.4540
   77c3c     C1  754  -0.053   0.516   1.703  0.0288 -0.4718  0.6451
   77c3c     C2  755  -0.115   0.319   1.815 -0.1091 -0.2248  0.4099
   77c3c     C3  756  -0.145   0.448   1.604 -0.2209 -0.4952  0.5104
   77c3c     C4  757  -0.195   0.323   1.683  0.7228 -0.9116  0.3280
   77c3c     C5  758   0.109   0.347   1.718  0.2686  0.6319  0.3808
   77c3c     C6  759   0.052   0.476   1.915 -0.0205 -0.1408 -0.0073
   77c3c     H1  760   0.017   0.584   1.655 -1.3957 -0.1557 -1.0462
   77c3c     H2  761  -0.111   0.589   1.760 -1.6335 -0.1417 -1.3814
   77c3c     H3  762  -0.084   0.216   1.834 -0.3254 -0.5247 -0.8733
   77c3c     H4  763  -0.184   0.357   1.891  1.5761 -1.6010  2.7140
   77c3c     H5  764  -0.087   0.429   1.514 -1.8053  0.0048 -0.6121
   77c3c     H6  765  -0.226   0.517   1.581  0.2993  0.5772  1.8353
   77c3c     H7  766  -0.181   0.234   1.623  1.3601  0.0428 -0.9620
   77c3c     H8  767  -0.300   0.327   1.712  0.5647 -0.6771 -0.2854
   77c3c     H9  768   0.160   0.267   1.772  1.5541  1.7283  0.8106
   77c3c    H10  769   0.075   0.301   1.625  1.6540 -0.6515  0.4962
   77c3c    H11  770   0.192   0.416   1.701 -1.3256  2.9063  1.5557
   77c3c    H12  771   0.106   0.400   1.971 -0.4228 -1.2792 -1.1382
   77c3c    H13  772   0.120   0.558   1.888 -2.4175  1.9874  0.2101
   77c3c     C7  773  -0.042   0.556   2.003  0.1319 -0.7419  0.2605
   77c3c    H14  774  -0.125   0.496   2.041 -0.6499  0.4246  0.3960
   77c3c    H15  775  -0.097   0.626   1.941  1.8518 -0.4933 -1.0327
   77c3c     C8  776   0.015   0.597   2.136 -0.0079 -0.7886 -0.0276
   77c3c    H16  777   0.105   0.655   2.115 -0.0363 -0.1363  1.5783
   77c3c    H17  778   0.032   0.518   2.209 -2.6367 -0.5042  0.9528
   77c3c    H18  779  -0.057   0.665   2.181  1.4566 -1.6585  3.8840
   78c3c      N  780   2.996   0.584   0.368  0.3183 -0.2806  0.1818
   78c3c     C1  781   2.886   0.529   0.455  0.3977  0.2753 -0.2778
   78c3c     C2  782   2.982   0.501   0.248 -0.0751 -0.4140 -0.0455
   78c3c     C3  783   2.773   0.492   0.362  0.4406  0.0979  0.1937
   78c3c     C4  784   2.829   0.481   0.223 -0.3141 -0.2156  0.3404
   78c3c     C5  785   2.978   0.726   0.334  0.1229 -0.5323 -0.2014
   78c3c     C6  786   3.131   0.574   0.423  0.0853  0.0167  0.1426
   78c3c     H1  787   2.869   0.592   0.543  1.9126 -1.7465  1.5300
   78c3c     H2  788   2.917   0.430   0.488 -0.0098  0.3199  0.2455
   78c3c     H3  789   3.037   0.547   0.166  2.1328 -0.1922  1.5316
   78c3c     H4  790   3.027   0.403   0.261 -0.8630 -0.9983 -1.6019
   78c3c     H5  791   2.697   0.571   0.360  1.5543  1.1555 -2.6770
   78c3c     H6  792   2.719   0.403   0.395  0.3269  0.9801  2.4323
   78c3c     H7  793   2.803   0.563   0.156  0.4312  0.1292  0.4656
   78c3c     H8  794   2.816   0.381   0.182 -2.0582 -0.4144  1.3392
   78c3c     H9  795   2.878   0.744   0.295 -0.4405  0.8379  1.7811
   78c3c    H10  796   2.981   0.782   0.427  0.8829 -2.9340  1.2732
   78c3c    H11  797   3.048   0.775   0.267  0.1592 -1.1097 -0.5965
   78c3c    H12  798   3.208   0.595   0.348 -0.0953 -1.8059 -0.5775
   78c3c    H13  799   3.156   0.650   0.497  0.7947 -0.9599  0.9113
   78c3c     C7  800   3.162   0.444   0.503 -0.1762  0.2455  0.4607
   78c3c    H14  801   3.125   0.359   0.446 -1.8702  1.2098  0.0703
   78c3c    H15  802   3.102   0.455   0.593 -2.0200 -0.0926 -0.7028
   78c3c     C8  803   3.307   0.412   0.540  0.5078 -0.5232  0.3536
   78c3c    H16  804   3.363   0.412   0.446 -0.4140 -1.1425 -0.2023
   78c3c    H17  805   3.311   0.317   0.593  0.1379 -2.2117 -2.5170
   78c3c    H18  806   3.344   0.482   0.615  2.1961 -0.8860 -0.1117
   79c3c      N  807   0.901   2.958   1.609  0.2090 -0.0917  0.0009
   79c3c     C1  808   1.042   2.938   1.646  0.7398 -0.4090  0.0831
   79c3c     C2  809   0.902   3.059   1.508 -0.0012 -0.4382  0.8337
   79c3c     C3  810   1.124   2.960   1.517 -0.6029  0.5859  0.3762
   79c3c     C4  811   1.028   3.032   1.420  0.4287  0.5516  0.6394
   79c3c     C5  812   0.849   2.834   1.552 -1.0513  0.5651 -0.1084
   79c3c     C6  813   0.810   2.990   1.717 -0.0757 -0.2095 -0.2086
   79c3c     H1  814   1.045   2.836   1.683 -1.5134 -0.5001  0.0866
   79c3c     H2  815   1.082   3.005   1.722  1.3589 -2.5472  1.6744
   79c3c     H3  816   0.809   3.067   1.452 -0.3045 -1.8809  1.1189
   79c3c     H4  817   0.921   3.151   1.564 -1.0754  0.3011 -0.0058
   79c3c     H5  818   1.149   2.862   1.475  3.1961  1.2650  0.8955
   79c3c     H6  819   1.214   3.018   1.540 -0.6974  1.6810 -1.8707
   79c3c     H7  820   0.995   2.969   1.337  2.1907  0.4436 -0.0005
   79c3c     H8  821   1.069   3.120   1.371  1.6214 -0.2128  0.2544
   79c3c     H9  822   0.849   2.754   1.627 -1.2865  0.9646  0.3241
   79c3c    H10  823   0.752   2.843   1.504  0.5459  1.7531 -3.2020
   79c3c    H11  824   0.919   2.804   1.475 -0.6036  2.5412 -0.4853
   79c3c    H12  825   0.707   2.988   1.683  0.3411  0.0834 -1.5048
   79c3c    H13  826   0.802   2.907   1.787  2.0347 -0.2744 -0.0116
   79c3c     C7  827   0.833   3.118   1.800 -0.1772 -0.4721 -0.1991
   79c3c    H14  828   0.821   3.207   1.737 -1.0587  0.5031  1.3327
   79c3c    H15  829   0.933   3.116   1.841 -1.8056  1.4455  4.1731
   79c3c     C8  830   0.738   3.136   1.916  0.5203 -0.3117  0.4224
   79c3c    H16  831   0.752   3.241   1.943 -2.9402  1.0917 -2.6979
   79c3c    H17  832   0.755   3.065   1.996 -1.9290 -0.6017  0.7270
   79c3c    H18  833   0.633   3.122   1.889 -0.2733  1.7179  2.3106
   80c3c      N  834   2.923   2.060   0.774  0.2653  0.0290  0.0636
   80c3c     C1  835   2.906   1.917   0.779 -0.0816 -0.1084  0.1074
   80c3c     C2  836   2.908   2.097   0.919 -0.2648 -0.1954 -0.1285
   80c3c     C3  837   2.965   1.868   0.916  0.3252  0.5156 -0.3388
   80c3c     C4  838   2.976   1.991   1.001 -0.0055 -0.2981 -0.2624
   80c3c     C5  839   3.069   2.074   0.740 -0.1970  1.2003 -0.2358
   80c3c     C6  840   2.839   2.140   0.678 -0.2902  0.7152  0.0130
   80c3c     H1  841   2.960   1.876   0.693  1.0542 -0.4545  0.9714
   80c3c     H2  842   2.803   1.881   0.773 -0.4517  0.5483  2.1278
   80c3c     H3  843   2.941   2.200   0.930 -1.4392  0.3723 -1.6849
   80c3c     H4  844   2.801   2.090   0.940 -1.1662  1.8345 -3.5851
   80c3c     H5  845   3.053   1.803   0.912 -0.6509 -0.7898 -1.2414
   80c3c     H6  846   2.888   1.813   0.971  0.4339  0.7270  0.0286
   80c3c     H7  847   3.077   2.020   1.028  0.0440 -0.6092 -0.1134
   80c3c     H8  848   2.918   1.991   1.094  0.6208  4.7351  0.3183
   80c3c     H9  849   3.138   2.015   0.800 -2.0213 -0.4940  0.2831
   80c3c    H10  850   3.082   2.044   0.636  0.6343  2.4563 -0.5033
   80c3c    H11  851   3.101   2.178   0.748 -1.9573  1.7619 -0.2517
   80c3c    H12  852   2.879   2.242   0.682  0.8282  0.2834  0.1635
   80c3c    H13  853   2.849   2.105   0.576 -1.3936  1.7889 -0.4775
   80c3c     C7  854   2.687   2.146   0.714  0.1353 -0.9303  0.3683
   80c3c    H14  855   2.669   2.215   0.796  5.4585  1.2106 -0.0635
   80c3c    H15  856   2.653   2.046   0.742 -0.5430 -1.4421 -2.0889
   80c3c     C8  857   2.602   2.189   0.591 -0.2823 -0.1827  0.0103
   80c3c    H16  858   2.500   2.221   0.612 -0.0872  0.8334 -0.5528
   80c3c    H17  859   2.607   2.123   0.504 -0.6337 -0.3601  0.1213
   80c3c    H18  860   2.652   2.276   0.550  2.0261 -0.7357  1.5553
   81c3c      N  861   1.173   0.247   2.960 -0.2249 -0.2211  0.2773
   81c3c     C1  862   1.307   0.185   2.915  0.1496  0.4232  0.2271
   81c3c     C2  863   1.202   0.322   3.085 -0.0253 -0.1405 -0.0689
   81c3c     C3  864   1.411   0.263   2.995 -0.2528  0.4241  0.2036
   81c3c     C4  865   1.340   0.283   3.128  1.1103  0.1538  0.7191
   81c3c     C5  866   1.137   0.345   2.855  0.4151  0.6877 -0.8163
   81c3c     C6  867   1.065   0.140   2.993 -0.1055  0.6286 -0.2577
   81c3c     H1  868   1.335   0.201   2.811  0.7710 -3.1004 -0.2009
   81c3c     H2  869   1.330   0.081   2.937  2.1378  0.0445 -3.3077
   81c3c     H3  870   1.199   0.429   3.065 -2.7297 -0.2724 -0.5122
   81c3c     H4  871   1.127   0.321   3.164 -0.4658  1.4514 -0.4550
   81c3c     H5  872   1.422   0.361   2.950  1.2623 -0.8560 -2.3105
   81c3c     H6  873   1.512   0.221   2.996 -1.2744 -2.1375 -0.2019
   81c3c     H7  874   1.396   0.353   3.189  1.7464  1.3833 -1.2281
   81c3c     H8  875   1.344   0.181   3.166  1.9568 -0.7740 -1.7601
   81c3c     H9  876   1.199   0.434   2.847 -1.7982  2.1478 -2.1838
   81c3c    H10  877   1.139   0.294   2.759 -0.1126  1.5132 -1.2657
   81c3c    H11  878   1.043   0.395   2.877 -0.5433 -2.0754  1.7730
   81c3c    H12  879   0.972   0.191   3.015 -0.9761 -0.5457 -1.1357
   81c3c    H13  880   1.041   0.079   2.906 -1.8255  0.8436  0.0618
   81c3c     C7  881   1.109   0.039   3.104  0.6658 -1.0811 -0.1561
   81c3c    H14  882   1.159   0.081   3.192  1.7306 -1.6598 -0.4768
   81c3c    H15  883   1.190  -0.023   3.065  0.3449 -0.7625 -1.3494
   81c3c     C8  884   0.991  -0.036   3.171  1.2270 -0.0407  0.1258
   81c3c    H16  885   0.923   0.032   3.221 -0.6585 -1.1642 -0.8515
   81c3c    H17  886   1.021  -0.120   3.234 -3.3448 -2.5562 -0.7912
   81c3c    H18  887   0.930  -0.085   3.095  0.5411  0.5587  0.2940
   82c3c      N  888   0.191   0.292   1.025  0.4364  0.6127  0.0379
   82c3c     C1  889   0.171   0.438   0.995  0.0905  0.2906 -0.0081
   82c3c     C2  890   0.119   0.262   1.148  0.6487 -0.5170  1.1773
   82c3c     C3  891   0.028   0.471   1.053 -0.3309  0.2625 -0.0588
   82c3c     C4  892  -0.002   0.356   1.148  0.7519 -0.2380 -0.2245
   82c3c     C5  893   0.125   0.199   0.924  0.1383  0.3144 -0.2043
   82c3c     C6  894   0.329   0.263   1.029  0.0190 -0.5437  0.2973
   82c3c     H1  895   0.191   0.451   0.889  0.0158  0.8353  0.0425
   82c3c     H2  896   0.232   0.507   1.053 -0.6020 -0.0467  1.1616
   82c3c     H3  897   0.099   0.155   1.157 -1.6963 -0.2918 -0.8990
   82c3c     H4  898   0.181   0.295   1.231  1.7766  1.1085 -0.2722
   82c3c     H5  899  -0.050   0.466   0.977 -1.8510  2.7269  1.2887
   82c3c     H6  900   0.028   0.569   1.100 -0.7494  0.6462 -0.8422
   82c3c     H7  901  -0.093   0.306   1.115  0.4551  1.4808 -2.0489
   82c3c     H8  902  -0.016   0.402   1.246  1.7361 -0.8486  0.2148
   82c3c     H9  903   0.165   0.210   0.823  2.0361 -0.8743  0.3850
   82c3c    H10  904   0.130   0.093   0.949  1.2005 -0.0544 -1.9032
   82c3c    H11  905   0.020   0.227   0.918 -0.0994 -0.7139 -1.1669
   82c3c    H12  906   0.344   0.156   1.044 -0.6214 -0.5025  1.2978
   82c3c    H13  907   0.371   0.287   0.932 -0.4529 -1.1839 -0.0681
   82c3c     C7  908   0.421   0.340   1.131 -0.1869 -0.4342  0.3276
   82c3c    H14  909   0.409   0.313   1.236  0.7521 -0.0029  0.5470
   82c3c    H15  910   0.409   0.448   1.131 -2.4797 -0.5068 -5.0600
   82c3c     C8  911   0.567   0.316   1.104 -0.0715  0.1493  0.3295
   82c3c    H16  912   0.605   0.217   1.131 -0.0452  0.0365 -0.1237
   82c3c    H17  913   0.623   0.392   1.158 -0.1646  0.3726  0.1103
   82c3c    H18  914   0.598   0.335   1.001 -0.5966  0.0924  0.1615
   83c3c      N  915   2.346   0.211   2.035  0.6486  0.0779  0.0893
   83c3c     C1  916   2.391   0.105   2.131 -0.5270  0.3102  0.1384
   83c3c     C2  917   2.200   0.236   2.055  0.5789 -0.0420  0.3273
   83c3c     C3  918   2.287   0.108   2.248  0.4402  0.4762 -0.1562
   83c3c     C4  919   2.190   0.213   2.206  0.1286  0.8379  0.5346
   83c3c     C5  920   2.404   0.345   2.061  0.5097  0.4618  0.0949
   83c3c     C6  921   2.383   0.189   1.894 -0.1515 -0.0579  0.0717
   83c3c     H1  922   2.492   0.118   2.169 -0.8063  1.8442  0.3648
   83c3c     H2  923   2.398   0.010   2.078 -0.4603  1.0858 -1.2512
   83c3c     H3  924   2.162   0.335   2.029 -1.3479 -0.9526 -0.4369
   83c3c     H4  925   2.142   0.158   2.005 -1.1354  0.7146  1.0998
   83c3c     H5  926   2.325   0.110   2.350  2.5402 -0.4519 -0.8875
   83c3c     H6  927   2.233   0.014   2.255  0.4102  0.5283  0.3453
   83c3c     H7  928   2.218   0.299   2.266  2.2997  1.3023 -1.0973
   83c3c     H8  929   2.088   0.186   2.232  0.3387 -0.2990  0.2115
   83c3c     H9  930   2.511   0.343   2.043  0.5392 -0.5325  0.3788
   83c3c    H10  931   2.372   0.421   1.989  3.4292  0.8447 -0.8860
   83c3c    H11  932   2.384   0.389   2.159 -1.3884 -1.0856  0.4384
   83c3c    H12  933   2.384   0.272   1.824 -0.1840 -1.1548 -1.2460
   83c3c    H13  934   2.491   0.178   1.887  0.1729  2.8823  0.0515
   83c3c     C7  935   2.318   0.071   1.820  0.1803  0.5215  0.2264
   83c3c    H14  936   2.214   0.098   1.801 -0.0759 -0.6283 -0.0266
   83c3c    H15  937   2.311  -0.024   1.872 -3.1393  1.8308  2.3034
   83c3c     C8  938   2.382   0.047   1.687  0.1122 -0.1592  0.2552
   83c3c    H16  939   2.385   0.138   1.626 -2.7829  0.8349  1.5126
   83c3c    H17  940   2.326  -0.025   1.627 -0.1925  0.2226  0.0758
   83c3c    H18  941   2.483   0.007   1.693 -0.5909 -1.9311  0.6374
   84c3c      N  942   0.817   1.000   0.115  0.4391 -0.3514  0.0295
   84c3c     C1  943   0.727   1.064   0.217  0.0838 -0.4351  0.0366
   84c3c     C2  944   0.823   0.860   0.167  0.1602  0.0897 -0.3403
   84c3c     C3  945   0.615   0.968   0.245  0.5191  0.0620 -0.2169
   84c3c     C4  946   0.691   0.838   0.243  0.4645 -0.0928  0.1353
   84c3c     C5  947   0.756   0.995  -0.018 -0.6524 -0.2887 -0.1963
   84c3c     C6  948   0.949   1.077   0.097  0.3197  0.2413  0.2383
   84c3c     H1  949   0.688   1.161   0.185 -0.7279 -0.4361  1.0059
   84c3c     H2  950   0.769   1.080   0.316 -0.6483 -0.4054  0.3450
   84c3c     H3  951   0.838   0.782   0.092 -1.5713 -1.7025  1.1078
   84c3c     H4  952   0.900   0.849   0.243  0.1408  1.4907 -0.1058
   84c3c     H5  953   0.535   0.980   0.171  0.7056 -1.3701 -0.6708
   84c3c     H6  954   0.583   0.989   0.347  0.2898 -0.0552 -0.2626
   84c3c     H7  955   0.645   0.746   0.207  2.1938 -0.1732 -2.0105
   84c3c     H8  956   0.711   0.819   0.348 -0.4995  0.1077  0.3574
   84c3c     H9  957   0.834   0.955  -0.083  0.7118  0.1205  1.1786
   84c3c    H10  958   0.668   0.932  -0.030 -1.0884 -0.0939  1.8501
   84c3c    H11  959   0.729   1.096  -0.052 -1.0518 -0.4831 -0.4716
   84c3c    H12  960   1.006   1.027   0.019 -0.0695 -0.4967  0.4196
   84c3c    H13  961   0.923   1.175   0.059 -1.5233 -1.5317 -3.3538
   84c3c     C7  962   1.027   1.103   0.229 -0.0921 -0.0803  0.6256
   84c3c    H14  963   1.047   1.011   0.284 -1.8934 -0.8913 -0.0333
   84c3c    H15  964   0.971   1.171   0.292  1.8585  1.6252  0.5694
   84c3c     C8  965   1.168   1.173   0.205  0.7727 -0.3648 -0.0843
   84c3c    H16  966   1.145   1.274   0.171 -1.1392  0.3294  3.0374
   84c3c    H17  967   1.227   1.127   0.126 -0.5215 -0.0057 -1.2934
   84c3c    H18  968   1.225   1.181   0.297  1.0816  0.6844 -0.3673
   85c3c      N  969   0.232   1.304   2.526  0.2170 -0.6200  0.3390
   85c3c     C1  970   0.296   1.233   2.412  0.5051 -0.5528 -0.0362
   85c3c     C2  971   0.301   1.242   2.642 -0.8897 -0.1698  0.7274
   85c3c     C3  972   0.441   1.216   2.439  0.5168  0.7213  0.2618
   85c3c     C4  973   0.453   1.249   2.592  0.4252 -0.0750 -0.3077
   85c3c     C5  974   0.251   1.446   2.505 -0.3126  0.5324 -0.4924
   85c3c     C6  975   0.086   1.285   2.522  0.2092 -0.3421  0.1773
   85c3c     H1  976   0.268   1.263   2.311 -2.3911  0.3648  0.9996
   85c3c     H2  977   0.251   1.133   2.404 -1.4262  0.2350  0.6162
   85c3c     H3  978   0.290   1.290   2.739  0.2125  0.3528  0.5988
   85c3c     H4  979   0.285   1.134   2.642  2.7169 -0.7469  0.6792
   85c3c     H5  980   0.498   1.291   2.385  0.3958  0.8556  0.3211
   85c3c     H6  981   0.475   1.115   2.412 -1.8387 -0.0645  0.0913
   85c3c     H7  982   0.498   1.347   2.606  0.9299 -0.5887  1.9331
   85c3c     H8  983   0.519   1.173   2.634  0.2344  0.0022  0.1388
   85c3c     H9  984   0.204   1.483   2.413 -0.0078  0.4291 -0.6903
   85c3c    H10  985   0.209   1.503   2.587  1.5955 -0.1028  0.9625
   85c3c    H11  986   0.355   1.477   2.504  0.0263 -0.4802  1.2720
   85c3c    H12  987   0.052   1.353   2.600  1.0346 -0.3628  0.5563
   85c3c    H13  988   0.036   1.327   2.435 -2.0280  0.0182  1.5886
   85c3c     C7  989   0.028   1.144   2.565 -1.0821 -0.1315  0.4359
   85c3c    H14  990   0.063   1.125   2.667 -2.7984 -0.4637  0.9919
   85c3c    H15  991   0.054   1.058   2.504 -2.1962  0.3524 -0.7461
   85c3c     C8  992  -0.121   1.138   2.601 -0.6228  0.3639 -0.2532
   85c3c    H16  993  -0.151   1.037   2.629 -0.8725  0.8752  1.3194
   85c3c    H17  994  -0.183   1.172   2.518  0.8518 -1.4812 -2.1706
   85c3c    H18  995  -0.145   1.204   2.684 -1.1028  2.3444 -1.8965
   86c3c      N  996   2.368   1.522   1.485  0.3004 -0.6131  0.3141
   86c3c     C1  997   2.369   1.580   1.621  0.4374  0.1516  0.0171
   86c3c     C2  998   2.443   1.395   1.498  0.2371 -0.3120 -0.3696
   86c3c     C3  999   2.393   1.462   1.718 -0.0640  0.7394  0.0741
   86c3c     C4 1000   2.405   1.329   1.633 -0.7685  0.3162  0.0073
   86c3c     C5 1001   2.223   1.502   1.454 -0.1065  0.0680  0.0179
   86c3c     C6 1002   2.416   1.613   1.384  0.5562 -0.3939  0.2803
   86c3c     H1 1003   2.284   1.641   1.653 -1.1282 -1.1510 -1.5872
   86c3c     H2 1004   2.448   1.653   1.640 -0.3805  0.8463  0.8191
   86c3c     H3 1005   2.417   1.333   1.412 -1.1286  1.0097 -0.9298
   86c3c     H4 1006   2.551   1.406   1.507  0.2481 -0.9592  0.3700
   86c3c     H5 1007   2.321   1.448   1.799 -1.9771  0.2514 -1.6598
   86c3c     H6 1008   2.479   1.484   1.781 -0.1034  1.6619 -0.1837
   86c3c     H7 1009   2.311   1.277   1.614 -1.7353  1.8114  0.6289
   86c3c     H8 1010   2.479   1.256   1.666 -0.6924  0.4300  0.0890
   86c3c     H9 1011   2.168   1.596   1.448 -0.0268 -0.0179 -3.0305
   86c3c    H10 1012   2.216   1.453   1.357 -1.0074 -0.4806  0.3574
   86c3c    H11 1013   2.171   1.432   1.519 -0.5979  1.3943  1.0719
   86c3c    H12 1014   2.401   1.558   1.291 -0.0880  0.1257  0.0762
   86c3c    H13 1015   2.359   1.705   1.382  0.9768 -0.0448  2.7983
   86c3c     C7 1016   2.561   1.650   1.377  0.4567  0.2949  0.1451
   86c3c    H14 1017   2.620   1.562   1.355  0.9386  0.6647 -0.0583
   86c3c    H15 1018   2.605   1.683   1.471  1.2081 -2.8523  0.9378
   86c3c     C8 1019   2.592   1.753   1.261  0.4558 -0.5959 -0.5728
   86c3c    H16 1020   2.545   1.713   1.172  1.5739  0.6468 -1.7633
   86c3c    H17 1021   2.696   1.778   1.239  0.3588 -1.9025 -2.5722
   86c3c    H18 1022   2.550   1.852   1.282  0.0340 -0.8352 -0.3003
   87c3c      N 1023   2.147   0.147   0.898 -0.1651  0.5898  0.3871
   87c3c     C1 1024   2.034   0.218   0.949 -0.2702 -1.0001 -0.1731
   87c3c     C2 1025   2.191   0.231   0.781  0.2371  0.5126  0.4376
   87c3c     C3 1026   2.065   0.367   0.943 -0.1682  0.1208 -0.7697
   87c3c     C4 1027   2.164   0.375   0.818  0.2113  0.4516 -0.0447
   87c3c     C5 1028   2.256   0.140   1.003  0.0078  0.4681 -0.3923
   87c3c     C6 1029   2.119   0.008   0.858 -0.1684 -0.6514  0.0247
   87c3c     H1 1030   2.005   0.185   1.049  0.3925 -0.7015  0.1238
   87c3c     H2 1031   1.951   0.212   0.879  0.0244  0.5385 -0.6697
   87c3c     H3 1032   2.290   0.207   0.742  0.0203 -0.6068  0.5533
   87c3c     H4 1033   2.125   0.221   0.695 -0.9681 -0.1804  1.4424
   87c3c     H5 1034   2.106   0.413   1.033 -0.8724  3.1967 -1.9396
   87c3c     H6 1035   1.970   0.420   0.928 -1.7426 -2.8320 -1.5429
   87c3c     H7 1036   2.261   0.412   0.852  0.1962  1.3304 -0.9408
   87c3c     H8 1037   2.126   0.439   0.738  1.1238  0.6832 -0.3012
   87c3c     H9 1038   2.341   0.083   0.967  1.1289  1.2772  0.9043
   87c3c    H10 1039   2.306   0.232   1.034  0.3271  0.1536  0.0410
   87c3c    H11 1040   2.218   0.095   1.095  0.8192  1.8736  0.6530
   87c3c    H12 1041   2.208  -0.052   0.840  1.7528  1.4374  2.1856
   87c3c    H13 1042   2.083  -0.045   0.947  1.5692 -1.1676  0.4467
   87c3c     C7 1043   2.001  -0.011   0.747  0.1999 -0.5764 -0.0939
   87c3c    H14 1044   2.033   0.028   0.650 -2.2534 -2.6676 -1.8000
   87c3c    H15 1045   1.907   0.040   0.767  0.8642  0.1066  1.4215
   87c3c     C8 1046   1.965  -0.158   0.721  0.0212  0.5009 -0.1409
   87c3c    H16 1047   2.045  -0.222   0.686 -0.4910  0.0325 -0.4718
   87c3c    H17 1048   1.889  -0.167   0.643  1.8570 -2.4409 -1.6522
   87c3c    H18 1049   1.922  -0.192   0.815 -0.6109  0.4720 -0.4355
   88c3c      N 1050   2.938   1.419   0.346 -0.3193  0.5510  0.8575
   88c3c     C1 1051   2.864   1.537   0.305  0.6210 -0.3084  0.0960
   88c3c     C2 1052   2.831   1.315   0.356 -0.4881 -0.8650  0.1849
   88c3c     C3 1053   2.757   1.499   0.206  0.1258 -1.0459  0.4796
   88c3c     C4 1054   2.734   1.351   0.245  0.1988 -0.0005  0.3379
   88c3c     C5 1055   3.031   1.375   0.243  0.1376  0.2960 -0.5106
   88c3c     C6 1056   3.009   1.441   0.475  0.2153 -1.0446 -0.0720
   88c3c     H1 1057   2.918   1.625   0.270  2.6936 -1.6160 -0.0945
   88c3c     H2 1058   2.798   1.568   0.386 -0.8406 -1.3530 -0.6669
   88c3c     H3 1059   2.870   1.214   0.348  2.2758  0.2123 -0.2967
   88c3c     H4 1060   2.767   1.318   0.444  0.6847 -0.6069  1.0387
   88c3c     H5 1061   2.799   1.502   0.105  0.8434  0.5217  0.7962
   88c3c     H6 1062   2.675   1.570   0.197  0.9173 -0.2604 -0.8192
   88c3c     H7 1063   2.736   1.290   0.155 -0.1304  1.5572 -0.7524
   88c3c     H8 1064   2.630   1.351   0.277 -0.0341 -0.0766 -0.4174
   88c3c     H9 1065   3.111   1.448   0.239 -0.8890  1.5028  0.4783
   88c3c    H10 1066   3.057   1.271   0.260  0.2567  0.7179  2.0730
   88c3c    H11 1067   2.982   1.370   0.146 -0.9751  2.1351 -0.0767
   88c3c    H12 1068   3.064   1.347   0.488  1.9039  0.0604  0.9255
   88c3c    H13 1069   3.080   1.522   0.458  0.9210 -1.6772 -0.1883
   88c3c     C7 1070   2.924   1.474   0.596  0.6493  0.0024 -0.5759
   88c3c    H14 1071   2.852   1.398   0.627 -1.4227  2.4431  0.7878
   88c3c    H15 1072   2.880   1.573   0.585 -1.2552 -0.5838  1.3677
   88c3c     C8 1073   3.019   1.500   0.710 -0.1010  0.4252 -0.0010
   88c3c    H16 1074   3.064   1.410   0.753 -0.6277  0.5014  0.7174
   88c3c    H17 1075   2.959   1.546   0.788 -2.1876 -1.4429 -0.4438
   88c3c    H18 1076   3.103   1.569   0.700  0.9399 -0.9254 -0.7438
   89c3c      N 1077   1.497   2.811   0.974  0.3745  0.0211  0.2919
   89c3c     C1 1078   1.573   2.921   1.035  0.1468 -0.1189  0.4950
   89c3c     C2 1079   1.382   2.885   0.928  0.6412 -0.8819  0.3340
   89c3c     C3 1080   1.557   3.048   0.953 -0.8242 -0.6463  0.2799
   89c3c     C4 1081   1.421   3.025   0.890  0.5576  0.1152 -0.1650
   89c3c     C5 1082   1.566   2.756   0.861 -0.4972 -0.6755 -0.0344
   89c3c     C6 1083   1.467   2.706   1.074 -0.0206  0.1523 -0.3346
   89c3c     H1 1084   1.680   2.904   1.046  0.4458  0.6798 -1.1280
   89c3c     H2 1085   1.526   2.946   1.131 -0.7905 -1.1949  0.3248
   89c3c     H3 1086   1.324   2.824   0.858  0.6514 -0.4544 -0.0503
   89c3c     H4 1087   1.305   2.907   1.003 -1.2147 -0.8004 -1.5460
   89c3c     H5 1088   1.625   3.061   0.869  0.4190 -2.1107  1.0357
   89c3c     H6 1089   1.551   3.138   1.013 -1.7490 -0.5264  0.0181
   89c3c     H7 1090   1.430   3.037   0.782  1.3438 -1.1417 -0.2522
   89c3c     H8 1091   1.348   3.101   0.918  1.7832  0.6668  1.5751
   89c3c     H9 1092   1.663   2.710   0.879  0.4385  0.9315 -0.8295
   89c3c    H10 1093   1.505   2.674   0.823 -0.4415  0.2005 -2.1468
   89c3c    H11 1094   1.588   2.818   0.773  0.7447 -2.2587 -0.8569
   89c3c    H12 1095   1.420   2.622   1.024 -0.8418  1.2069 -1.3714
   89c3c    H13 1096   1.559   2.671   1.121  0.8153  1.2622 -1.1062
   89c3c     C7 1097   1.381   2.739   1.193  0.1249 -0.6228  0.1925
   89c3c    H14 1098   1.280   2.774   1.173 -0.5139 -2.7978 -0.5093
   89c3c    H15 1099   1.428   2.819   1.250 -0.2834  1.3026 -2.0825
   89c3c     C8 1100   1.353   2.628   1.284 -0.2817 -0.2420  0.2511
   89c3c    H16 1101   1.287   2.657   1.365  0.3758  0.1408  0.6594
   89c3c    H17 1102   1.443   2.604   1.341 -1.1568  2.8101  3.0282
   89c3c    H18 1103   1.319   2.540   1.229  0.5091 -2.3532  3.0143
   90c3c      N 1104   2.402   1.633   2.765  0.6434  0.2375  0.0629
   90c3c     C1 1105   2.445   1.762   2.703 -0.2765  0.0097 -0.2996
   90c3c     C2 1106   2.361   1.675   2.901  0.6984 -0.2771  0.0811
   90c3c     C3 1107   2.346   1.868   2.743 -0.5709  0.7483  0.9129
   90c3c     C4 1108   2.285   1.804   2.872 -0.6206 -0.4533 -0.2370
   90c3c     C5 1109   2.293   1.578   2.686  0.3978 -1.1320 -0.1132
   90c3c     C6 1110   2.513   1.532   2.764  0.0889 -0.2928 -0.4593
   90c3c     H1 1111   2.456   1.755   2.595 -4.4048 -0.7839 -0.7242
   90c3c     H2 1112   2.537   1.796   2.751 -1.2617  0.5041  1.2858
   90c3c     H3 1113   2.295   1.601   2.946 -0.9628  1.2815  0.2146
   90c3c     H4 1114   2.444   1.688   2.971  1.0506  0.5299 -0.4882
   90c3c     H5 1115   2.272   1.864   2.663 -0.1628  0.4795  0.5505
   90c3c     H6 1116   2.391   1.966   2.757  1.2993 -0.1953  1.5721
   90c3c     H7 1117   2.180   1.779   2.857 -0.6867 -1.8073  2.2215
   90c3c     H8 1118   2.287   1.872   2.957  0.6453 -0.0769 -0.5662
   90c3c     H9 1119   2.206   1.643   2.693  2.2588  1.1853  2.5609
   90c3c    H10 1120   2.316   1.558   2.582  0.4208 -0.1907 -0.2877
   90c3c    H11 1121   2.261   1.485   2.734 -0.7079 -0.4797  0.4429
   90c3c    H12 1122   2.473   1.441   2.809 -1.1395  0.2227 -0.4647
   90c3c    H13 1123   2.530   1.503   2.660  1.7802 -1.3652  0.1058
   90c3c     C7 1124   2.647   1.561   2.838 -0.2194 -0.2209 -0.0946
   90c3c    H14 1125   2.633   1.554   2.945  2.0799  0.6145  0.2874
   90c3c    H15 1126   2.703   1.648   2.803 -1.3134 -1.0207 -4.1826
   90c3c     C8 1127   2.746   1.447   2.808 -0.0497  0.4766 -0.0302
   90c3c    H16 1128   2.848   1.466   2.842 -0.5413  0.8991  1.2392
   90c3c    H17 1129   2.741   1.439   2.700 -0.8015  1.3655 -0.0652
   90c3c    H18 1130   2.725   1.350   2.854 -1.0247  0.3719 -0.6809
   91c3c      N 1131   0.039   1.555   2.064  0.1607  0.2297 -0.0369
   91c3c     C1 1132   0.062   1.699   2.035  0.0127 -0.0213 -0.3996
   91c3c     C2 1133  -0.034   1.556   2.195  0.9344  0.1593  0.1414
   91c3c     C3 1134  -0.067   1.768   2.091  0.3410 -0.1436 -0.0763
   91c3c     C4 1135  -0.136   1.667   2.181 -0.4858 -0.1492  0.1929
   91c3c     C5 1136  -0.047   1.502   1.955  0.0771  0.4873 -0.5034
   91c3c     C6 1137   0.158   1.474   2.049  0.4456  0.8157 -1.0840
   91c3c     H1 1138   0.085   1.711   1.929 -1.4467  0.7915 -0.6324
   91c3c     H2 1139   0.144   1.740   2.094 -0.3221  0.4496 -0.2633
   91c3c     H3 1140  -0.071   1.455   2.210 -0.1794  0.5287 -0.1140
   91c3c     H4 1141   0.042   1.574   2.271  1.8979 -0.3850 -0.6777
   91c3c     H5 1142  -0.130   1.806   2.011  1.2679  0.8960 -0.3271
   91c3c     H6 1143  -0.051   1.854   2.156  4.0440  1.3718 -2.7666
   91c3c     H7 1144  -0.226   1.628   2.133 -0.6286  1.8107 -1.2009
   91c3c     H8 1145  -0.156   1.702   2.282 -2.0232 -0.5603  0.0347
   91c3c     H9 1146  -0.135   1.564   1.934 -1.1222 -1.3293 -0.9809
   91c3c    H10 1147   0.014   1.502   1.865  0.3072  2.0950 -0.3708
   91c3c    H11 1148  -0.082   1.401   1.976  3.4349 -0.2628  1.9996
   91c3c    H12 1149   0.135   1.370   2.068  0.7966  0.9094 -0.0899
   91c3c    H13 1150   0.191   1.469   1.945  1.5382  0.4681 -0.7256
   91c3c     C7 1151   0.285   1.508   2.119 -0.6692 -0.1702  0.5763
   91c3c    H14 1152   0.270   1.509   2.227  2.8804 -1.0997  1.1179
   91c3c    H15 1153   0.315   1.611   2.098 -1.6079  0.2156  1.0796
   91c3c     C8 1154   0.406   1.414   2.087  1.0862  0.1002 -0.4418
   91c3c    H16 1155   0.442   1.439   1.987 -0.1061  1.3865 -0.5658
   91c3c    H17 1156   0.392   1.306   2.093  0.3627  0.1812 -0.5967
   91c3c    H18 1157   0.487   1.429   2.158 -0.4740  0.5553  1.2764
   92c3c      N 1158   0.781   1.429   0.706  0.0535 -0.5166 -0.1738
   92c3c     C1 1159   0.659   1.401   0.786 -0.8334 -0.0795  0.1642
   92c3c     C2 1160   0.731   1.462   0.572 -0.3093  0.5057  0.0011
   92c3c     C3 1161   0.544   1.481   0.725  0.3686  0.3933  0.8510
   92c3c     C4 1162   0.602   1.541   0.604 -0.0238  0.2006  0.6039
   92c3c     C5 1163   0.851   1.545   0.766 -0.1018  0.5599 -0.0930
   92c3c     C6 1164   0.887   1.321   0.705  0.5745 -0.1317  0.3931
   92c3c     H1 1165   0.673   1.405   0.894  0.7734  0.9650 -0.0703
   92c3c     H2 1166   0.633   1.296   0.771 -1.1949  0.2296 -1.4809
   92c3c     H3 1167   0.804   1.519   0.516  1.7557 -0.5548  1.5417
   92c3c     H4 1168   0.719   1.376   0.505 -0.5469 -0.5355  1.3561
   92c3c     H5 1169   0.510   1.566   0.784  1.9868  1.0627  0.8425
   92c3c     H6 1170   0.457   1.416   0.715 -0.1673  1.1199  0.7456
   92c3c     H7 1171   0.634   1.643   0.623 -0.6504  0.5262 -0.1072
   92c3c     H8 1172   0.532   1.546   0.521 -3.7696 -1.6097  3.5105
   92c3c     H9 1173   0.880   1.525   0.869 -1.3808  0.5240  0.2681
   92c3c    H10 1174   0.946   1.567   0.718  0.6197 -2.7289 -0.3372
   92c3c    H11 1175   0.782   1.629   0.772 -0.4266  0.2087  1.1985
   92c3c    H12 1176   0.979   1.358   0.660 -0.4339  2.4173  0.3175
   92c3c    H13 1177   0.918   1.294   0.807  1.2452  0.8177  0.4465
   92c3c     C7 1178   0.851   1.191   0.633  0.4294  0.0709  0.6077
   92c3c    H14 1179   0.833   1.198   0.526  2.4839 -1.9687  0.0892
   92c3c    H15 1180   0.759   1.156   0.681  0.1813  2.7965  2.2171
   92c3c     C8 1181   0.970   1.096   0.628  0.1555 -0.3355 -0.7098
   92c3c    H16 1182   1.011   1.086   0.728 -0.5382  2.0635 -0.1576
   92c3c    H17 1183   1.050   1.129   0.561 -1.1428  1.2886 -1.5166
   92c3c    H18 1184   0.942   0.999   0.588  0.3315 -0.7224  0.0997
   93c3c      N 1185   1.043   0.324   2.308  0.3979  0.3668  0.4150
   93c3c     C1 1186   0.922   0.300   2.222  0.2605  0.1116  0.2837
   93c3c     C2 1187   1.143   0.384   2.220  0.0940  0.3308  0.7158
   93c3c     C3 1188   0.940   0.371   2.090  0.0770 -0.6468 -0.2802
   93c3c     C4 1189   1.064   0.457   2.114 -0.3386  0.2538 -0.4314
   93c3c     C5 1190   1.001   0.421   2.410  0.8198 -0.0202 -0.1282
   93c3c     C6 1191   1.090   0.202   2.380 -0.3311  0.5184 -0.1335
   93c3c     H1 1192   0.833   0.336   2.273 -0.2659  0.1319 -0.6466
   93c3c     H2 1193   0.902   0.193   2.219 -1.4120  0.4695 -2.0911
   93c3c     H3 1194   1.212   0.445   2.278  1.9507 -1.2618  0.2350
   93c3c     H4 1195   1.190   0.303   2.165  1.2725  2.8320 -2.1022
   93c3c     H5 1196   0.864   0.436   2.048  1.1508  0.0318 -1.1946
   93c3c     H6 1197   0.971   0.295   2.018 -0.3476  0.9258 -2.1479
   93c3c     H7 1198   1.036   0.558   2.143  0.3121 -0.2003  1.8315
   93c3c     H8 1199   1.116   0.469   2.019  2.5080 -1.2019  0.8823
   93c3c     H9 1200   1.079   0.469   2.469  0.0180 -1.5569  2.2618
   93c3c    H10 1201   0.947   0.501   2.361  0.5008  0.8152  1.5444
   93c3c    H11 1202   0.931   0.379   2.482  0.9841  0.9493  0.6043
   93c3c    H12 1203   1.015   0.151   2.441 -0.3020  1.2018  0.4820
   93c3c    H13 1204   1.115   0.130   2.302 -1.1517  0.9949 -0.8481
   93c3c     C7 1205   1.212   0.223   2.473 -0.5193 -0.6623 -0.3664
   93c3c    H14 1206   1.222   0.313   2.532  0.5922 -1.5322  0.8044
   93c3c    H15 1207   1.286   0.232   2.394 -0.4955  0.6019 -0.2103
   93c3c     C8 1208   1.251   0.106   2.564  0.5681 -0.8171  0.4078
   93c3c    H16 1209   1.179   0.093   2.644  0.3022  1.5327  0.5867
   93c3c    H17 1210   1.350   0.111   2.609  0.2504  0.3610  0.9910
   93c3c    H18 1211   1.240   0.008   2.517 -1.4621 -1.2191  1.7026
   94c3c      N 1212   1.658   1.420   0.440 -0.5563 -0.4330 -0.5805
   94c3c     C1 1213   1.704   1.391   0.578 -0.5159  0.0118 -0.0870
   94c3c     C2 1214   1.707   1.557   0.423  0.2308 -0.0351  0.5324
   94c3c     C3 1215   1.835   1.472   0.601  0.4525 -0.0394 -0.4237
   94c3c     C4 1216   1.836   1.581   0.498  0.4568 -0.0375 -0.3228
   94c3c     C5 1217   1.734   1.335   0.350 -0.3130 -0.3713  0.1645
   94c3c     C6 1218   1.517   1.393   0.416  0.2456  0.0743 -0.6690
   94c3c     H1 1219   1.718   1.283   0.583  0.5450  0.1236 -0.6018
   94c3c     H2 1220   1.636   1.421   0.658  1.0023  2.2995  0.3809
   94c3c     H3 1221   1.701   1.593   0.320  0.5227 -1.5849 -0.0314
   94c3c     H4 1222   1.636   1.618   0.478  0.4830  1.4901 -0.7902
   94c3c     H5 1223   1.924   1.411   0.582 -0.6613 -2.3212  1.3400
   94c3c     H6 1224   1.846   1.511   0.702  1.0892  0.8832 -0.8463
   94c3c     H7 1225   1.929   1.567   0.443  0.9398  0.7237  0.2740
   94c3c     H8 1226   1.844   1.683   0.535  0.8313 -0.2948  0.3106
   94c3c     H9 1227   1.694   1.234   0.360  0.8881 -0.6719  2.0737
   94c3c    H10 1228   1.745   1.361   0.244  0.3866  3.4135  1.1274
   94c3c    H11 1229   1.834   1.324   0.391  0.2692 -0.8545 -1.3144
   94c3c    H12 1230   1.490   1.388   0.310  0.0958  1.3972 -0.7080
   94c3c    H13 1231   1.492   1.293   0.451  1.8381 -0.0247  0.2377
   94c3c     C7 1232   1.409   1.499   0.477 -0.2384  0.0916 -0.1178
   94c3c    H14 1233   1.409   1.590   0.419  2.7448 -0.0897 -0.4991
   94c3c    H15 1234   1.446   1.534   0.573 -2.1312  0.2576  0.5722
   94c3c     C8 1235   1.271   1.434   0.505  0.2322  0.0191 -0.3779
   94c3c    H16 1236   1.238   1.377   0.418 -0.8733 -1.8319  1.2088
   94c3c    H17 1237   1.200   1.510   0.536  1.0938  1.1046 -1.0455
   94c3c    H18 1238   1.283   1.364   0.588  1.7961  2.8494  1.8777
   95c3c      N 1239   0.703   1.892   2.761  0.2918  0.2775  0.0183
   95c3c     C1 1240   0.702   1.888   2.915 -0.2332 -0.7139  0.1134
   95c3c     C2 1241   0.777   1.767   2.721 -0.0294 -0.2967  0.7499
   95c3c     C3 1242   0.669   1.746   2.943 -0.1151 -0.2341 -0.0600
   95c3c     C4 1243   0.724   1.660   2.830 -0.3802 -0.3423 -0.2037
   95c3c     C5 1244   0.570   1.894   2.697  0.2939  0.4197  0.1994
   95c3c     C6 1245   0.761   2.023   2.710 -0.1872 -0.6505 -0.0419
   95c3c     H1 1246   0.627   1.955   2.957  0.1294 -0.1486 -0.1340
   95c3c     H2 1247   0.803   1.903   2.953  0.1428  0.5392 -1.3067
   95c3c     H3 1248   0.751   1.734   2.621  0.0657  1.0301  0.2921
   95c3c     H4 1249   0.886   1.763   2.722  0.1818  3.0915 -1.8021
   95c3c     H5 1250   0.562   1.732   2.959 -0.2472  0.3912 -0.4285
   95c3c     H6 1251   0.702   1.714   3.042 -2.0316 -1.1070  0.3195
   95c3c     H7 1252   0.649   1.594   2.786 -0.1307 -1.1460  0.5610
   95c3c     H8 1253   0.807   1.597   2.859 -0.7631 -0.2947  1.0236
   95c3c     H9 1254   0.579   1.891   2.589 -0.6853  0.6813  0.1104
   95c3c    H10 1255   0.504   1.813   2.726 -1.3114  0.9599 -1.8827
   95c3c    H11 1256   0.518   1.989   2.712  1.5622  0.5405  4.7840
   95c3c    H12 1257   0.739   2.033   2.604 -2.7393  2.7162  0.7375
   95c3c    H13 1258   0.709   2.105   2.758 -0.6783 -0.0146 -1.6458
   95c3c     C7 1259   0.909   2.049   2.734 -0.8497 -0.2647  0.8555
   95c3c    H14 1260   0.960   1.963   2.691  0.7887 -1.3443  4.7614
   95c3c    H15 1261   0.945   2.045   2.836 -3.1234  2.1050  1.8142
   95c3c     C8 1262   0.956   2.178   2.669  0.4855  0.0621  0.4085
   95c3c    H16 1263   0.890   2.255   2.710  0.7401  1.5381 -1.8605
   95c3c    H17 1264   0.931   2.164   2.564 -0.2030  2.0086  0.2874
   95c3c    H18 1265   1.064   2.181   2.686  0.6195 -0.7132 -0.2887
   96c3c      N 1266   0.503   2.050   1.600 -0.4574  0.1479  0.7240
   96c3c     C1 1267   0.439   2.160   1.675  0.6054  0.1941 -0.4469
   96c3c     C2 1268   0.421   2.037   1.479 -0.5518 -0.4106  0.6012
   96c3c     C3 1269   0.375   2.250   1.576  0.4884  0.5418  0.5752
   96c3c     C4 1270   0.377   2.174   1.439  0.2939 -0.5229  0.2767
   96c3c     C5 1271   0.640   2.090   1.561  0.1887  0.0951 -0.3588
   96c3c     C6 1272   0.503   1.921   1.674 -0.3338  0.4691  1.2565
   96c3c     H1 1273   0.511   2.207   1.742 -1.0826  0.6874  1.0484
   96c3c     H2 1274   0.360   2.126   1.742  1.7575  1.7594  1.7701
   96c3c     H3 1275   0.464   1.979   1.397 -0.3839  0.1781  0.2693
   96c3c     H4 1276   0.329   1.981   1.495  0.3991 -2.1948 -0.0492
   96c3c     H5 1277   0.426   2.345   1.564 -0.0441  0.7897  0.2901
   96c3c     H6 1278   0.271   2.269   1.603 -0.2142 -1.8249 -0.3178
   96c3c     H7 1279   0.451   2.230   1.381  1.1811 -1.3378  0.6136
   96c3c     H8 1280   0.290   2.185   1.374  0.7350  1.3109 -0.0365
   96c3c     H9 1281   0.625   2.191   1.523 -2.5628 -0.2163 -0.1857
   96c3c    H10 1282   0.712   2.092   1.643  1.1438  0.3174 -1.1902
   96c3c    H11 1283   0.676   2.025   1.482 -2.0512 -0.6167 -0.8223
   96c3c    H12 1284   0.545   1.848   1.604 -2.2489 -0.7580  1.3523
   96c3c    H13 1285   0.565   1.938   1.762  0.3136  2.0727  0.5125
   96c3c     C7 1286   0.369   1.848   1.726  0.3087  0.4092 -1.0121
   96c3c    H14 1287   0.314   1.803   1.643  0.5850 -0.5556 -0.6672
   96c3c    H15 1288   0.307   1.920   1.780 -0.1438 -3.1003  3.3973
   96c3c     C8 1289   0.388   1.742   1.827 -0.3561 -0.3060  0.1809
   96c3c    H16 1290   0.416   1.645   1.786 -0.5604 -0.3711  0.1947
   96c3c    H17 1291   0.297   1.739   1.887 -0.8303 -0.1419 -0.5320
   96c3c    H18 1292   0.457   1.776   1.904  1.1651  0.6739 -1.5844
   97c3c      N 1293   2.560   0.876   2.330 -0.3906 -0.5392  0.1439
   97c3c     C1 1294   2.634   0.754   2.276  0.7844  0.7885  0.3303
   97c3c     C2 1295   2.459   0.817   2.415  0.0001 -0.4027 -0.5497
   97c3c     C3 1296   2.616   0.646   2.383  0.2354  0.5994 -0.2705
   97c3c     C4 1297   2.516   0.698   2.481 -0.0956 -0.4832 -0.2111
   97c3c     C5 1298   2.645   0.957   2.412  0.0441  0.4050  0.0887
   97c3c     C6 1299   2.498   0.960   2.222 -0.0346  0.1336  0.1034
   97c3c     H1 1300   2.739   0.762   2.246  0.7001 -0.3526 -0.2918
   97c3c     H2 1301   2.598   0.717   2.180 -1.2128  0.8399  1.0337
   97c3c     H3 1302   2.423   0.876   2.499  1.5632  1.6586 -1.2721
   97c3c     H4 1303   2.372   0.793   2.354 -0.5771 -1.3507  0.6245
   97c3c     H5 1304   2.702   0.609   2.438  0.3826  1.0259 -0.2116
   97c3c     H6 1305   2.567   0.564   2.330  1.3208  0.2246 -0.6959
   97c3c     H7 1306   2.568   0.729   2.572  0.5423  0.9259 -1.0299
   97c3c     H8 1307   2.436   0.627   2.500  1.6260 -2.3845  0.0746
   97c3c     H9 1308   2.725   1.007   2.357  0.8405  0.7008  1.4801
   97c3c    H10 1309   2.577   1.026   2.461 -0.1073  0.3563 -0.0523
   97c3c    H11 1310   2.690   0.897   2.491  1.8067 -0.4130 -1.4808
   97c3c    H12 1311   2.448   1.048   2.262  0.9800  0.7989 -0.0743
   97c3c    H13 1312   2.588   0.995   2.172  0.1782 -0.3735  0.1279
   97c3c     C7 1313   2.390   0.893   2.126 -0.3058  0.7499 -0.2943
   97c3c    H14 1314   2.296   0.882   2.180 -0.9311  0.0693 -1.5154
   97c3c    H15 1315   2.416   0.788   2.109 -0.9083 -0.0354  3.1838
   97c3c     C8 1316   2.360   0.974   1.998 -1.3279 -0.1195  0.0230
   97c3c    H16 1317   2.455   0.967   1.945 -0.4399 -1.2401  1.7038
   97c3c    H17 1318   2.327   1.074   2.027 -2.4063 -0.6573  0.6881
   97c3c    H18 1319   2.281   0.935   1.934 -1.2159 -0.3441  0.0222
   98c3c      N 1320   1.785   1.353   1.147 -0.1218 -0.0185 -0.6357
   98c3c     C1 1321   1.689   1.336   1.252 -0.1634 -0.1566 -0.1943
   98c3c     C2 1322   1.887   1.442   1.210  0.4261  0.2888  1.0911
   98c3c     C3 1323   1.764   1.344   1.384 -0.2497  0.4458 -0.2410
   98c3c     C4 1324   1.903   1.383   1.347 -0.1659  0.2891  0.3251
   98c3c     C5 1325   1.845   1.224   1.113 -0.8543  0.1444 -0.4387
   98c3c     C6 1326   1.731   1.415   1.024  0.2601  0.2535 -0.6521
   98c3c     H1 1327   1.640   1.240   1.235  1.7723 -1.3838  1.0075
   98c3c     H2 1328   1.607   1.408   1.259  0.6413  0.6918  0.7280
   98c3c     H3 1329   1.983   1.445   1.157 -1.3654 -0.7393 -2.3825
   98c3c     H4 1330   1.866   1.548   1.223  1.2904  0.7962 -1.3435
   98c3c     H5 1331   1.753   1.249   1.436 -1.7843  0.3029 -0.8182
   98c3c     H6 1332   1.717   1.422   1.444 -2.8856 -0.6909 -0.7562
   98c3c     H7 1333   1.980   1.305   1.353 -1.1955 -1.0787 -2.8708
   98c3c     H8 1334   1.936   1.450   1.426 -0.5547 -0.9665  1.5655
   98c3c     H9 1335   1.765   1.164   1.069 -1.7428  0.9006  0.1335
   98c3c    H10 1336   1.922   1.236   1.036  0.5075  0.1353  0.8956
   98c3c    H11 1337   1.882   1.173   1.202 -0.9658 -0.0157 -0.4850
   98c3c    H12 1338   1.800   1.417   0.939 -0.2342 -0.9179 -1.0802
   98c3c    H13 1339   1.652   1.348   0.990  0.5926  0.6715 -2.3140
   98c3c     C7 1340   1.667   1.563   1.037 -0.1100 -0.1141  0.1881
   98c3c    H14 1341   1.735   1.640   1.074 -1.7964  0.8356  1.3823
   98c3c    H15 1342   1.578   1.564   1.101  0.7417 -1.9699  1.4746
   98c3c     C8 1343   1.609   1.619   0.910 -0.5178 -0.3242  0.2828
   98c3c    H16 1344   1.526   1.556   0.879 -0.9483  1.2375 -1.8301
   98c3c    H17 1345   1.683   1.623   0.830  2.1335  0.6096  2.6646
   98c3c    H18 1346   1.563   1.716   0.929 -3.3110 -1.6178  0.4052
   99c3c      N 1347   1.867   1.692   1.809 -0.1235  0.3658  0.2835
   99c3c     C1 1348   1.784   1.731   1.925 -0.7183  0.0317 -0.7206
   99c3c     C2 1349   1.971   1.617   1.873  0.7211 -0.1355  0.1009
   99c3c     C3 1350   1.766   1.604   2.010  0.2369 -0.0881 -0.2721
   99c3c     C4 1351   1.902   1.545   1.986 -0.7442  0.0094  0.4549
   99c3c     C5 1352   1.805   1.610   1.704  0.8618  0.1208 -0.8503
   99c3c     C6 1353   1.910   1.813   1.734  0.2997  0.8792 -0.1485
   99c3c     H1 1354   1.685   1.756   1.889 -1.0482  0.0219  0.1740
   99c3c     H2 1355   1.829   1.801   1.996  1.1422 -1.2880 -0.5453
   99c3c     H3 1356   2.044   1.555   1.820  1.6756  1.6003 -0.6711
   99c3c     H4 1357   2.033   1.694   1.919 -1.7180  2.9663 -1.6274
   99c3c     H5 1358   1.689   1.535   1.976 -1.7123  1.1365  1.5005
   99c3c     H6 1359   1.756   1.629   2.116  0.3364  1.2175 -0.5652
   99c3c     H7 1360   1.900   1.439   1.960  2.7749 -0.1773  0.6989
   99c3c     H8 1361   1.964   1.543   2.076  1.3026  1.9333 -0.8584
   99c3c     H9 1362   1.722   1.666   1.660 -1.4144 -3.2727 -1.0386
   99c3c    H10 1363   1.866   1.586   1.618  2.2109 -0.9890  0.3907
   99c3c    H11 1364   1.761   1.518   1.742  2.8437  0.3978  2.2903
   99c3c    H12 1365   1.980   1.776   1.660  1.1945 -0.9716  1.5649
   99c3c    H13 1366   1.822   1.852   1.683  0.3356 -0.9604 -1.6523
   99c3c     C7 1367   1.960   1.935   1.802 -1.0437 -0.4261 -0.5892
   99c3c    H14 1368   2.035   1.932   1.881 -1.1486 -0.4226 -0.4900
   99c3c    H15 1369   1.870   1.984   1.839 -0.7713 -1.4714  1.5164
   99c3c     C8 1370   2.005   2.038   1.696  0.0024 -0.0224  0.4020
   99c3c    H16 1371   1.917   2.058   1.634 -0.8190 -2.2838  0.7857
   99c3c    H17 1372   2.085   1.990   1.640 -1.0669 -0.7593 -0.5199
   99c3c    H18 1373   2.041   2.131   1.739 -0.0871  0.4558 -0.5379
  100c3c      N 1374   0.353   2.833   0.337 -0.2253  0.2855  0.2114
  100c3c     C1 1375   0.223   2.849   0.278  0.4588 -0.0703 -0.1546
  100c3c     C2 1376   0.336   2.899   0.467 -0.3392  0.2764 -0.3360
  100c3c     C3 1377   0.123   2.827   0.394  0.1055  0.0351 -0.3992
  100c3c     C4 1378   0.201   2.845   0.527  0.2286 -0.6288  0.4370
  100c3c     C5 1379   0.394   2.695   0.354 -0.0752  0.5546  0.2786
  100c3c     C6 1380   0.461   2.900   0.254  0.8854 -1.0721 -0.0510
  100c3c     H1 1381   0.198   2.781   0.197  1.6569  0.8454 -1.3120
  100c3c     H2 1382   0.201   2.947   0.237  0.2364 -0.9925 -2.3057
  100c3c     H3 1383   0.421   2.889   0.534 -0.8539 -1.2681  0.1142
  100c3c     H4 1384   0.323   3.005   0.445  0.9519  0.4408 -0.3033
  100c3c     H5 1385   0.084   2.725   0.386  0.6808 -0.0527 -2.4342
  100c3c     H6 1386   0.032   2.887   0.391 -0.3218 -0.3859  2.6667
  100c3c     H7 1387   0.227   2.752   0.578  1.3794 -0.5907 -0.0659
  100c3c     H8 1388   0.159   2.916   0.599 -1.0224 -0.2450 -0.6674
  100c3c     H9 1389   0.492   2.671   0.394  0.4381  0.9767 -0.7168
  100c3c    H10 1390   0.334   2.638   0.425  1.1913 -0.4344  0.5649
  100c3c    H11 1391   0.382   2.641   0.261 -0.6849  1.6139 -0.2750
  100c3c    H12 1392   0.556   2.882   0.304  0.9997  0.1279  0.1943
  100c3c    H13 1393   0.481   2.853   0.158  0.0973 -1.7117  0.1025
  100c3c     C7 1394   0.452   3.058   0.224 -0.3662 -0.2136  0.0553
  100c3c    H14 1395   0.454   3.116   0.316  1.0789 -2.9650  1.8018
  100c3c    H15 1396   0.361   3.092   0.174 -0.0990  1.9838  0.9796
  100c3c     C8 1397   0.573   3.097   0.139  0.2640  0.4703 -0.6565
  100c3c    H16 1398   0.666   3.048   0.167  0.8124  1.0851 -1.3715
  100c3c    H17 1399   0.586   3.205   0.152  1.3149  0.1048  1.5903
  100c3c    H18 1400   0.554   3.075   0.034  0.9571 -0.9465 -0.4925
  101fsi     F1 1401   2.007   2.624   1.016  0.3840  0.2419 -0.1998
  101fsi     S1 1402   1.936   2.607   1.159 -0.3837  0.2993 -0.1420
  101fsi      N 1403   1.790   2.573   1.121  0.0257  1.1337  0.4027
  101fsi     O1 1404   2.003   2.500   1.229 -0.4903  0.2671  0.5604
  101fsi     O2 1405   1.936   2.737   1.215 -0.4873 -0.3350 -0.0596
  101fsi     S2 1406   1.716   2.438   1.088 -0.6875 -0.1244  0.0030
  101fsi     O3 1407   1.796   2.318   1.098  0.4555  0.7494 -0.6497
  101fsi     O4 1408   1.618   2.453   0.979  0.3506  0.6447  0.0562
  101fsi     F2 1409   1.616   2.418   1.208  0.5345  0.2830  0.3246
  102fsi     F1 1410   1.375   1.191   2.805  0.1086 -0.0612  0.1140
  102fsi     S1 1411   1.518   1.140   2.819 -0.1893 -0.2538 -0.0420
  102fsi      N 1412   1.530   1.097   2.975  0.2867  0.2032  0.5541
  102fsi     O1 1413   1.534   1.036   2.717  0.3577 -0.1712 -0.0640
  102fsi     O2 1414   1.586   1.259   2.789 -0.2380 -0.4495 -0.0749
  102fsi     S2 1415   1.527   0.950   3.031  0.2929  0.0081 -0.0529
  102fsi     O3 1416   1.527   0.853   2.930 -0.2163  0.3354 -0.2595
  102fsi     O4 1417   1.429   0.937   3.136  0.7429  0.2478 -0.2986
  102fsi     F2 1418   1.662   0.934   3.104 -0.1319 -0.7926 -0.4459
  103fsi     F1 1419   0.335   1.189   1.013 -0.4494  0.3206 -0.0599
  103fsi     S1 1420   0.228   1.084   1.057  0.5153 -0.1312 -0.1849
  103fsi      N 1421   0.302   0.983   1.153 -0.2454 -0.2256  0.1530
  103fsi     O1 1422   0.127   1.159   1.120  0.2050 -0.7987 -0.0240
  103fsi     O2 1423   0.204   1.031   0.931 -1.0105 -0.4349  0.1510
  103fsi     S2 1424   0.328   1.012   1.304 -0.1351 -0.1827  0.2917
  103fsi     O3 1425   0.340   1.152   1.333 -0.4850  0.4143 -0.4250
  103fsi     O4 1426   0.431   0.923   1.362 -0.1516  0.3996 -0.2667
  103fsi     F2 1427   0.200   0.986   1.381 -0.0242  0.3080 -0.8007
  104fsi     F1 1428   0.502   1.799   0.917  0.3908  0.2019 -0.0816
  104fsi     S1 1429   0.387   1.873   0.843 -0.2976  0.7003  0.0261
  104fsi      N 1430   0.356   1.980   0.958 -0.4367  0.1342 -0.5708
  104fsi     O1 1431   0.457   1.925   0.729 -0.1476  0.2380 -0.0009
  104fsi     O2 1432   0.284   1.772   0.818 -0.1751 -0.1295  0.0283
  104fsi     S2 1433   0.410   2.122   0.991  0.1183  0.0361  0.4760
  104fsi     O3 1434   0.513   2.172   0.903 -0.2394 -0.0295 -0.0686
  104fsi     O4 1435   0.436   2.139   1.129 -0.7926 -0.2960  0.0114
  104fsi     F2 1436   0.281   2.207   0.959  0.2774  0.5195 -0.2475
  105fsi     F1 1437   0.094   2.110   2.752  0.0398  0.2652 -0.0857
  105fsi     S1 1438   0.129   1.959   2.713  0.0249 -0.1362  0.0259
  105fsi      N 1439  -0.004   1.892   2.672  0.1492  0.1696  0.2444
  105fsi     O1 1440   0.224   1.967   2.608  0.3692 -0.2415  0.0969
  105fsi     O2 1441   0.170   1.908   2.839  0.7053  0.2844  0.8081
  105fsi     S2 1442  -0.063   1.837   2.536  0.1735 -0.2145 -0.3593
  105fsi     O3 1443  -0.008   1.895   2.416  0.7077 -0.3361 -0.5506
  105fsi     O4 1444  -0.208   1.826   2.546 -0.5327 -0.0309  0.1986
  105fsi     F2 1445  -0.012   1.687   2.544 -0.0169 -0.2879 -0.5535
  106fsi     F1 1446   0.183   2.071   1.979 -0.2798  0.1352 -0.5978
  106fsi     S1 1447   0.235   2.176   2.076 -0.0646 -0.2304 -0.2862
  106fsi      N 1448   0.171   2.319   2.029  0.4412  0.6029  0.1565
  106fsi     O1 1449   0.179   2.131   2.201  0.1462  0.3385  0.2005
  106fsi     O2 1450   0.375   2.163   2.051 -0.1209  0.1603  0.4458
  106fsi     S2 1451   0.239   2.442   1.967  0.0235 -0.1775  0.1939
  106fsi     O3 1452   0.137   2.522   1.903  0.2150 -0.0575 -0.3519
  106fsi     O4 1453   0.363   2.426   1.903  0.0571 -0.0832  0.1268
  106fsi     F2 1454   0.276   2.537   2.091  0.0679 -0.3457 -0.5565
  107fsi     F1 1455   0.416   2.637   0.724 -0.5132  0.0287  0.0389
  107fsi     S1 1456   0.421   2.489   0.775 -0.1872 -0.0615 -0.2838
  107fsi      N 1457   0.476   2.409   0.648 -0.1977 -0.4179 -0.4169
  107fsi     O1 1458   0.512   2.497   0.882  0.3400  0.2232  0.5683
  107fsi     O2 1459   0.280   2.460   0.802  0.5245  0.2170 -0.1435
  107fsi     S2 1460   0.619   2.364   0.618  0.1302  0.2621 -0.2553
  107fsi     O3 1461   0.617   2.260   0.521  0.3242 -0.1508 -0.2803
  107fsi     O4 1462   0.700   2.341   0.734 -0.4524  0.2085 -0.2946
  107fsi     F2 1463   0.685   2.481   0.538  0.4173  0.8469 -0.0872
  108fsi     F1 1464   1.502   2.040   0.139  0.8870  0.3076  0.0207
  108fsi     S1 1465   1.500   2.025  -0.013  0.0121 -0.0367  0.2416
  108fsi      N 1466   1.469   2.174  -0.059  0.3170 -0.2353  0.3550
  108fsi     O1 1467   1.630   1.976  -0.050  0.6497 -0.9814 -0.5297
  108fsi     O2 1468   1.396   1.927  -0.032 -0.0395  0.6922  0.2715
  108fsi     S2 1469   1.326   2.242  -0.071 -0.3393 -0.6644 -0.3258
  108fsi     O3 1470   1.339   2.379  -0.040 -0.4350  0.1423 -0.0823
  108fsi     O4 1471   1.217   2.165  -0.018  0.2063  0.3029  0.2831
  108fsi     F2 1472   1.295   2.250  -0.229 -0.1554 -0.2526 -0.3679
  109fsi     F1 1473   2.113   0.618   1.719 -0.0121  0.0754  0.1557
  109fsi     S1 1474   2.126   0.493   1.633 -0.0211 -0.1240  0.3476
  109fsi      N 1475   1.984   0.476   1.563  0.4721 -0.0839 -0.5383
  109fsi     O1 1476   2.227   0.521   1.537 -0.2418 -0.0058 -0.3699
  109fsi     O2 1477   2.158   0.391   1.732 -0.1336 -0.5191 -0.2316
  109fsi     S2 1478   1.935   0.559   1.442 -0.1620  0.5903  0.2360
  109fsi     O3 1479   1.987   0.692   1.435 -0.3880 -0.2785  0.0399
  109fsi     O4 1480   1.796   0.538   1.409  0.1885  0.0396 -0.1752
  109fsi     F2 1481   2.016   0.475   1.328 -0.1513 -0.0535 -0.1249
  110fsi     F1 1482   2.860   2.270   2.039  0.3920 -0.1489  0.4965
  110fsi     S1 1483   2.785   2.264   1.904 -0.0548 -0.2165 -0.1952
  110fsi      N 1484   2.880   2.167   1.823 -0.4402 -0.3461  0.1973
  110fsi     O1 1485   2.667   2.199   1.943 -0.2058 -0.0454 -1.2157
  110fsi     O2 1486   2.775   2.402   1.865  0.0718 -0.2702  0.0118
  110fsi     S2 1487   2.989   2.203   1.715  0.2040  0.1183  0.4626
  110fsi     O3 1488   3.111   2.131   1.731 -0.0977  0.3636 -0.1765
  110fsi     O4 1489   3.002   2.344   1.678 -0.0050  0.2207 -0.0212
  110fsi     F2 1490   2.933   2.138   1.583 -0.3809 -0.0313 -0.1792
  111fsi     F1 1491   0.850   2.878   0.668  0.3706  0.2658  0.0281
  111fsi     S1 1492   0.711   2.812   0.670  0.3494 -0.2513  0.1742
  111fsi      N 1493   0.626   2.926   0.746  0.2241 -0.0925 -0.1566
  111fsi     O1 1494   0.674   2.798   0.534  0.2596  0.0445 -0.4326
  111fsi     O2 1495   0.730   2.691   0.745  0.2391 -0.1493  0.1290
  111fsi     S2 1496   0.537   2.923   0.876 -0.0954 -0.3208 -0.3327
  111fsi     O3 1497   0.546   2.800   0.945  0.2702  0.3317  0.0189
  111fsi     O4 1498   0.405   2.990   0.870 -0.2782 -0.3011 -0.4936
  111fsi     F2 1499   0.623   3.011   0.973 -0.2754  0.0148  0.2393
  112fsi     F1 1500   2.466   1.869   0.624 -0.6483 -0.5541  0.2442
  112fsi     S1 1501   2.550   1.762   0.548  0.0869 -0.3616  0.1916
  112fsi      N 1502   2.435   1.678   0.483 -0.6478  0.0276 -0.2202
  112fsi     O1 1503   2.615   1.843   0.442  0.1551 -0.0487  0.2761
  112fsi     O2 1504   2.636   1.704   0.646  0.2454  0.8823  0.5941
  112fsi     S2 1505   2.372   1.665   0.338 -0.1684 -0.1259 -0.0337
  112fsi     O3 1506   2.367   1.527   0.298 -0.1016  0.6744  0.8318
  112fsi     O4 1507   2.416   1.766   0.245  0.1334  0.2066  0.2504
  112fsi     F2 1508   2.224   1.704   0.363  0.5003  0.3155 -0.4715
  113fsi     F1 1509   2.586   2.639   2.864  0.1782  0.2388 -0.1901
  113fsi     S1 1510   2.689   2.752   2.821 -0.6377 -0.2846  0.1417
  113fsi      N 1511   2.799   2.755   2.932  0.1005  0.2126  0.4492
  113fsi     O1 1512   2.743   2.702   2.699  0.7341  0.5725 -0.0848
  113fsi     O2 1513   2.608   2.873   2.820 -0.6389 -0.1800 -0.2138
  113fsi     S2 1514   2.919   2.651   2.956 -0.4592  0.1881  0.3550
  113fsi     O3 1515   2.893   2.516   2.915 -0.6157 -0.2842  0.8121
  113fsi     O4 1516   2.979   2.658   3.090 -0.8133  0.3252  0.0564
  113fsi     F2 1517   3.032   2.708   2.857  0.3916  0.2848 -0.4770
  114fsi     F1 1518   2.519   1.208   0.661 -0.1442 -0.0772  0.2183
  114fsi     S1 1519   2.471   1.329   0.568 -0.0240 -0.1551 -0.2988
  114fsi      N 1520   2.358   1.401   0.642 -0.1521  0.1810  0.3619
  114fsi     O1 1521   2.584   1.423   0.572  0.5063 -0.4546 -0.4248
  114fsi     O2 1522   2.433   1.262   0.445 -0.8488  0.0895 -0.5890
  114fsi     S2 1523   2.203   1.409   0.606  0.1518  0.5006  0.1452
  114fsi     O3 1524   2.163   1.355   0.481  0.0313  0.7410 -0.5505
  114fsi     O4 1525   2.145   1.534   0.639 -0.2131  0.2395 -0.6156
  114fsi     F2 1526   2.131   1.307   0.709  0.2799  0.3594 -0.2157
  115fsi     F1 1527   1.555   2.282   1.659 -0.0411  0.5333  0.0862
  115fsi     S1 1528   1.679   2.202   1.627 -0.3281  0.3873  0.0921
  115fsi      N 1529   1.799   2.298   1.666  0.1162  0.2927 -0.2562
  115fsi     O1 1530   1.667   2.088   1.712  0.3681 -0.1029 -0.2242
  115fsi     O2 1531   1.679   2.179   1.485  0.2869  0.2025  0.1434
  115fsi     S2 1532   1.897   2.386   1.575  0.2458  0.1313 -0.4317
  115fsi     O3 1533   1.968   2.305   1.473 -0.0037  0.1029 -0.0160
  115fsi     O4 1534   1.972   2.475   1.657  0.3438 -0.3752 -0.3197
  115fsi     F2 1535   1.805   2.469   1.490  0.0773  0.5321 -0.4838
  116fsi     F1 1536   2.888   0.986   2.165 -0.0529  0.2885 -0.2035
  116fsi     S1 1537   3.003   1.074   2.120 -0.2322 -0.2763  0.0682
  116fsi      N 1538   3.126   0.993   2.177 -0.0328  0.8679 -0.0065
  116fsi     O1 1539   2.993   1.067   1.979  0.1853 -0.1740 -0.0422
  116fsi     O2 1540   2.987   1.199   2.193 -0.3794 -0.3375  0.2564
  116fsi     S2 1541   3.253   0.930   2.105 -0.0058  0.3661  0.0507
  116fsi     O3 1542   3.251   0.934   1.958  0.6660  0.2406  0.4264
  116fsi     O4 1543   3.298   0.808   2.165  0.1739  0.3427  0.4212
  116fsi     F2 1544   3.377   1.031   2.150  0.2648  0.1353 -0.5036
  117fsi     F1 1545   1.871   0.318   2.178  0.0991 -0.1320 -0.0287
  117fsi     S1 1546   1.791   0.322   2.041 -0.0782 -0.7056  0.4030
  117fsi      N 1547   1.645   0.333   2.085 -0.2117  0.1382  0.1991
  117fsi     O1 1548   1.830   0.445   1.978 -0.5233  0.0995  0.0971
  117fsi     O2 1549   1.823   0.198   1.976  0.2501 -0.7232 -0.2056
  117fsi     S2 1550   1.569   0.211   2.152  0.2280  0.0318 -0.0872
  117fsi     O3 1551   1.616   0.076   2.128  0.8053  0.1841 -0.1070
  117fsi     O4 1552   1.429   0.235   2.133 -0.1611  0.1549  0.1310
  117fsi     F2 1553   1.594   0.222   2.307 -0.1464  0.2903  0.2794
  118fsi     F1 1554   1.619   2.740   1.428  0.8080  0.0631 -0.3029
  118fsi     S1 1555   1.667   2.753   1.575 -0.0635  0.1513  0.3223
  118fsi      N 1556   1.642   2.910   1.606 -0.3880  0.4933  0.3036
  118fsi     O1 1557   1.587   2.660   1.647  0.2936  0.1871 -0.2523
  118fsi     O2 1558   1.804   2.718   1.571 -0.4118 -0.1583 -0.1116
  118fsi     S2 1559   1.535   2.982   1.689  0.3171 -0.2373 -0.2353
  118fsi     O3 1560   1.598   3.086   1.768  0.2031 -0.1571  0.1515
  118fsi     O4 1561   1.437   2.896   1.755  0.1339 -0.3418  0.1124
  118fsi     F2 1562   1.447   3.065   1.592 -0.1666  0.0018 -0.1570
  119fsi     F1 1563   1.420   2.668   0.329 -0.5306  0.1572 -0.0016
  119fsi     S1 1564   1.352   2.787   0.257 -0.2904 -0.1735 -0.0172
  119fsi      N 1565   1.241   2.835   0.368  0.0604 -0.7464 -0.0377
  119fsi     O1 1566   1.455   2.883   0.223 -0.0966  0.7736  0.3275
  119fsi     O2 1567   1.287   2.727   0.145 -0.1668 -0.7124 -0.1326
  119fsi     S2 1568   1.262   2.933   0.491  0.1850 -0.0808 -0.3295
  119fsi     O3 1569   1.395   2.990   0.501  0.0094 -0.3671  0.5933
  119fsi     O4 1570   1.197   2.892   0.612 -0.2287 -0.2402 -0.1065
  119fsi     F2 1571   1.173   3.051   0.441 -0.7105 -0.3266 -0.3230
  120fsi     F1 1572   2.330   2.819   2.404 -0.5121  0.1295 -0.3481
  120fsi     S1 1573   2.404   2.787   2.538 -0.0672  0.3422  0.0449
  120fsi      N 1574   2.290   2.721   2.624 -0.3596 -0.2950 -0.0658
  120fsi     O1 1575   2.509   2.706   2.494 -0.8209 -0.2587  0.4687
  120fsi     O2 1576   2.441   2.915   2.581  0.0487 -0.4736 -0.0688
  120fsi     S2 1577   2.256   2.573   2.645  0.2043 -0.2096  0.8714
  120fsi     O3 1578   2.333   2.478   2.569  0.6521 -0.4409  0.2945
  120fsi     O4 1579   2.113   2.554   2.646  0.0081 -0.1775 -0.2885
  120fsi     F2 1580   2.293   2.548   2.787  0.3413  0.0463 -0.1080
  121fsi     F1 1581   2.487   0.496   0.523  0.3284 -0.3595  0.1185
  121fsi     S1 1582   2.394   0.387   0.461  0.0779  0.1102  0.2314
  121fsi      N 1583   2.255   0.445   0.501  0.1579  0.7919  0.1827
  121fsi     O1 1584   2.425   0.404   0.321  0.4188  0.3844 -0.6479
  121fsi     O2 1585   2.436   0.266   0.525  0.2995  0.2476  0.0491
  121fsi     S2 1586   2.132   0.461   0.403  0.6750  0.1986  0.0163
  121fsi     O3 1587   2.137   0.382   0.285  0.7183 -0.3215  0.0635
  121fsi     O4 1588   2.080   0.596   0.377  0.6066 -0.1530  0.7951
  121fsi     F2 1589   2.013   0.395   0.493  0.3955 -0.7178  0.0013
  122fsi     F1 1590   1.935   2.957   2.274 -0.1059 -0.1390  0.3577
  122fsi     S1 1591   1.891   2.940   2.430 -0.0807 -0.2097 -0.0739
  122fsi      N 1592   1.915   2.777   2.452  0.7816 -0.2550  0.5738
  122fsi     O1 1593   1.988   3.026   2.499 -0.3436  0.6288 -0.4272
  122fsi     O2 1594   1.752   2.982   2.424  0.3321  0.0145  0.0585
  122fsi     S2 1595   1.810   2.662   2.459 -0.2517  0.0506  0.3106
  122fsi     O3 1596   1.857   2.538   2.406  0.2859  0.5008 -0.3880
  122fsi     O4 1597   1.671   2.698   2.426 -0.0257 -0.3303  0.1294
  122fsi     F2 1598   1.802   2.645   2.615  0.1732  0.1039  0.6547
  123fsi     F1 1599   1.872   0.184   0.307 -0.5206  0.2476 -0.4346
  123fsi     S1 1600   1.740   0.254   0.328  0.0976  0.2130  0.2730
  123fsi      N 1601   1.751   0.283   0.482 -0.4167 -0.2292 -0.0324
  123fsi     O1 1602   1.756   0.366   0.239  0.0891  0.0168 -0.4798
  123fsi     O2 1603   1.639   0.153   0.292 -0.1786  0.2192  0.1648
  123fsi     S2 1604   1.697   0.213   0.612 -0.0522  0.1032  0.3109
  123fsi     O3 1605   1.750   0.269   0.730  0.9146 -0.1105 -0.8431
  123fsi     O4 1606   1.698   0.064   0.600 -0.0725  0.1474 -0.6191
  123fsi     F2 1607   1.537   0.240   0.604  0.0800 -0.1967 -0.2596
  124fsi     F1 1608   2.701   0.286   2.969 -0.5038 -0.4768 -0.3268
  124fsi     S1 1609   2.824   0.238   2.881  0.6623  0.0232  0.0540
  124fsi      N 1610   2.937   0.225   2.986  0.2953 -0.2049  0.4555
  124fsi     O1 1611   2.769   0.121   2.819 -1.1573  0.1760  0.5141
  124fsi     O2 1612   2.841   0.353   2.793  0.2781 -0.2297 -0.3532
  124fsi     S2 1613   2.966   0.102   3.078 -0.1683 -0.7043  0.1077
  124fsi     O3 1614   2.851   0.009   3.077  0.8610 -0.4191 -0.3878
  124fsi     O4 1615   3.036   0.133   3.196  0.0680  0.2402 -0.6159
  124fsi     F2 1616   3.079   0.026   2.993  0.1429 -0.3489  0.0653
  125fsi     F1 1617   2.773   1.919   2.907 -0.0530  0.2781  0.2293
  125fsi     S1 1618   2.829   1.862   3.045 -0.0132 -0.0434 -0.2547
  125fsi      N 1619   2.902   1.987   3.099  0.4165 -0.3002  0.4470
  125fsi     O1 1620   2.716   1.823   3.130 -0.3297  0.6358 -0.2467
  125fsi     O2 1621   2.916   1.748   3.011 -0.2139  0.2170 -0.3351
  125fsi     S2 1622   2.865   2.097   3.199  0.2385  0.1941  0.0649
  125fsi     O3 1623   2.725   2.111   3.228  0.4249 -0.3049 -0.2380
  125fsi     O4 1624   2.940   2.221   3.182 -0.3553 -0.2636  0.0110
  125fsi     F2 1625   2.913   2.033   3.336 -0.0485  0.7779  0.4943
  126fsi     F1 1626   2.980   0.821   0.940  0.6758 -0.1642 -0.4633
  126fsi     S1 1627   2.930   0.829   0.796 -0.2817  0.2387 -0.4893
  126fsi      N 1628   2.832   0.953   0.791 -0.5698  0.2699  0.2120
  126fsi     O1 1629   3.049   0.850   0.720 -0.3553 -0.3171  0.4669
  126fsi     O2 1630   2.861   0.709   0.777 -0.3442  0.3418  0.1431
  126fsi     S2 1631   2.852   1.101   0.742  0.3075 -0.2130  0.4186
  126fsi     O3 1632   2.993   1.136   0.728  0.2412  0.7972 -0.1687
  126fsi     O4 1633   2.767   1.195   0.811 -0.0910 -0.1759  0.5065
  126fsi     F2 1634   2.801   1.097   0.595  0.0995  0.1686  0.4426
  127fsi     F1 1635   2.406   0.983   1.619 -0.4975 -0.0698  0.3285
  127fsi     S1 1636   2.321   0.924   1.495 -0.2068  0.2413  0.0121
  127fsi      N 1637   2.330   1.037   1.389  0.5067 -0.3512 -0.4871
  127fsi     O1 1638   2.389   0.807   1.452  0.0533  0.1490  0.0381
  127fsi     O2 1639   2.192   0.913   1.555 -0.1882  0.6672 -0.1705
  127fsi     S2 1640   2.238   1.070   1.273  0.2056  0.4841  0.1137
  127fsi     O3 1641   2.228   1.213   1.261  0.2899 -0.6136  0.1921
  127fsi     O4 1642   2.114   0.998   1.269 -0.1294  0.3336  0.3374
  127fsi     F2 1643   2.315   1.018   1.145  0.5208 -0.0758  0.1345
  128fsi     F1 1644   0.749   0.918   1.718  0.5571  0.0730 -0.1010
  128fsi     S1 1645   0.892   0.970   1.661  0.4225 -0.3747  0.0206
  128fsi      N 1646   0.968   0.842   1.668  0.1546  0.1210 -0.0201
  128fsi     O1 1647   0.875   1.014   1.529  0.4918 -0.0816 -0.3994
  128fsi     O2 1648   0.929   1.065   1.761  1.1330 -0.3357 -0.4317
  128fsi     S2 1649   1.064   0.779   1.778  0.1996  0.3944  0.4183
  128fsi     O3 1650   1.065   0.845   1.908 -0.9072  0.1236  0.0541
  128fsi     O4 1651   1.191   0.757   1.718 -0.5616  0.7236  0.7431
  128fsi     F2 1652   1.003   0.637   1.805 -0.5559  0.1450 -0.2776
  129fsi     F1 1653   0.314   1.347   0.438  0.0433 -0.1086  0.6127
  129fsi     S1 1654   0.375   1.208   0.471 -0.2304 -0.2272  0.2039
  129fsi      N 1655   0.334   1.125   0.350 -0.2685 -0.3090  0.1339
  129fsi     O1 1656   0.516   1.220   0.476  0.3949  0.4326 -0.2060
  129fsi     O2 1657   0.314   1.172   0.600 -0.1427 -0.2105  0.6611
  129fsi     S2 1658   0.211   1.032   0.335 -0.5526  0.3330  0.3493
  129fsi     O3 1659   0.169   0.998   0.204  0.0328  0.3345 -0.2063
  129fsi     O4 1660   0.111   1.060   0.431 -0.4222  0.2983 -0.4533
  129fsi     F2 1661   0.267   0.896   0.381  0.2744 -0.3200 -0.6361
  130fsi     F1 1662   0.443   2.172   2.842  0.3026 -0.5731 -0.0116
  130fsi     S1 1663   0.504   2.267   2.953  0.2989 -0.1764  0.1933
  130fsi      N 1664   0.378   2.323   3.026 -0.5267 -0.2783  1.1602
  130fsi     O1 1665   0.580   2.185   3.041  0.0717  0.6844  0.0182
  130fsi     O2 1666   0.576   2.363   2.877 -0.0525 -0.1044  0.2698
  130fsi     S2 1667   0.272   2.441   2.978  0.3573  0.1488  0.3229
  130fsi     O3 1668   0.147   2.425   3.039  0.6147 -0.1442  0.1064
  130fsi     O4 1669   0.274   2.471   2.837  0.1535  0.5074 -0.2546
  130fsi     F2 1670   0.321   2.574   3.034  0.2312 -0.0414 -0.4640
  131fsi     F1 1671   2.921   2.347   1.383 -0.2651  0.5737 -0.2125
  131fsi     S1 1672   2.817   2.411   1.283  0.4405  0.0460  0.3947
  131fsi      N 1673   2.697   2.454   1.382 -0.4960 -0.7029  0.3916
  131fsi     O1 1674   2.885   2.519   1.217 -0.1769 -0.0063  0.2692
  131fsi     O2 1675   2.783   2.300   1.206 -0.0282  0.5013  0.6204
  131fsi     S2 1676   2.708   2.567   1.493  0.1100  0.4547  0.3492
  131fsi     O3 1677   2.649   2.688   1.460  0.3632 -0.5532 -0.4905
  131fsi     O4 1678   2.837   2.571   1.556  0.8743 -0.6011 -0.0746
  131fsi     F2 1679   2.612   2.506   1.603  0.4078  0.8224 -0.1916
  132fsi     F1 1680   1.144   1.699   2.769 -0.0772 -0.2113  0.2445
  132fsi     S1 1681   1.199   1.659   2.622  0.1084  0.1221  0.1455
  132fsi      N 1682   1.299   1.778   2.601 -0.7242 -1.2654  0.1674
  132fsi     O1 1683   1.267   1.532   2.636 -0.6785  0.1292 -0.4526
  132fsi     O2 1684   1.083   1.659   2.542 -0.2166  0.1068 -0.3369
  132fsi     S2 1685   1.277   1.918   2.537 -0.2289  0.3015 -0.2495
  132fsi     O3 1686   1.182   1.909   2.427  0.5127 -0.2851  0.1062
  132fsi     O4 1687   1.397   1.992   2.499  0.2807  0.1466  0.7621
  132fsi     F2 1688   1.218   1.993   2.665 -0.3843 -0.0530  0.5478
  133fsi     F1 1689   1.324   2.470   1.571 -0.0900 -0.4459 -0.3628
  133fsi     S1 1690   1.211   2.547   1.652 -0.1752 -0.1028 -0.1367
  133fsi      N 1691   1.176   2.454   1.771 -0.0550  0.6591  0.1804
  133fsi     O1 1692   1.274   2.671   1.688  0.1969 -0.0772 -0.3161
  133fsi     O2 1693   1.096   2.553   1.567 -0.9926  0.1404 -0.1499
  133fsi     S2 1694   1.261   2.430   1.904  0.0195  0.1230  0.4698
  133fsi     O3 1695   1.382   2.502   1.914 -0.0187 -0.0566 -0.4884
  133fsi     O4 1696   1.256   2.290   1.944 -0.4692 -0.2571 -0.9764
  133fsi     F2 1697   1.176   2.505   2.012  0.1667  0.2076 -0.6327
  134fsi     F1 1698   2.053   0.193   1.478  0.1582  0.1348  0.3773
  134fsi     S1 1699   1.927   0.126   1.529 -0.1599 -0.1161 -0.1232
  134fsi      N 1700   1.819   0.194   1.436 -0.1942 -0.1755 -0.3070
  134fsi     O1 1701   1.946  -0.016   1.505 -0.2578  0.5155  0.3370
  134fsi     O2 1702   1.904   0.171   1.664  0.0250  0.3166 -0.3111
  134fsi     S2 1703   1.779   0.148   1.292 -0.0496 -0.0207  0.1801
  134fsi     O3 1704   1.843   0.032   1.238  0.4993 -0.0604  0.1733
  134fsi     O4 1705   1.763   0.258   1.203 -0.1667  0.7770  0.0044
  134fsi     F2 1706   1.631   0.103   1.328  0.5090 -0.1021 -0.3620
  135fsi     F1 1707   1.504   0.385   0.883  0.0122 -0.2960  0.3732
  135fsi     S1 1708   1.419   0.470   0.988 -0.1434  0.2483  0.2472
  135fsi      N 1709   1.357   0.354   1.063 -0.9215  0.4875 -0.0506
  135fsi     O1 1710   1.515   0.551   1.057 -0.0124 -0.5392 -0.2797
  135fsi     O2 1711   1.318   0.534   0.909  0.0498  0.2819 -0.1032
  135fsi     S2 1712   1.368   0.311   1.218 -0.1089  0.2595  0.1092
  135fsi     O3 1713   1.473   0.376   1.289 -0.4194  0.4615  0.1763
  135fsi     O4 1714   1.357   0.168   1.228 -0.0907 -0.0356 -0.2541
  135fsi     F2 1715   1.238   0.373   1.265  0.2741 -0.4256 -0.3813
  136fsi     F1 1716   1.193   1.322   1.150 -0.0824 -0.2095 -0.1800
  136fsi     S1 1717   1.284   1.356   1.025  0.1131 -0.1214  0.0787
  136fsi      N 1718   1.384   1.242   1.022 -0.6309 -0.0279 -0.0140
  136fsi     O1 1719   1.191   1.352   0.913 -0.5712  0.3742 -0.2627
  136fsi     O2 1720   1.336   1.487   1.065 -0.3273  0.2209 -0.9555
  136fsi     S2 1721   1.418   1.152   0.900  0.0736  0.1247  0.1042
  136fsi     O3 1722   1.479   1.220   0.787 -0.0186 -0.2620 -0.3601
  136fsi     O4 1723   1.306   1.058   0.879  0.2291 -0.0162  0.5170
  136fsi     F2 1724   1.532   1.054   0.961  0.0432  0.7324 -0.1040
  137fsi     F1 1725   2.654   2.547   2.116  0.4964  0.5358  0.1549
  137fsi     S1 1726   2.751   2.663   2.135 -0.1445 -0.4440  0.3824
  137fsi      N 1727   2.691   2.780   2.035  0.2391  0.0139  0.3111
  137fsi     O1 1728   2.729   2.700   2.272 -0.5078  0.0231 -0.3539
  137fsi     O2 1729   2.877   2.599   2.104 -0.6846 -0.3116 -0.1593
  137fsi     S2 1730   2.711   2.788   1.879  0.4138  0.1642 -0.1574
  137fsi     O3 1731   2.593   2.754   1.807  0.1262 -0.0336 -0.3061
  137fsi     O4 1732   2.834   2.726   1.831  0.2045  0.5983 -0.5730
  137fsi     F2 1733   2.729   2.936   1.856 -0.0165 -0.2687 -0.3424
  138fsi     F1 1734   0.509   2.654   2.445  0.3641 -0.3036 -0.5920
  138fsi     S1 1735   0.543   2.538   2.548  0.2459  0.3216 -0.1549
  138fsi      N 1736   0.431   2.425   2.533 -0.0557 -0.3287 -0.0148
  138fsi     O1 1737   0.675   2.493   2.505  0.2566 -0.3050 -0.9561
  138fsi     O2 1738   0.524   2.591   2.677 -0.4782 -0.1641 -1.1212
  138fsi     S2 1739   0.433   2.289   2.454  0.1003 -0.5980 -0.1698
  138fsi     O3 1740   0.309   2.221   2.452 -0.2046 -0.5122  0.1288
  138fsi     O4 1741   0.562   2.229   2.476 -0.0228  0.6947  0.0638
  138fsi     F2 1742   0.445   2.349   2.313 -0.6798 -0.2603 -0.3132
  139fsi     F1 1743   2.997   2.343   2.274  0.4668  0.2700  0.6762
  139fsi     S1 1744   2.961   2.382   2.418  0.0699 -0.2132 -0.1919
  139fsi      N 1745   3.081   2.482   2.457 -0.8926  0.4267 -0.6614
  139fsi     O1 1746   2.834   2.437   2.403 -0.2586 -0.1051  0.1139
  139fsi     O2 1747   2.971   2.253   2.485  0.3657 -0.4328 -0.4469
  139fsi     S2 1748   3.087   2.645   2.458 -0.0541  0.2308 -0.3141
  139fsi     O3 1749   3.210   2.687   2.525 -0.3679  0.0571 -0.1629
  139fsi     O4 1750   2.961   2.705   2.497  0.4114 -0.1383  0.6214
  139fsi     F2 1751   3.104   2.687   2.306  0.2958 -0.0978  0.0121
  140fsi     F1 1752   1.517   2.623   2.738  0.1636  0.5987 -0.3194
  140fsi     S1 1753   1.432   2.746   2.700 -0.1042 -0.5140  0.0018
  140fsi      N 1754   1.333   2.694   2.590 -0.3382  0.3565 -0.3796
  140fsi     O1 1755   1.365   2.779   2.825  0.2691 -0.3136  0.3852
  140fsi     O2 1756   1.529   2.841   2.655 -0.2426 -0.2179  0.2723
  140fsi     S2 1757   1.196   2.617   2.617 -0.0782  0.2676 -0.8118
  140fsi     O3 1758   1.083   2.686   2.561  0.7417  0.0639 -0.2666
  140fsi     O4 1759   1.178   2.563   2.752  0.1168 -0.1971  0.5664
  140fsi     F2 1760   1.208   2.483   2.523  0.0695  0.3829 -0.0830
  141fsi     F1 1761   2.503   0.484   2.786  0.0629 -0.4025 -0.2582
  141fsi     S1 1762   2.395   0.375   2.799 -0.4302  0.0492  0.1411
  141fsi      N 1763   2.274   0.425   2.711 -0.2695  0.5486 -0.4160
  141fsi     O1 1764   2.456   0.251   2.746  0.1620 -0.4365 -0.0095
  141fsi     O2 1765   2.368   0.371   2.943  0.4936 -0.0789  0.2802
  141fsi     S2 1766   2.255   0.422   2.560 -0.1500 -0.0538 -0.3391
  141fsi     O3 1767   2.376   0.377   2.491 -0.4075  0.2007 -0.1393
  141fsi     O4 1768   2.199   0.552   2.528 -0.2122 -0.0969 -0.1146
  141fsi     F2 1769   2.149   0.314   2.534 -0.1651  0.0884  0.4750
  142fsi     F1 1770   1.362   2.624   2.225  0.4071 -0.4081  0.3103
  142fsi     S1 1771   1.374   2.772   2.166 -0.4727  0.3941  0.5069
  142fsi      N 1772   1.234   2.797   2.082 -0.4250  0.3549 -0.5976
  142fsi     O1 1773   1.393   2.844   2.288  0.1614 -0.0416 -0.2516
  142fsi     O2 1774   1.486   2.752   2.079 -0.1614  0.1835 -0.3446
  142fsi     S2 1775   1.098   2.854   2.135  0.0608  0.3849 -0.3656
  142fsi     O3 1776   1.073   2.995   2.111 -0.0488 -0.0358 -0.0204
  142fsi     O4 1777   1.064   2.807   2.268  0.1517 -0.3688 -0.0816
  142fsi     F2 1778   1.003   2.779   2.043 -0.4055 -0.5156 -0.3253
  143fsi     F1 1779   0.583   0.626   1.360 -0.0744 -0.4136  0.2894
  143fsi     S1 1780   0.699   0.672   1.449 -0.3985 -0.3534  0.2739
  143fsi      N 1781   0.822   0.584   1.405 -0.5241  1.3145 -0.7201
  143fsi     O1 1782   0.698   0.816   1.414 -0.0965 -0.2172 -0.0850
  143fsi     O2 1783   0.658   0.648   1.581 -0.6302 -0.6315 -0.8710
  143fsi     S2 1784   0.885   0.453   1.471 -0.1789  0.3634 -0.2942
  143fsi     O3 1785   0.844   0.429   1.606 -0.0262 -0.1650  0.2418
  143fsi     O4 1786   1.029   0.429   1.446  0.0175  0.5178 -0.6705
  143fsi     F2 1787   0.823   0.337   1.395  0.1610 -0.1948 -0.2773
  144fsi     F1 1788   1.058   1.684   0.306  0.4856  0.3398 -0.2795
  144fsi     S1 1789   1.060   1.630   0.156 -0.3957 -0.1816 -0.0332
  144fsi      N 1790   0.914   1.586   0.119 -1.1030  0.0469 -0.2806
  144fsi     O1 1791   1.104   1.752   0.091  0.1895  0.1937 -0.1631
  144fsi     O2 1792   1.157   1.523   0.162 -0.0190 -0.2963  0.0920
  144fsi     S2 1793   0.839   1.456   0.173 -0.1505  0.3158  0.2200
  144fsi     O3 1794   0.889   1.398   0.294  0.3038 -0.2540  0.5221
  144fsi     O4 1795   0.789   1.371   0.072 -0.1192  0.2528 -0.2591
  144fsi     F2 1796   0.704   1.523   0.221  0.1762 -0.1206 -0.3059
  145fsi     F1 1797   1.757   0.294   2.547  0.4071 -0.5352 -0.2866
  145fsi     S1 1798   1.750   0.372   2.690  0.1622 -0.2226 -0.1114
  145fsi      N 1799   1.682   0.506   2.653  0.8984  0.3534  0.0906
  145fsi     O1 1800   1.670   0.286   2.779 -0.3138  0.1701  0.0766
  145fsi     O2 1801   1.888   0.394   2.724 -0.6535  0.4211 -0.1058
  145fsi     S2 1802   1.544   0.563   2.697  0.1727 -0.3102 -0.3711
  145fsi     O3 1803   1.436   0.469   2.690 -0.4532 -0.0801 -1.2018
  145fsi     O4 1804   1.520   0.698   2.647 -0.1585 -0.0066 -0.1594
  145fsi     F2 1805   1.558   0.594   2.848 -0.1251 -0.2453  0.1902
  146fsi     F1 1806   1.879   1.454   0.057  0.1463 -0.2000 -0.1807
  146fsi     S1 1807   2.007   1.538   0.085 -0.3466 -0.3439  0.3482
  146fsi      N 1808   1.960   1.648   0.187  0.9053  0.6338  0.4309
  146fsi     O1 1809   2.100   1.445   0.137 -0.5255  0.0861  0.5008
  146fsi     O2 1810   2.028   1.586  -0.048  0.4475  0.2460 -0.3804
  146fsi     S2 1811   1.936   1.797   0.163 -0.5691  0.0856 -0.0375
  146fsi     O3 1812   1.794   1.823   0.152 -0.6052 -0.0268 -0.4374
  146fsi     O4 1813   2.024   1.855   0.067 -0.3506 -0.2707 -0.1691
  146fsi     F2 1814   1.982   1.859   0.304  0.2460  0.3708 -0.0612
  147fsi     F1 1815   2.761   0.079   1.219 -0.0347  0.2354 -0.3722
  147fsi     S1 1816   2.840  -0.054   1.208  0.3892 -0.1791  0.2152
  147fsi      N 1817   2.945  -0.034   1.324  0.2468 -1.0283  0.3755
  147fsi     O1 1818   2.746  -0.156   1.239 -0.4530  0.6191  0.3379
  147fsi     O2 1819   2.902  -0.045   1.080  0.1187  0.1562  0.4988
  147fsi     S2 1820   2.923  -0.029   1.479 -0.0646 -0.2765 -0.2042
  147fsi     O3 1821   2.787  -0.038   1.516  0.2326  0.1029  0.1549
  147fsi     O4 1822   2.999   0.074   1.545  0.2904 -0.3221  0.0480
  147fsi     F2 1823   2.986  -0.168   1.537  0.0730  0.2027  0.4185
  148fsi     F1 1824   1.147   0.795   0.048 -0.0332 -0.2530  0.1368
  148fsi     S1 1825   1.155   0.749  -0.103  0.1743  0.4193  0.2011
  148fsi      N 1826   1.030   0.654  -0.122  0.1448 -0.0037  0.8377
  148fsi     O1 1827   1.156   0.874  -0.177  0.4202 -0.6363  0.2226
  148fsi     O2 1828   1.282   0.683  -0.110 -0.7883 -0.2527  0.5692
  148fsi     S2 1829   0.902   0.668  -0.218  0.1520  0.2401  0.0054
  148fsi     O3 1830   0.861   0.801  -0.251 -0.5692  0.0755 -0.2217
  148fsi     O4 1831   0.799   0.580  -0.177  0.0756 -0.0108 -0.4577
  148fsi     F2 1832   0.952   0.606  -0.352  0.4621 -0.3928  0.0375
  149fsi     F1 1833   0.574   2.635   2.149 -0.5273 -0.0052  0.4335
  149fsi     S1 1834   0.698   2.743   2.143 -0.0462  0.3875 -0.1780
  149fsi      N 1835   0.638   2.878   2.186 -0.1074 -0.5516 -0.5837
  149fsi     O1 1836   0.791   2.688   2.238  0.5864  0.1223  0.0236
  149fsi     O2 1837   0.744   2.743   2.005  0.4297 -0.3179 -0.0072
  149fsi     S2 1838   0.684   2.987   2.299 -0.0085 -0.3075  0.1398
  149fsi     O3 1839   0.648   3.117   2.259  0.2931 -0.6678  0.1772
  149fsi     O4 1840   0.811   2.963   2.367  0.2082  0.1324  0.1375
  149fsi     F2 1841   0.581   2.954   2.415  0.6868  0.0137  0.1210
  150fsi     F1 1842   0.838   1.464   2.008 -0.0406  0.6669  0.2500
  150fsi     S1 1843   0.965   1.394   2.072  0.5049  0.0798  0.0218
  150fsi      N 1844   0.925   1.241   2.065 -0.8511 -0.5372  0.3990
  150fsi     O1 1845   1.068   1.418   1.974 -0.2376  0.6942 -0.2818
  150fsi     O2 1846   0.970   1.437   2.211  0.1894  0.0554 -0.1326
  150fsi     S2 1847   0.813   1.168   2.149  0.2974  0.1500  0.5543
  150fsi     O3 1848   0.758   1.243   2.254 -0.3679 -0.3485  0.2125
  150fsi     O4 1849   0.847   1.025   2.171  0.3979  0.2691 -0.0790
  150fsi     F2 1850   0.695   1.158   2.044 -0.1346  0.2212 -0.1536
  151fsi     F1 1851   2.599   1.163   1.998  0.0732 -0.2108  0.3090
  151fsi     S1 1852   2.569   1.305   2.048  0.0931 -0.1200 -0.2457
  151fsi      N 1853   2.623   1.301   2.193 -0.0912  0.9877  0.1295
  151fsi     O1 1854   2.643   1.393   1.962 -0.0661  0.3264 -0.2616
  151fsi     O2 1855   2.424   1.312   2.045 -0.1778 -0.0775  0.6677
  151fsi     S2 1856   2.568   1.373   2.322  0.0408  0.3312  0.3996
  151fsi     O3 1857   2.538   1.289   2.433 -0.3057  0.2893  0.2828
  151fsi     O4 1858   2.471   1.473   2.293  0.4402 -0.3704 -0.0155
  151fsi     F2 1859   2.696   1.451   2.364 -0.1267 -0.1710 -0.5232
  152fsi     F1 1860   1.239   0.645   2.589  0.4225  0.1584  0.1524
  152fsi     S1 1861   1.232   0.758   2.482  0.0342  0.4166 -0.5157
  152fsi      N 1862   1.330   0.715   2.367  0.1143 -1.2747  0.4804
  152fsi     O1 1863   1.096   0.751   2.447 -0.4392 -0.2542  0.4189
  152fsi     O2 1864   1.287   0.864   2.562  0.1733 -0.3081 -0.2396
  152fsi     S2 1865   1.325   0.713   2.209 -0.0096  0.0129 -0.6163
  152fsi     O3 1866   1.206   0.772   2.151 -0.2313  0.2316  0.4471
  152fsi     O4 1867   1.378   0.596   2.151 -0.1403 -0.1950  0.5923
  152fsi     F2 1868   1.434   0.820   2.184 -0.1675  0.3352  0.3540
  153fsi     F1 1869   1.600   1.296   2.425 -0.4503 -0.0665  0.2142
  153fsi     S1 1870   1.613   1.397   2.300 -0.3526 -0.1920 -0.0102
  153fsi      N 1871   1.482   1.482   2.331  0.1161 -0.8263  0.2077
  153fsi     O1 1872   1.739   1.462   2.323 -0.2802  0.1522  0.4892
  153fsi     O2 1873   1.600   1.307   2.184 -0.3075  0.1846 -0.4973
  153fsi     S2 1874   1.380   1.544   2.222 -0.0782  0.2909 -0.0602
  153fsi     O3 1875   1.453   1.611   2.120 -0.2399  0.5652  0.0163
  153fsi     O4 1876   1.271   1.615   2.282  0.4219  0.0060 -0.3994
  153fsi     F2 1877   1.313   1.423   2.152 -0.4294 -0.2839  0.8033
  154fsi     F1 1878   0.425   1.858   2.155 -0.0375 -0.2815  0.2373
  154fsi     S1 1879   0.445   1.834   2.316 -0.2027 -0.2672  0.3147
  154fsi      N 1880   0.597   1.801   2.322  0.2196  0.1403  0.5492
  154fsi     O1 1881   0.404   1.963   2.367 -0.0682 -0.8500 -0.2025
  154fsi     O2 1882   0.356   1.724   2.339 -0.3973 -0.0904  0.0074
  154fsi     S2 1883   0.667   1.667   2.361  0.5827 -0.0882 -0.0216
  154fsi     O3 1884   0.598   1.581   2.451  0.2044 -0.2700  0.4438
  154fsi     O4 1885   0.811   1.680   2.387  0.1122 -0.5904 -0.0425
  154fsi     F2 1886   0.667   1.578   2.232 -0.0000 -0.2157 -0.4651
  155fsi     F1 1887   0.176   2.154   0.313 -0.3702 -0.3310  0.1232
  155fsi     S1 1888   0.234   2.247   0.425  0.2097 -0.0744  0.0400
  155fsi      N 1889   0.106   2.295   0.497  0.9956 -0.1918  0.1255
  155fsi     O1 1890   0.307   2.168   0.520  0.0097 -0.3433 -1.1367
  155fsi     O2 1891   0.315   2.347   0.358  0.9922 -0.0595 -0.2963
  155fsi     S2 1892   0.022   2.433   0.487 -0.2187  0.1583  0.4938
  155fsi     O3 1893  -0.106   2.425   0.548 -0.3918  0.2206  0.0372
  155fsi     O4 1894   0.036   2.499   0.361 -0.0339  0.1492  0.3482
  155fsi     F2 1895   0.103   2.526   0.581  0.3463  0.0749 -0.7318
  156fsi     F1 1896   0.032   1.997   1.343  0.3506  0.2546 -0.4926
  156fsi     S1 1897  -0.048   1.856   1.381  0.2794 -0.2518  0.1245
  156fsi      N 1898   0.042   1.790   1.490  0.2079 -0.0142 -0.0827
  156fsi     O1 1899  -0.174   1.907   1.435  1.0362  0.0801  0.3946
  156fsi     O2 1900  -0.051   1.787   1.257  0.1000 -0.6109 -0.1286
  156fsi     S2 1901  -0.001   1.717   1.618 -0.0144 -0.0711 -0.1309
  156fsi     O3 1902   0.107   1.641   1.678 -0.2416 -0.2738  0.5682
  156fsi     O4 1903  -0.128   1.654   1.617  0.2688  0.7221  0.3188
  156fsi     F2 1904  -0.034   1.838   1.713 -0.3197 -0.0314  0.0932
  157fsi     F1 1905   0.733   2.643   0.286 -0.2335 -0.3533 -0.1992
  157fsi     S1 1906   0.692   2.529   0.179  0.1087 -0.2625  0.3529
  157fsi      N 1907   0.823   2.453   0.154 -0.8181  0.6046  0.5035
  157fsi     O1 1908   0.599   2.449   0.254  0.0532  0.3078 -0.5495
  157fsi     O2 1909   0.634   2.600   0.067  0.3364 -0.2155  0.3006
  157fsi     S2 1910   0.915   2.458   0.024 -0.3283  0.0293  0.3883
  157fsi     O3 1911   1.049   2.502   0.051 -0.0573  0.0473 -0.1085
  157fsi     O4 1912   0.854   2.516  -0.094  0.0403 -0.4529  0.0077
  157fsi     F2 1913   0.930   2.308  -0.005 -0.4525  0.0229 -0.4874
  158fsi     F1 1914   0.658   0.407   2.448 -0.1040 -0.0488  0.5543
  158fsi     S1 1915   0.582   0.507   2.535 -0.0557 -0.2220  0.2029
  158fsi      N 1916   0.681   0.636   2.527 -0.2480  0.1250  0.3471
  158fsi     O1 1917   0.460   0.517   2.458  0.0294 -0.1886 -0.2445
  158fsi     O2 1918   0.567   0.455   2.668  0.0840 -0.6872 -0.0947
  158fsi     S2 1919   0.669   0.770   2.460 -0.1541  0.2871 -0.0818
  158fsi     O3 1920   0.552   0.776   2.377  0.4018  0.1453  0.5387
  158fsi     O4 1921   0.799   0.818   2.419  0.1246  0.8257 -0.0942
  158fsi     F2 1922   0.638   0.867   2.581  0.2515  0.3241  0.0643
  159fsi     F1 1923   2.903   0.025   0.735  0.0977 -0.1883 -0.3126
  159fsi     S1 1924   2.848   0.159   0.670  0.0199  0.1799  0.2004
  159fsi      N 1925   2.768   0.215   0.792  0.1724 -0.4290  0.1183
  159fsi     O1 1926   2.966   0.233   0.634  0.0340  0.5251  0.5608
  159fsi     O2 1927   2.768   0.114   0.562  0.4266 -0.1225  0.3198
  159fsi     S2 1928   2.614   0.222   0.827 -0.2107 -0.2240  0.2451
  159fsi     O3 1929   2.549   0.115   0.756  0.4349  0.4405 -0.0164
  159fsi     O4 1930   2.547   0.352   0.818  0.2248 -0.2455  0.0828
  159fsi     F2 1931   2.613   0.188   0.981 -0.5676  0.6384  0.3414
  160fsi     F1 1932   2.072   1.813   1.207 -0.1066 -0.5218 -0.0539
  160fsi     S1 1933   2.014   1.857   1.339  0.1013 -0.1829 -0.2568
  160fsi      N 1934   1.893   1.759   1.364 -0.0067  0.5767 -0.3334
  160fsi     O1 1935   2.116   1.827   1.432 -0.5266  0.3744  0.0838
  160fsi     O2 1936   1.975   1.992   1.318  0.5921 -0.5150 -0.2884
  160fsi     S2 1937   1.737   1.789   1.348 -0.3866 -0.2605 -0.0648
  160fsi     O3 1938   1.662   1.663   1.358  0.1878  0.4030 -0.4524
  160fsi     O4 1939   1.709   1.871   1.233 -0.4069  0.0365  0.1935
  160fsi     F2 1940   1.697   1.875   1.471 -0.0420 -0.5938 -0.2663
  161fsi     F1 1941   0.740   0.924   0.876 -0.3477 -0.1681  0.5009
  161fsi     S1 1942   0.638   1.006   0.959  0.0151  0.2037 -0.3134
  161fsi      N 1943   0.725   1.135   0.995 -0.3076 -0.0204  0.7858
  161fsi     O1 1944   0.530   1.031   0.864  0.1269  0.1382 -0.0128
  161fsi     O2 1945   0.609   0.916   1.071  0.1463 -0.3100  0.1111
  161fsi     S2 1946   0.786   1.189   1.122 -0.5205 -0.3402 -0.0013
  161fsi     O3 1947   0.751   1.119   1.244  0.5399 -0.2109  0.3488
  161fsi     O4 1948   0.800   1.332   1.123  0.6785  0.3524  0.2383
  161fsi     F2 1949   0.936   1.147   1.102 -0.6637 -0.0732 -0.1902
  162fsi     F1 1950   1.706   1.917   0.438 -0.4785 -0.0946  0.2303
  162fsi     S1 1951   1.597   1.928   0.546 -0.2757  0.0210 -0.5240
  162fsi      N 1952   1.472   1.872   0.472  0.7110 -0.1298 -0.4362
  162fsi     O1 1953   1.637   1.833   0.646  0.1005 -0.2831 -0.0234
  162fsi     O2 1954   1.605   2.068   0.580  0.1225 -0.0912  0.6366
  162fsi     S2 1955   1.323   1.931   0.468  0.0296 -0.1803  0.4258
  162fsi     O3 1956   1.264   1.918   0.337 -0.6993 -0.3816 -0.3865
  162fsi     O4 1957   1.295   2.047   0.544 -0.5641 -0.3317 -0.1358
  162fsi     F2 1958   1.245   1.829   0.546  0.2065  0.3838 -0.0818
  163fsi     F1 1959   0.524   1.843   0.224 -0.5107 -0.6544 -0.2617
  163fsi     S1 1960   0.412   1.945   0.255 -0.1646 -0.2472 -0.3127
  163fsi      N 1961   0.355   1.876   0.380 -0.3553 -0.2162  1.1105
  163fsi     O1 1962   0.483   2.060   0.296 -0.7456  0.2021 -0.3079
  163fsi     O2 1963   0.327   1.949   0.137  0.1165  0.1140 -0.0633
  163fsi     S2 1964   0.222   1.793   0.397  0.0561 -0.2510 -0.1462
  163fsi     O3 1965   0.126   1.830   0.295 -0.0676 -1.1119 -0.1617
  163fsi     O4 1966   0.171   1.795   0.531  0.6025  0.4095 -1.2928
  163fsi     F2 1967   0.263   1.640   0.375 -0.0546 -0.1518  0.2907
  164fsi     F1 1968   0.464   1.300   0.141  0.3247 -0.1131  0.5101
  164fsi     S1 1969   0.398   1.288   0.002  0.0637  0.0966 -0.1631
  164fsi      N 1970   0.288   1.392   0.026 -0.3912 -0.2970  0.6116
  164fsi     O1 1971   0.493   1.323  -0.099  0.7344 -0.0375  0.0220
  164fsi     O2 1972   0.360   1.151   0.001  0.3124  0.0974  0.5502
  164fsi     S2 1973   0.260   1.532  -0.040  0.1115 -0.6037 -0.2320
  164fsi     O3 1974   0.352   1.579  -0.140  0.1241  0.1199 -0.3013
  164fsi     O4 1975   0.208   1.620   0.057  0.5448  0.1483  0.4400
  164fsi     F2 1976   0.133   1.493  -0.117  0.1541 -0.3795  0.1471
  165fsi     F1 1977   1.475   1.469   1.870  0.0357  0.4015  0.1044
  165fsi     S1 1978   1.524   1.363   1.775 -0.0807 -0.1126  0.4061
  165fsi      N 1979   1.402   1.263   1.776  0.4387 -0.3191 -0.0959
  165fsi     O1 1980   1.532   1.425   1.644  0.1951  0.1464  0.1333
  165fsi     O2 1981   1.641   1.310   1.843  0.1510 -0.0390 -0.0677
  165fsi     S2 1982   1.380   1.131   1.861  0.5500  0.0141  0.0741
  165fsi     O3 1983   1.241   1.127   1.908  0.4807  0.2179  0.1295
  165fsi     O4 1984   1.486   1.105   1.951 -0.0812  0.5633 -0.1895
  165fsi     F2 1985   1.391   1.020   1.757 -0.3559  0.1461  0.3246
  166fsi     F1 1986   0.243   0.457   1.407  0.0082  0.0083  0.2825
  166fsi     S1 1987   0.228   0.611   1.420  0.1723 -0.2306  0.0269
  166fsi      N 1988   0.322   0.646   1.541 -0.1921  0.1482  0.4176
  166fsi     O1 1989   0.287   0.649   1.295  0.3772  0.2868  0.3670
  166fsi     O2 1990   0.089   0.642   1.424 -0.2218  0.5774  0.0144
  166fsi     S2 1991   0.313   0.731   1.672 -0.1352 -0.1839  0.7091
  166fsi     O3 1992   0.365   0.661   1.787 -0.0319  0.5708  0.4702
  166fsi     O4 1993   0.189   0.807   1.689 -0.2465 -0.2112  0.0922
  166fsi     F2 1994   0.420   0.841   1.649  0.0168  0.2154 -0.4795
  167fsi     F1 1995   0.907   0.685   0.456 -0.0969  0.1464  0.3222
  167fsi     S1 1996   1.008   0.610   0.369 -0.2246  0.1064 -0.4167
  167fsi      N 1997   0.923   0.563   0.244 -0.0698  0.1272  0.3009
  167fsi     O1 1998   1.105   0.709   0.331 -0.1757 -0.1330 -0.5954
  167fsi     O2 1999   1.062   0.505   0.449  0.6633  0.2279 -0.4012
  167fsi     S2 2000   0.808   0.462   0.233 -0.0889  0.2017 -0.0220
  167fsi     O3 2001   0.775   0.440   0.095  0.0470 -0.4187 -0.1576
  167fsi     O4 2002   0.696   0.490   0.316 -0.1033  0.3593  0.2072
  167fsi     F2 2003   0.856   0.328   0.292 -0.2678 -0.2591 -0.3187
  168fsi     F1 2004   0.947   2.696   1.209  0.1659  0.3496  0.1057
  168fsi     S1 2005   0.984   2.775   1.074 -0.3453 -0.4142  0.1300
  168fsi      N 2006   1.093   2.681   1.013  1.2415  0.3019  0.7697
  168fsi     O1 2007   0.857   2.788   1.007  0.0819  0.5887 -0.3255
  168fsi     O2 2008   1.053   2.897   1.111 -0.2997 -0.0492 -0.0346
  168fsi     S2 2009   1.074   2.593   0.882  0.3290  0.1694 -0.5777
  168fsi     O3 2010   0.965   2.499   0.881 -0.0416 -0.2662  0.1690
  168fsi     O4 2011   1.203   2.562   0.826  0.2092 -0.7002 -0.4092
  168fsi     F2 2012   1.031   2.707   0.776 -0.2012 -0.5145 -0.0220
  169fsi     F1 2013   2.313   1.710   1.096 -0.3629  0.2133 -0.0574
  169fsi     S1 2014   2.281   1.594   0.994 -0.0294 -0.2912 -0.1247
  169fsi      N 2015   2.343   1.462   1.059 -0.0344 -0.0932 -0.5762
  169fsi     O1 2016   2.138   1.594   0.983  0.3110  0.2628 -0.2168
  169fsi     O2 2017   2.353   1.639   0.876 -0.3695  0.4121  0.0011
  169fsi     S2 2018   2.460   1.363   1.012  0.0874  0.0266 -0.4050
  169fsi     O3 2019   2.522   1.287   1.118  0.0116 -0.1732 -0.3736
  169fsi     O4 2020   2.552   1.414   0.916  0.4722  0.3956  0.8237
  169fsi     F2 2021   2.386   1.249   0.933  0.0277  0.2637  0.8796
  170fsi     F1 2022   2.891   0.819   2.739 -0.2544 -0.4218  0.5233
  170fsi     S1 2023   2.907   0.791   2.897  0.3951  0.0388  0.0412
  170fsi      N 2024   2.982   0.921   2.949  0.1482 -0.5088 -0.0977
  170fsi     O1 2025   2.767   0.779   2.939 -0.3268 -0.1818 -0.9931
  170fsi     O2 2026   2.993   0.674   2.897  0.4139  0.0812  0.3811
  170fsi     S2 2027   2.918   1.055   2.974  0.6031 -0.0049  0.2091
  170fsi     O3 2028   2.779   1.066   2.937  0.8947  0.0842 -0.3744
  170fsi     O4 2029   2.993   1.169   2.930 -0.3445 -0.2162  0.3372
  170fsi     F2 2030   2.912   1.075   3.132  0.0709 -0.1599 -0.0219
  171fsi     F1 2031   2.565   0.589   0.065  0.0294  0.4702  0.0340
  171fsi     S1 2032   2.447   0.698   0.099 -0.2422  0.3200 -0.0527
  171fsi      N 2033   2.492   0.752   0.240  0.5011  0.0556 -0.2400
  171fsi     O1 2034   2.455   0.784  -0.019  0.0146  0.5480  0.1394
  171fsi     O2 2035   2.326   0.619   0.102  0.8902  0.1932  0.0730
  171fsi     S2 2036   2.564   0.886   0.277 -0.1407 -0.2649  0.3398
  171fsi     O3 2037   2.654   0.952   0.183  0.0488  0.0531 -0.1692
  171fsi     O4 2038   2.609   0.862   0.416 -0.6343  0.1275  0.3213
  171fsi     F2 2039   2.450   0.987   0.301 -0.5239  0.0929  0.3685
  172fsi     F1 2040   2.289   0.047   1.338  0.1851 -0.4856 -0.2478
  172fsi     S1 2041   2.334  -0.091   1.275 -0.1594  0.0534  0.1237
  172fsi      N 2042   2.381  -0.172   1.394  0.2269  0.4101 -0.2919
  172fsi     O1 2043   2.227  -0.140   1.193 -0.4991 -0.3443  0.2365
  172fsi     O2 2044   2.446  -0.057   1.197 -0.1743  0.3624 -0.0975
  172fsi     S2 2045   2.294  -0.274   1.484  0.3925  0.1373  0.4327
  172fsi     O3 2046   2.160  -0.235   1.491  0.1443  0.0440  0.2665
  172fsi     O4 2047   2.356  -0.317   1.605  0.1783  0.4566  0.3751
  172fsi     F2 2048   2.285  -0.407   1.391 -0.0102  0.2938 -0.2632
  173fsi     F1 2049   0.270   0.317   0.064 -0.0916 -0.1507  0.0031
  173fsi     S1 2050   0.330   0.392  -0.057 -0.2644 -0.0955 -0.3555
  173fsi      N 2051   0.299   0.543  -0.022 -0.1776  0.1812  0.0541
  173fsi     O1 2052   0.463   0.340  -0.068  0.0759 -0.5500  0.4611
  173fsi     O2 2053   0.236   0.360  -0.161  0.0748  0.4185  0.1460
  173fsi     S2 2054   0.377   0.646   0.069  0.2868  0.3457 -0.1450
  173fsi     O3 2055   0.418   0.596   0.195 -0.2821 -0.3262  0.1676
  173fsi     O4 2056   0.322   0.779   0.062  0.2080 -0.2260 -0.3623
  173fsi     F2 2057   0.514   0.658  -0.016  0.5626  0.2413 -0.5634
  174fsi     F1 2058   0.513   0.358   1.440  0.0972 -0.0612 -0.0614
  174fsi     S1 2059   0.479   0.257   1.555  0.1618 -0.1827  0.0096
  174fsi      N 2060   0.369   0.167   1.479  0.1272 -0.4922  0.0369
  174fsi     O1 2061   0.603   0.190   1.586  0.4000  0.1992 -0.9169
  174fsi     O2 2062   0.422   0.338   1.659 -0.6230  0.3542  0.4850
  174fsi     S2 2063   0.393   0.026   1.408 -0.0304 -0.1876 -0.1296
  174fsi     O3 2064   0.347  -0.088   1.486 -0.2479  0.1105  0.5389
  174fsi     O4 2065   0.522   0.008   1.343  0.3197  0.2928 -0.5883
  174fsi     F2 2066   0.294   0.035   1.281  0.2276  0.5230 -0.7237
  175fsi     F1 2067   2.528   1.198   2.695  0.1598 -0.1889  0.6389
  175fsi     S1 2068   2.459   1.079   2.765 -0.0436 -0.3121 -0.0321
  175fsi      N 2069   2.455   1.136   2.913  0.1364  0.0070  0.4134
  175fsi     O1 2070   2.329   1.062   2.704  0.0740 -0.2338  0.2685
  175fsi     O2 2071   2.551   0.972   2.760 -0.2155  0.2888  0.3358
  175fsi     S2 2072   2.345   1.210   2.987  0.1070 -0.3042  0.3292
  175fsi     O3 2073   2.252   1.285   2.910  0.1841 -0.3012 -0.0523
  175fsi     O4 2074   2.393   1.286   3.099  0.3888 -0.0124 -0.6898
  175fsi     F2 2075   2.273   1.096   3.062 -0.5958 -0.0707  0.2288
  176fsi     F1 2076   2.550   2.124   1.119  0.2879  0.0644  0.1819
  176fsi     S1 2077   2.419   2.076   1.053 -0.1901  0.0011 -0.0426
  176fsi      N 2078   2.356   2.207   0.997  0.7479  0.7430  0.3902
  176fsi     O1 2079   2.467   1.993   0.944  0.6339 -0.1154 -0.2034
  176fsi     O2 2080   2.348   2.010   1.159 -0.2294  0.5725  0.2067
  176fsi     S2 2081   2.231   2.288   1.061 -0.7456 -0.1061 -0.0094
  176fsi     O3 2082   2.138   2.211   1.129 -0.2291  0.3279  0.2455
  176fsi     O4 2083   2.178   2.374   0.960  0.0516 -1.1454  0.0097
  176fsi     F2 2084   2.295   2.387   1.163 -0.4720  0.1408  0.0396
  177fsi     F1 2085   1.671   1.052   1.677 -0.2698 -0.4435  0.2556
  177fsi     S1 2086   1.800   1.013   1.747 -0.2114  0.1583  0.4044
  177fsi      N 2087   1.880   1.144   1.760  0.0718 -0.0937  0.2589
  177fsi     O1 2088   1.756   0.968   1.876  0.3296  0.3327 -0.1520
  177fsi     O2 2089   1.860   0.909   1.664  0.0742 -0.0300  0.0428
  177fsi     S2 2090   2.005   1.185   1.681  0.0827 -0.0805  0.0405
  177fsi     O3 2091   2.044   1.324   1.705 -0.6065  0.1572 -0.3655
  177fsi     O4 2092   1.997   1.139   1.546 -0.3183 -0.4708 -0.1127
  177fsi     F2 2093   2.124   1.103   1.747 -0.5702  0.0041 -0.1026
  178fsi     F1 2094   1.177   1.710   1.978  0.0966 -0.1156  0.6863
  178fsi     S1 2095   1.065   1.815   1.995  0.0283 -0.5727  0.0075
  178fsi      N 2096   0.978   1.779   1.868  0.2332  0.0966  0.5822
  178fsi     O1 2097   1.017   1.779   2.126  0.1249 -0.2824 -0.5277
  178fsi     O2 2098   1.134   1.942   1.995  0.0505  0.0633  0.6884
  178fsi     S2 2099   0.826   1.813   1.838  0.1789  0.0992 -0.4266
  178fsi     O3 2100   0.783   1.769   1.706 -0.7232  0.5827 -0.3392
  178fsi     O4 2101   0.788   1.943   1.879 -0.1506 -0.3055  0.3682
  178fsi     F2 2102   0.749   1.727   1.942  0.4187  0.1890  0.4459
  179fsi     F1 2103   0.546   0.365   2.152  0.0111 -0.8619  0.3251
  179fsi     S1 2104   0.460   0.464   2.077 -0.1720  0.2903 -0.3258
  179fsi      N 2105   0.544   0.601   2.115  0.2842 -0.1994 -0.0300
  179fsi     O1 2106   0.469   0.423   1.940  0.0700  0.4713  0.1006
  179fsi     O2 2107   0.337   0.461   2.140  0.7269  0.8936  0.1735
  179fsi     S2 2108   0.661   0.663   2.036 -0.0387  0.4002  0.3746
  179fsi     O3 2109   0.674   0.610   1.900 -0.2116  0.3024  0.1491
  179fsi     O4 2110   0.772   0.685   2.121 -0.0311  0.4214  0.5427
  179fsi     F2 2111   0.598   0.805   2.009  0.2681  0.2617  0.3175
  180fsi     F1 2112   0.710   0.180   2.625  0.1086 -0.7245  0.1734
  180fsi     S1 2113   0.805   0.164   2.751  0.3224  0.3363 -0.1210
  180fsi      N 2114   0.756   0.026   2.816  0.6771 -0.3551 -0.2192
  180fsi     O1 2115   0.937   0.157   2.686 -0.2272 -0.4171 -0.4113
  180fsi     O2 2116   0.781   0.276   2.839  0.2221  0.3523 -0.8516
  180fsi     S2 2117   0.797  -0.122   2.774  0.2487 -0.2405  0.0305
  180fsi     O3 2118   0.836  -0.143   2.636 -0.1502  0.0509 -0.0057
  180fsi     O4 2119   0.701  -0.219   2.824 -0.1628  0.1068 -0.4774
  180fsi     F2 2120   0.931  -0.160   2.856  0.2310  0.3252  0.0222
  181fsi     F1 2121   0.917   1.877   0.630 -0.1678 -0.0337 -0.2839
  181fsi     S1 2122   0.863   2.014   0.576 -0.0092 -0.1790 -0.0784
  181fsi      N 2123   0.955   2.041   0.453  0.0534  0.2194  0.3122
  181fsi     O1 2124   0.733   1.977   0.541  0.0747 -0.1332  0.3035
  181fsi     O2 2125   0.870   2.102   0.688  0.2983 -0.5489 -0.7849
  181fsi     S2 2126   0.923   2.052   0.297  0.1911  0.3192 -0.1517
  181fsi     O3 2127   1.044   2.082   0.225 -0.3098 -0.4509  0.2037
  181fsi     O4 2128   0.804   2.128   0.260  0.2330  0.3437 -0.2515
  181fsi     F2 2129   0.888   1.904   0.265  0.3447 -0.3440 -0.4912
  182fsi     F1 2130   2.526   2.290   0.069  0.0350 -0.2192 -0.0968
  182fsi     S1 2131   2.416   2.181   0.034  0.3411 -0.3672 -0.3094
  182fsi      N 2132   2.316   2.205   0.153 -0.1534 -0.1514  0.1949
  182fsi     O1 2133   2.367   2.221  -0.095 -0.3006  0.0646  0.1081
  182fsi     O2 2134   2.485   2.057   0.044  0.6831 -0.0532 -0.6403
  182fsi     S2 2135   2.298   2.139   0.295  0.2437  0.1312 -0.1419
  182fsi     O3 2136   2.242   2.233   0.383  0.0460 -0.6643 -0.1592
  182fsi     O4 2137   2.408   2.058   0.340  0.1159  0.1743 -0.0952
  182fsi     F2 2138   2.180   2.030   0.266 -0.3742  0.4176 -0.2610
  183fsi     F1 2139   2.515   2.465   0.261  0.2886 -0.5711  0.3931
  183fsi     S1 2140   2.635   2.571   0.251  0.0353  0.1730 -0.1073
  183fsi      N 2141   2.630   2.652   0.390 -0.5405 -0.2964 -0.0759
  183fsi     O1 2142   2.751   2.490   0.222 -0.2818  0.6770 -0.3018
  183fsi     O2 2143   2.591   2.658   0.145  0.0718  0.0788  0.3198
  183fsi     S2 2144   2.708   2.784   0.426 -0.2122  0.0628  0.0588
  183fsi     O3 2145   2.646   2.855   0.538  0.3145 -0.2611  0.3850
  183fsi     O4 2146   2.753   2.860   0.310 -0.2186  0.1109 -0.4297
  183fsi     F2 2147   2.836   2.731   0.498  0.0953 -0.1482  0.1523
  184fsi     F1 2148   2.972   0.705   2.498 -0.4417  0.4511  0.0665
  184fsi     S1 2149   3.101   0.617   2.515 -0.4949  0.2132  0.1128
  184fsi      N 2150   3.160   0.683   2.642 -0.5149 -0.2512 -0.0140
  184fsi     O1 2151   3.048   0.493   2.552  0.2554 -0.6399  0.1278
  184fsi     O2 2152   3.177   0.628   2.395  0.2168  0.1501  0.8880
  184fsi     S2 2153   3.266   0.794   2.661 -0.1242 -0.0054  0.4634
  184fsi     O3 2154   3.239   0.879   2.768  0.7280  0.2696  0.4127
  184fsi     O4 2155   3.319   0.857   2.541 -0.0077  0.0134 -0.3699
  184fsi     F2 2156   3.392   0.703   2.710  0.0479 -0.5751  0.2653
  185fsi     F1 2157   2.047   1.014   2.079  0.1209  0.3792 -0.3236
  185fsi     S1 2158   2.011   1.156   2.127 -0.0821  0.0156 -0.1338
  185fsi      N 2159   2.018   1.132   2.280  0.0456 -0.4640  0.2867
  185fsi     O1 2160   2.109   1.249   2.075 -0.6071 -0.5826  0.5776
  185fsi     O2 2161   1.878   1.171   2.079  0.4017 -0.3280  0.1362
  185fsi     S2 2162   2.143   1.121   2.373 -0.3155  0.1616  0.0941
  185fsi     O3 2163   2.243   1.223   2.345  0.2598 -0.0752  0.0674
  185fsi     O4 2164   2.188   0.984   2.399  0.4217 -0.1193  0.0603
  185fsi     F2 2165   2.096   1.169   2.515  0.3058 -0.0633 -0.1712
  186fsi     F1 2166   1.867   2.633   0.396 -0.6264  0.0404 -0.1813
  186fsi     S1 2167   1.773   2.738   0.328  0.3051  0.0324  0.1927
  186fsi      N 2168   1.728   2.661   0.203  0.2459 -0.0990  0.1059
  186fsi     O1 2169   1.670   2.760   0.428  0.2109  0.4554  0.1520
  186fsi     O2 2170   1.862   2.851   0.310  0.4546  0.0984 -0.9050
  186fsi     S2 2171   1.713   2.704   0.049 -0.1630 -0.0371  0.0942
  186fsi     O3 2172   1.788   2.627  -0.043  0.2483  0.2832 -0.1982
  186fsi     O4 2173   1.722   2.845   0.036 -0.0817 -0.0132  0.1743
  186fsi     F2 2174   1.556   2.674   0.017 -0.3159 -0.3761 -0.3123
  187fsi     F1 2175   0.166   1.340   1.645  0.0531  0.3749  0.0882
  187fsi     S1 2176   0.199   1.205   1.712 -0.4389 -0.0078  0.5755
  187fsi      N 2177   0.335   1.168   1.646  0.3994 -0.5630 -0.4169
  187fsi     O1 2178   0.208   1.226   1.852 -0.1368  0.1273  0.6337
  187fsi     O2 2179   0.094   1.123   1.671 -0.7686 -0.5140 -0.1523
  187fsi     S2 2180   0.475   1.232   1.677 -0.2404  0.0417 -0.0858
  187fsi     O3 2181   0.475   1.379   1.694 -0.4867 -0.1402  0.2060
  187fsi     O4 2182   0.580   1.178   1.596  0.3854  0.4003  0.3475
  187fsi     F2 2183   0.501   1.185   1.829 -0.6812 -0.6791 -0.2565
  188fsi     F1 2184   1.672   0.771   0.930  0.2432 -0.0091 -0.4559
  188fsi     S1 2185   1.796   0.776   1.026 -0.5458  0.2856 -0.0808
  188fsi      N 2186   1.759   0.885   1.129  1.2390  1.3399 -0.3650
  188fsi     O1 2187   1.805   0.641   1.072 -0.7366  0.2523 -0.4804
  188fsi     O2 2188   1.906   0.830   0.946  0.3636  0.4842  0.0365
  188fsi     S2 2189   1.698   0.879   1.269  0.3019 -0.0438 -0.0409
  188fsi     O3 2190   1.782   0.932   1.372 -0.4988 -0.1494 -0.3562
  188fsi     O4 2191   1.632   0.756   1.288  0.2248 -0.0388  0.2527
  188fsi     F2 2192   1.582   0.986   1.268 -0.7489  0.5821  0.5881
  189fsi     F1 2193   2.191   2.093   2.361  0.2644  0.2113 -0.4290
  189fsi     S1 2194   2.065   2.173   2.382 -0.1368 -0.2364 -0.5315
  189fsi      N 2195   2.040   2.235   2.242 -0.0553 -0.5679 -0.0018
  189fsi     O1 2196   1.978   2.069   2.432 -0.6110 -0.2380  0.1378
  189fsi     O2 2197   2.092   2.266   2.485 -0.5471 -0.3351  0.1191
  189fsi     S2 2198   1.964   2.173   2.122 -0.3750  0.0592  0.0568
  189fsi     O3 2199   1.902   2.271   2.036 -0.1211  0.2612 -0.0219
  189fsi     O4 2200   1.888   2.056   2.157 -0.0143  0.4352 -0.4041
  189fsi     F2 2201   2.080   2.113   2.031  0.5746 -0.5062 -0.1720
  190fsi     F1 2202   2.602   2.969   2.331  0.2384  0.2648 -0.6027
  190fsi     S1 2203   2.713   3.052   2.410  0.4768 -0.2188  0.4274
  190fsi      N 2204   2.827   3.075   2.308 -0.1545  0.6891 -0.2823
  190fsi     O1 2205   2.648   3.174   2.448  0.1184  0.0508  0.5827
  190fsi     O2 2206   2.756   2.967   2.513 -0.3893  0.0793 -0.4025
  190fsi     S2 2207   2.842   3.196   2.209 -0.1442  0.5502 -0.2135
  190fsi     O3 2208   2.723   3.226   2.125 -0.1344  0.0170  0.3341
  190fsi     O4 2209   2.970   3.195   2.142 -0.0384  0.6324 -0.1081
  190fsi     F2 2210   2.856   3.324   2.300 -0.0911 -0.2380  0.2060
  191fsi     F1 2211   2.091   2.862   2.024 -0.4473  0.3857 -0.7165
  191fsi     S1 2212   2.071   2.806   1.878  0.4706  0.0667  0.2393
  191fsi      N 2213   1.969   2.694   1.896  0.1237 -0.2835  0.0539
  191fsi     O1 2214   2.017   2.916   1.806 -0.1557 -0.1419  0.3925
  191fsi     O2 2215   2.207   2.755   1.843  0.0954  0.2251 -0.3203
  191fsi     S2 2216   1.814   2.696   1.936  0.1445 -0.0597 -0.2281
  191fsi     O3 2217   1.747   2.583   1.894  0.6616 -0.2991  0.3173
  191fsi     O4 2218   1.754   2.826   1.905 -0.5239 -0.1351 -0.2854
  191fsi     F2 2219   1.814   2.685   2.100 -0.2081 -0.3443  0.0928
  192fsi     F1 2220   0.689   1.918   1.173 -0.4680 -0.2506 -0.1658
  192fsi     S1 2221   0.793   1.885   1.058 -0.4450 -0.4555 -0.3259
  192fsi      N 2222   0.921   1.884   1.146  0.0872  0.4876 -0.5268
  192fsi     O1 2223   0.758   1.753   1.002 -0.1910  0.4288  0.2262
  192fsi     O2 2224   0.795   1.999   0.971 -0.2245 -0.5273  0.4246
  192fsi     S2 2225   1.016   1.771   1.194  0.2985 -0.1928  0.2334
  192fsi     O3 2226   1.150   1.832   1.206 -0.1406 -0.2234 -0.9722
  192fsi     O4 2227   0.996   1.638   1.139  0.4810 -0.1750 -0.6214
  192fsi     F2 2228   0.981   1.757   1.339 -0.2572  0.6384  0.4929
  193fsi     F1 2229   2.424   0.691   1.825 -0.2168 -0.2763 -0.0704
  193fsi     S1 2230   2.559   0.634   1.785 -0.7668 -0.0825 -0.4464
  193fsi      N 2231   2.636   0.757   1.730  0.0729 -0.3263  0.4839
  193fsi     O1 2232   2.608   0.571   1.907  0.0554 -0.4876 -0.5843
  193fsi     O2 2233   2.515   0.551   1.675 -0.2726  0.1545 -0.3017
  193fsi     S2 2234   2.746   0.845   1.803  0.1887 -0.2178 -0.2536
  193fsi     O3 2235   2.881   0.834   1.749  0.3280  0.0492 -0.0064
  193fsi     O4 2236   2.731   0.859   1.944 -0.1544  0.2704 -0.1715
  193fsi     F2 2237   2.712   0.991   1.751  0.1330  0.3983 -0.2701
  194fsi     F1 2238   0.984   2.427   1.196 -0.6283  0.0213 -0.2440
  194fsi     S1 2239   0.893   2.297   1.194  0.2632 -0.3254  0.1753
  194fsi      N 2240   0.779   2.332   1.293  0.3596  0.1009  0.0791
  194fsi     O1 2241   0.846   2.291   1.057 -0.4745 -0.7160 -0.1860
  194fsi     O2 2242   0.988   2.202   1.255  0.8463 -1.3795  0.2816
  194fsi     S2 2243   0.688   2.464   1.295  0.1533  0.2525  0.2038
  194fsi     O3 2244   0.563   2.448   1.363  0.0454  0.8024  0.4158
  194fsi     O4 2245   0.680   2.537   1.172 -0.5784 -0.1427 -0.0849
  194fsi     F2 2246   0.770   2.555   1.391 -0.4113 -0.1553 -0.1412
  195fsi     F1 2247   1.952   0.891   0.671 -0.2509  0.4423  0.1025
  195fsi     S1 2248   1.885   1.022   0.610  0.1055 -0.3602 -0.0050
  195fsi      N 2249   1.996   1.060   0.502 -0.4140  0.6548 -0.2451
  195fsi     O1 2250   1.760   0.973   0.561  0.0790  0.1073 -0.0397
  195fsi     O2 2251   1.882   1.110   0.723  0.1648  0.3225  0.8102
  195fsi     S2 2252   1.992   1.070   0.347 -0.3771 -0.2776  0.3633
  195fsi     O3 2253   2.075   1.168   0.282  0.2747  0.1721  0.2039
  195fsi     O4 2254   1.861   1.046   0.291  0.6847 -0.1697 -0.1270
  195fsi     F2 2255   2.064   0.936   0.323 -0.2182 -0.1058 -0.3396
  196fsi     F1 2256   2.470   0.250   1.245 -0.6239  0.5021  0.0026
  196fsi     S1 2257   2.556   0.272   1.378 -0.9607 -0.3182  0.2466
  196fsi      N 2258   2.681   0.348   1.312 -0.0261  0.0559 -0.1756
  196fsi     O1 2259   2.478   0.358   1.461 -0.3987  0.5161  0.2071
  196fsi     O2 2260   2.580   0.139   1.424  0.5180 -0.4285 -0.4468
  196fsi     S2 2261   2.692   0.505   1.274  0.0150 -0.8686 -0.0513
  196fsi     O3 2262   2.816   0.570   1.293  0.0506  0.2192 -0.0408
  196fsi     O4 2263   2.574   0.580   1.316  0.3053  0.4940  0.1901
  196fsi     F2 2264   2.657   0.488   1.123 -0.1340  0.0861  0.6361
  197fsi     F1 2265   2.595   0.139   0.267 -0.6222  0.0725  0.2253
  197fsi     S1 2266   2.468   0.058   0.218 -0.4474 -0.0336  0.3025
  197fsi      N 2267   2.415  -0.001   0.353  0.2178 -0.1577 -0.2073
  197fsi     O1 2268   2.377   0.151   0.156  0.3223 -0.2350 -0.2149
  197fsi     O2 2269   2.526  -0.044   0.132 -0.3105  0.3566  0.0235
  197fsi     S2 2270   2.275  -0.004   0.426 -0.1180  0.0950 -0.1398
  197fsi     O3 2271   2.179   0.092   0.376 -0.4227  0.2163 -0.0999
  197fsi     O4 2272   2.294  -0.013   0.568 -0.6549  0.2829 -0.4295
  197fsi     F2 2273   2.222  -0.142   0.391 -0.2041  0.2557 -0.2101
  198fsi     F1 2274   2.444   1.715   2.101  0.1257  0.3751 -0.2396
  198fsi     S1 2275   2.297   1.708   2.073 -0.4465  0.2962 -0.5447
  198fsi      N 2276   2.227   1.769   2.202 -0.1565  0.7631  0.0459
  198fsi     O1 2277   2.285   1.793   1.956  0.5720 -0.7310  0.1556
  198fsi     O2 2278   2.276   1.565   2.056 -0.4004  0.3135 -0.5407
  198fsi     S2 2279   2.162   1.704   2.328 -0.1574  0.1830  0.2315
  198fsi     O3 2280   2.192   1.768   2.455  0.0273  0.1074  0.1271
  198fsi     O4 2281   2.145   1.564   2.319  0.2449  0.3412  0.0516
  198fsi     F2 2282   2.020   1.753   2.294 -0.5305  0.4801  0.0248
  199fsi     F1 2283   0.473   0.513   0.831 -0.2102 -0.5240 -0.1025
  199fsi     S1 2284   0.534   0.649   0.879 -0.6307 -0.5637  0.0530
  199fsi      N 2285   0.582   0.703   0.737 -0.2737 -0.1501  0.6021
  199fsi     O1 2286   0.425   0.721   0.940  0.3661 -0.2172  0.1036
  199fsi     O2 2287   0.634   0.607   0.969 -0.0551  0.3383  0.1768
  199fsi     S2 2288   0.508   0.796   0.634 -0.0169 -0.1586  0.2602
  199fsi     O3 2289   0.594   0.895   0.583  0.2528 -0.4908  0.6532
  199fsi     O4 2290   0.366   0.823   0.651  0.3008 -0.4523  0.4850
  199fsi     F2 2291   0.507   0.703   0.507 -0.3797  0.4701 -0.2071
  200fsi     F1 2292   2.398   2.496   2.219  0.2381  0.0002 -0.0919
  200fsi     S1 2293   2.271   2.572   2.164  0.2746 -0.0122 -0.3882
  200fsi      N 2294   2.209   2.460   2.073 -0.2759  0.1808  0.2048
  200fsi     O1 2295   2.195   2.597   2.285 -0.1840  0.0739  0.5299
  200fsi     O2 2296   2.333   2.681   2.096  0.0521  0.2781 -1.1050
  200fsi     S2 2297   2.266   2.400   1.936 -0.2003  0.4318 -0.4888
  200fsi     O3 2298   2.371   2.470   1.876 -0.6489 -0.1648  0.1051
  200fsi     O4 2299   2.157   2.362   1.851  0.2343 -0.1316 -0.6799
  200fsi     F2 2300   2.326   2.262   1.978  0.7736  0.2696 -0.1908
   2.99904   2.99904   2.99904
