simbox
 2300
    1Li      Li    1   2.013   2.688   2.265  0.0060  1.2863 -0.1859
    2Li      Li    2   0.276   2.381   0.310 -0.5886 -0.4470 -0.2664
    3Li      Li    3   2.944   0.870   0.063 -0.6266 -0.4791 -0.0894
    4Li      Li    4   2.703   0.311   0.098  0.0314 -0.0481  0.2243
    5Li      Li    5   1.967   0.166   2.517 -0.3726 -0.7846  0.6377
    6Li      Li    6   0.660   1.154   1.506 -0.8099 -0.3964  0.2080
    7Li      Li    7   1.462   2.601   3.224 -1.0627  0.9453 -0.5218
    8Li      Li    8   1.676   3.073   0.261  0.1622  0.4109 -0.6298
    9Li      Li    9   0.247   2.812   3.052 -0.5146  0.6051  0.1084
   10Li      Li   10   3.144   2.621   2.219 -0.7767  0.4225 -0.6376
   11Li      Li   11   2.184   1.033   1.550 -0.7510 -0.2170  0.4979
   12Li      Li   12   1.784   1.479   2.443  0.5298  0.4896 -0.5249
   13Li      Li   13   0.846   2.296   0.982 -0.0723 -0.0669  0.2229
   14Li      Li   14   1.849   0.686   1.307  0.3689  1.0885  0.5786
   15Li      Li   15   0.476   2.367   2.887  0.1646  0.3541 -0.1100
   16Li      Li   16   2.289   3.141   1.584  0.4826  0.1823 -0.9087
   17Li      Li   17   0.340   0.508   2.403  0.2788  0.3353  0.8740
   18Li      Li   18   2.418   2.600   2.444  1.2936  0.3756 -0.7179
   19Li      Li   19   0.392   2.468   0.803 -0.6749 -0.3911  0.3129
   20Li      Li   20   2.306   0.980   0.370 -0.2195  0.8869 -0.5033
   21Li      Li   21   0.262   1.220   0.684  0.0959 -0.3417  0.1273
   22Li      Li   22   3.083   2.972   2.703 -0.6572 -0.0997  0.8816
   23Li      Li   23   2.101   0.374   1.895  0.3696 -1.1338 -0.2051
   24Li      Li   24   0.206   2.776   0.289  0.6204  1.2040 -0.6834
   25Li      Li   25   1.174   1.578   2.252 -0.0042 -0.5157 -0.4558
   26Li      Li   26   2.954   0.221   0.568 -0.4123  0.0137 -0.2021
   27Li      Li   27   2.930   3.092   1.584  0.1529  1.1389  0.0787
   28Li      Li   28   1.305   1.883   0.244  0.6077  0.7969  0.0742
   29Li      Li   29   1.149   0.659   2.784  0.8159 -0.5553  0.5704
   30Li      Li   30   2.929   1.488   0.760 -0.4084  1.3750  0.7479
   31Li      Li   31   0.161   0.733   2.933  0.1078 -0.2811  0.0595
   32Li      Li   32   0.596   1.045   1.099  0.6130  1.0290 -0.8219
   33Li      Li   33   0.280   1.141   1.965 -0.5989 -0.4575 -0.2971
   34Li      Li   34   0.767   2.980   0.008  0.8589 -1.8894 -0.9821
   35Li      Li   35   2.988   2.039   0.366  0.3490 -0.1949 -0.1544
   36Li      Li   36   2.529   0.819   1.769 -0.5903 -0.0214  0.1967
   37Li      Li   37   0.923   2.866   0.977  0.7308 -0.1146  0.4571
   38Li      Li   38   0.932   2.545   0.353 -0.1418 -0.1505  0.1923
   39Li      Li   39   0.810   0.389   3.152  0.9528  0.8613  0.0824
   40Li      Li   40   0.326   1.089   0.088  0.7491 -1.3215  1.8056
   41Li      Li   41   1.087   2.624   2.877  0.0058 -0.4836  0.4242
   42Li      Li   42   3.113   0.315   2.825  0.7687 -0.2421  0.1432
   43Li      Li   43   0.335   0.768   1.823  0.0457 -0.4730  0.0971
   44Li      Li   44   2.182   2.494   1.086  0.6082 -1.1893 -0.7830
   45Li      Li   45   1.761   1.383   1.917 -0.6975  0.5883 -0.4167
   46Li      Li   46   3.215   0.051   0.029 -0.8196 -0.4401 -0.1833
   47Li      Li   47   0.814   0.716   2.083  0.2620  0.0628 -0.4987
   48Li      Li   48   1.122   1.040   2.014  0.8578  0.7894 -0.1448
   49Li      Li   49   1.866   3.044   2.050  0.2122  1.0495  0.2899
   50Li      Li   50   2.614   2.736   2.008  0.0616  0.0516  0.2005
   51c3c      N   51   2.472   0.064   2.863  0.0010  0.2400  0.0585
   51c3c     C1   52   2.374   0.155   2.803  0.3788  0.0263 -0.2544
   51c3c     C2   53   2.415  -0.070   2.824 -0.3177  0.4592  0.3076
   51c3c     C3   54   2.333   0.095   2.671  0.4507  0.4109  0.0663
   51c3c     C4   55   2.368  -0.052   2.683 -0.0415  0.2150 -0.3946
   51c3c     C5   56   2.609   0.086   2.806 -0.1546 -0.1655 -0.3991
   51c3c     C6   57   2.491   0.086   3.005 -0.0300  0.1545  0.7024
   51c3c     H1   58   2.413   0.256   2.810  2.2905 -0.6349 -0.8997
   51c3c     H2   59   2.288   0.161   2.869  0.0117 -1.0502 -0.6136
   51c3c     H3   60   2.481  -0.154   2.844 -0.7630  0.6784  2.8284
   51c3c     H4   61   2.327  -0.100   2.881  1.0448  0.0523  2.2427
   51c3c     H5   62   2.386   0.140   2.588  1.1476 -0.4683  0.0243
   51c3c     H6   63   2.227   0.116   2.655 -0.2259 -3.1866 -0.6309
   51c3c     H7   64   2.451  -0.081   2.619  0.4038 -0.1037  0.3259
   51c3c     H8   65   2.283  -0.118   2.665 -2.0332  2.2955  0.9842
   51c3c     H9   66   2.637   0.190   2.820 -0.6034  0.0337 -0.9506
   51c3c    H10   67   2.684   0.027   2.857 -0.7997 -0.6718 -0.0256
   51c3c    H11   68   2.607   0.064   2.699  1.0266 -0.0432 -0.4544
   51c3c    H12   69   2.572   0.020   3.035  0.4631  1.3199  1.9783
   51c3c    H13   70   2.524   0.190   3.009  0.0911  0.2605 -1.7582
   51c3c     C7   71   2.370   0.058   3.097  0.2663  0.1530  0.4831
   51c3c    H14   72   2.328  -0.039   3.071 -0.0143  0.4234 -0.0971
   51c3c    H15   73   2.295   0.137   3.092 -1.4841 -1.3071  2.6988
   51c3c     C8   74   2.404   0.047   3.243  0.4204  0.3395  0.7541
   51c3c    H16   75   2.320   0.017   3.305  1.9717 -0.4018  2.5355
   51c3c    H17   76   2.447   0.141   3.275  1.2004  0.2983 -0.1491
   51c3c    H18   77   2.479  -0.033   3.249  0.1392 -0.1207 -1.4443
   52c3c      N   78   2.041   0.284   0.742  0.6428  0.3867  0.0547
   52c3c     C1   79   2.129   0.322   0.632 -0.3446 -0.0966  0.3643
   52c3c     C2   80   1.950   0.183   0.678 -0.7572  0.2934  0.4985
   52c3c     C3   81   2.147   0.185   0.565  0.2173  0.3101  0.3726
   52c3c     C4   82   2.038   0.086   0.598  0.2743  0.0275 -0.6423
   52c3c     C5   83   2.113   0.218   0.854 -0.2592 -0.1859  0.1370
   52c3c     C6   84   1.961   0.394   0.804 -0.0586  0.0512  0.0574
   52c3c     H1   85   2.215   0.378   0.668  0.0100  0.6970 -1.6850
   52c3c     H2   86   2.077   0.385   0.560 -0.8713 -1.4267 -0.4376
   52c3c     H3   87   1.882   0.133   0.747 -1.1470  2.2730  1.5770
   52c3c     H4   88   1.881   0.234   0.612 -0.7105  0.2192  0.3934
   52c3c     H5   89   2.249   0.151   0.580 -0.1156  0.4533  3.2933
   52c3c     H6   90   2.137   0.199   0.457 -1.3102  0.9377  0.5732
   52c3c     H7   91   2.094   0.013   0.657 -0.6938  1.2385  1.8315
   52c3c     H8   92   1.991   0.035   0.513  1.0178 -1.4648 -0.1791
   52c3c     H9   93   2.193   0.281   0.892  0.3366 -2.3755  2.6009
   52c3c    H10   94   2.035   0.203   0.928 -0.0923 -0.4255  0.2647
   52c3c    H11   95   2.165   0.123   0.846  1.3168  0.7234 -0.7653
   52c3c    H12   96   1.885   0.360   0.875 -0.0640  1.6629  0.8600
   52c3c    H13   97   2.032   0.448   0.867 -1.1373 -1.0546  2.2976
   52c3c     C7   98   1.894   0.500   0.714 -0.1083  0.2715  0.0099
   52c3c    H14   99   1.843   0.461   0.626  1.1690 -3.2833  0.7623
   52c3c    H15  100   1.979   0.553   0.672  0.5526 -1.8182 -1.3605
   52c3c     C8  101   1.795   0.590   0.799 -0.0354  0.0255  0.4104
   52c3c    H16  102   1.829   0.625   0.897 -1.1310  0.4372  0.6597
   52c3c    H17  103   1.703   0.538   0.826  0.5852 -0.2760  2.0231
   52c3c    H18  104   1.769   0.682   0.746  1.4778  0.2436  0.0381
   53c3c      N  105   3.057   1.177   1.400  0.2908  0.3950 -0.0482
   53c3c     C1  106   3.196   1.215   1.370 -0.6767  0.1581  0.7141
   53c3c     C2  107   2.969   1.264   1.324  0.1418  0.3428  0.3736
   53c3c     C3  108   3.194   1.256   1.225 -0.5353  0.3275 -1.4493
   53c3c     C4  109   3.043   1.260   1.184  0.0854 -0.2421  0.3218
   53c3c     C5  110   3.031   1.035   1.371  0.3032  0.1676  0.9703
   53c3c     C6  111   3.031   1.177   1.549 -0.5785 -0.3005  1.2257
   53c3c     H1  112   3.270   1.136   1.387 -0.5917  0.1705  0.3891
   53c3c     H2  113   3.231   1.296   1.434  0.3612  1.5357 -1.5448
   53c3c     H3  114   2.866   1.234   1.303  0.4636 -0.5866  0.0971
   53c3c     H4  115   2.968   1.369   1.353 -1.1639  0.3267  0.4074
   53c3c     H5  116   3.239   1.177   1.164 -3.6177 -1.3839 -1.6089
   53c3c     H6  117   3.254   1.345   1.208 -0.2077 -0.0281 -2.1910
   53c3c     H7  118   3.008   1.168   1.136 -0.9473 -0.2589  1.1003
   53c3c     H8  119   3.009   1.335   1.113 -0.0949 -0.2131  0.4397
   53c3c     H9  120   3.091   0.961   1.423  0.0919 -0.7576 -0.0855
   53c3c    H10  121   2.923   1.020   1.379 -0.0319  2.5763  1.4534
   53c3c    H11  122   3.042   1.005   1.267  1.8483 -1.0572  1.4722
   53c3c    H12  123   2.925   1.156   1.562 -0.4485 -0.6829  1.7246
   53c3c    H13  124   3.095   1.105   1.601  1.5512  0.2497 -0.5891
   53c3c     C7  125   3.052   1.314   1.614 -0.7578  0.4435 -0.2717
   53c3c    H14  126   2.978   1.378   1.564 -1.0315 -0.1609 -0.6445
   53c3c    H15  127   3.148   1.364   1.600 -0.0427 -1.2557 -1.6248
   53c3c     C8  128   3.023   1.321   1.759  0.6559 -0.4321  0.0173
   53c3c    H16  129   3.040   1.422   1.796 -0.0207 -1.1213  2.2863
   53c3c    H17  130   3.083   1.254   1.821  1.2841  0.4145  0.3376
   53c3c    H18  131   2.915   1.307   1.762  0.3182  2.0613  1.6645
   54c3c      N  132   0.313   1.762   1.294  0.1978 -0.0883 -0.4107
   54c3c     C1  133   0.363   1.880   1.361 -0.0785  0.5308 -0.5059
   54c3c     C2  134   0.407   1.731   1.188 -0.2459  0.1960  0.5005
   54c3c     C3  135   0.520   1.870   1.359  0.2323  0.0417 -0.1948
   54c3c     C4  136   0.544   1.765   1.252 -0.1842 -0.1673 -0.0651
   54c3c     C5  137   0.312   1.652   1.388 -0.1227  0.6390  0.2251
   54c3c     C6  138   0.170   1.781   1.252 -0.5087  0.4246 -0.2342
   54c3c     H1  139   0.324   1.902   1.461 -1.8021  2.0566 -1.4856
   54c3c     H2  140   0.344   1.968   1.299 -0.9340 -0.4646 -1.6714
   54c3c     H3  141   0.398   1.633   1.140 -0.3569  1.0129 -1.1919
   54c3c     H4  142   0.392   1.801   1.105  1.8388 -0.4947 -0.5120
   54c3c     H5  143   0.560   1.832   1.453 -4.0440 -2.7569  0.6202
   54c3c     H6  144   0.571   1.963   1.332 -0.6948  0.4675 -0.5106
   54c3c     H7  145   0.581   1.671   1.294 -0.4542 -0.2099  0.0775
   54c3c     H8  146   0.615   1.792   1.174  0.8863 -3.3969 -0.3055
   54c3c     H9  147   0.235   1.651   1.465  0.7934 -1.6026  1.1472
   54c3c    H10  148   0.299   1.558   1.335 -0.9424 -0.1068  1.7209
   54c3c    H11  149   0.404   1.637   1.444 -0.5927 -2.0199  0.3320
   54c3c    H12  150   0.127   1.692   1.207 -1.6213 -0.3687  2.2889
   54c3c    H13  151   0.108   1.797   1.340  1.7379  0.5352  1.3790
   54c3c     C7  152   0.138   1.897   1.153 -0.7278  0.1195  0.3151
   54c3c    H14  153   0.197   1.896   1.061 -0.7547 -1.3892  0.2911
   54c3c    H15  154   0.153   1.997   1.192  0.1288  0.1803 -0.1514
   54c3c     C8  155  -0.008   1.895   1.102  0.2191  0.4407 -0.0653
   54c3c    H16  156  -0.070   1.928   1.185 -0.1565 -0.5020  0.0398
   54c3c    H17  157  -0.043   1.804   1.053 -1.0433  0.2592  1.1631
   54c3c    H18  158  -0.026   1.968   1.023 -2.2473  1.8173  1.7257
   55c3c      N  159   0.408   3.052   1.276  0.5299 -0.5898  0.0355
   55c3c     C1  160   0.545   3.074   1.223 -0.3292 -0.5377  0.3871
   55c3c     C2  161   0.399   2.908   1.274  0.0907 -0.5748 -0.1493
   55c3c     C3  162   0.629   2.978   1.300 -0.3801  0.2722 -0.6169
   55c3c     C4  163   0.530   2.868   1.343  0.6072 -0.4249 -0.7230
   55c3c     C5  164   0.384   3.110   1.415 -0.2909 -0.4936  0.0304
   55c3c     C6  165   0.305   3.114   1.191  0.2951  0.0011  0.3688
   55c3c     H1  166   0.570   3.179   1.240  0.7639 -0.5934 -0.7383
   55c3c     H2  167   0.554   3.047   1.117  0.8561 -1.1218  0.6312
   55c3c     H3  168   0.313   2.870   1.329  1.5024 -1.3628  1.5972
   55c3c     H4  169   0.400   2.852   1.181  3.1678  1.0166 -1.1522
   55c3c     H5  170   0.682   3.018   1.387  1.7473  0.4510 -1.9559
   55c3c     H6  171   0.703   2.923   1.242 -0.8937 -0.4727 -0.5747
   55c3c     H7  172   0.524   2.869   1.451 -0.7063  0.3638 -0.7849
   55c3c     H8  173   0.556   2.766   1.317 -1.2920 -0.8185 -1.1242
   55c3c     H9  174   0.360   3.216   1.415  1.6522 -0.0146  0.7333
   55c3c    H10  175   0.297   3.072   1.468  1.2729 -0.1771  2.9543
   55c3c    H11  176   0.465   3.104   1.488 -0.7751  0.5305  0.6614
   55c3c    H12  177   0.209   3.069   1.215  0.7883 -1.4681 -0.3477
   55c3c    H13  178   0.305   3.223   1.196  1.5665  0.0132  0.2278
   55c3c     C7  179   0.319   3.075   1.040  1.0385  0.7738 -0.3799
   55c3c    H14  180   0.315   2.972   1.006 -1.3364  0.4283  0.8040
   55c3c    H15  181   0.403   3.133   1.002  1.6797  0.7738  0.9958
   55c3c     C8  182   0.190   3.133   0.978  0.3481 -0.0262 -0.1830
   55c3c    H16  183   0.191   3.133   0.869 -3.5060  1.5291 -0.3259
   55c3c    H17  184   0.174   3.238   1.003 -0.7645 -0.2859  0.2501
   55c3c    H18  185   0.102   3.086   1.023 -0.2646  0.7628 -0.5445
   56c3c      N  186   1.672   1.985   1.016 -0.3262  0.5041 -0.1131
   56c3c     C1  187   1.613   1.849   1.010 -0.2863 -0.6947 -0.1207
   56c3c     C2  188   1.809   1.948   1.054  0.0821 -0.4670 -0.3919
   56c3c     C3  189   1.717   1.764   0.941  0.3735 -0.0493  0.0436
   56c3c     C4  190   1.856   1.831   0.964  0.0731 -0.1085  0.0992
   56c3c     C5  191   1.656   2.050   0.883 -0.2067  0.8554  0.2166
   56c3c     C6  192   1.610   2.075   1.115 -0.1894  0.1066 -0.4446
   56c3c     H1  193   1.515   1.846   0.963  0.3149  2.0287 -1.6842
   56c3c     H2  194   1.596   1.801   1.106 -0.7265  1.4940  0.9211
   56c3c     H3  195   1.875   2.034   1.059 -0.3493 -0.0658 -1.4883
   56c3c     H4  196   1.822   1.903   1.153 -0.0695  2.4354  0.9800
   56c3c     H5  197   1.691   1.769   0.836  2.0952  1.3460 -0.3343
   56c3c     H6  198   1.707   1.667   0.991  1.9529 -0.5602 -0.6108
   56c3c     H7  199   1.917   1.868   0.882  0.5182 -2.1773 -0.5466
   56c3c     H8  200   1.922   1.766   1.021 -0.9681 -1.5733 -0.3113
   56c3c     H9  201   1.554   2.086   0.871 -0.0509  1.3813  0.4378
   56c3c    H10  202   1.718   2.140   0.882  2.4137 -0.8756  1.2632
   56c3c    H11  203   1.694   1.996   0.796 -0.1077 -0.8056  1.2627
   56c3c    H12  204   1.669   2.166   1.122  0.7120 -0.4847 -0.3017
   56c3c    H13  205   1.508   2.096   1.083 -0.0078  0.4185 -0.8192
   56c3c     C7  206   1.587   2.027   1.259 -0.1630 -0.0587  0.2853
   56c3c    H14  207   1.684   2.019   1.308  0.6789 -3.5736 -1.7650
   56c3c    H15  208   1.548   1.925   1.263  0.6424 -0.4728 -1.6394
   56c3c     C8  209   1.483   2.125   1.322 -0.2916 -0.5298  0.2253
   56c3c    H16  210   1.525   2.221   1.290  0.2272 -0.6081  0.6600
   56c3c    H17  211   1.474   2.127   1.430  0.8836 -0.3869  0.3328
   56c3c    H18  212   1.382   2.114   1.283  0.7758 -2.3632 -2.1868
   57c3c      N  213   1.021   0.481   1.335 -0.7474  0.1855  0.1900
   57c3c     C1  214   0.899   0.497   1.252  0.1769  0.0737 -0.4875
   57c3c     C2  215   1.078   0.614   1.358  0.9021  0.1925 -1.0040
   57c3c     C3  216   0.839   0.629   1.304  0.0297  0.2830 -0.1962
   57c3c     C4  217   0.958   0.706   1.365  0.0786  0.6672 -0.5495
   57c3c     C5  218   0.978   0.424   1.469 -0.3668 -0.3890  0.3637
   57c3c     C6  219   1.121   0.385   1.283 -0.8129 -0.2496  0.1776
   57c3c     H1  220   0.826   0.419   1.269  0.7406 -0.9668 -2.6703
   57c3c     H2  221   0.932   0.505   1.148  1.6615  4.4091  0.1987
   57c3c     H3  222   1.142   0.626   1.445 -1.2320 -0.2115  0.6526
   57c3c     H4  223   1.137   0.649   1.273  0.5932  0.6783 -1.0176
   57c3c     H5  224   0.765   0.595   1.376  0.6814 -2.5651 -0.8200
   57c3c     H6  225   0.803   0.696   1.226 -1.4040 -0.8134 -0.4995
   57c3c     H7  226   0.945   0.736   1.469 -0.1810  0.7782 -0.6121
   57c3c     H8  227   0.969   0.797   1.306 -0.9788 -0.8248 -3.1292
   57c3c     H9  228   0.946   0.321   1.451 -1.4371 -0.0103  0.0458
   57c3c    H10  229   1.063   0.416   1.536  0.4446 -0.5416 -0.6658
   57c3c    H11  230   0.910   0.477   1.536  2.0699  0.5164  2.1655
   57c3c    H12  231   1.205   0.381   1.353 -1.7504 -0.9986  1.2759
   57c3c    H13  232   1.073   0.287   1.286 -0.9977 -0.1398  0.9767
   57c3c     C7  233   1.179   0.410   1.137 -0.2362 -0.1022 -0.2124
   57c3c    H14  234   1.229   0.507   1.130 -2.1733  1.1948  2.8362
   57c3c    H15  235   1.105   0.420   1.058  0.2429  1.1660 -0.5081
   57c3c     C8  236   1.278   0.299   1.092  0.5576 -0.3938 -0.2268
   57c3c    H16  237   1.361   0.275   1.159 -1.0919 -1.9472  1.3129
   57c3c    H17  238   1.335   0.342   1.009 -0.8027  0.7002 -0.6119
   57c3c    H18  239   1.237   0.201   1.068  3.8360 -2.5315  2.4238
   58c3c      N  240   1.662   1.435   0.009 -0.4221 -0.0610 -0.1695
   58c3c     C1  241   1.685   1.552   0.095  0.4641  0.9922  0.0510
   58c3c     C2  242   1.766   1.428  -0.091 -0.0706 -0.6086  0.3018
   58c3c     C3  243   1.831   1.565   0.109 -0.2047 -0.6070  0.4889
   58c3c     C4  244   1.890   1.484  -0.012 -0.4708  0.4320  0.5950
   58c3c     C5  245   1.674   1.321   0.101 -0.0367 -0.4506 -0.5291
   58c3c     C6  246   1.526   1.426  -0.050 -0.0120  0.1130 -0.2636
   58c3c     H1  247   1.634   1.552   0.191  2.2102  1.9523  1.0008
   58c3c     H2  248   1.661   1.642   0.038  1.2173  1.4113  0.3875
   58c3c     H3  249   1.774   1.330  -0.137  1.0600 -0.1554 -0.5117
   58c3c     H4  250   1.761   1.497  -0.176  2.8156 -2.4565 -1.4660
   58c3c     H5  251   1.865   1.526   0.205  1.1141 -1.8265 -0.4480
   58c3c     H6  252   1.871   1.666   0.108  1.0353 -1.0963  0.4220
   58c3c     H7  253   1.950   1.403   0.029 -0.3429  1.2859  2.1342
   58c3c     H8  254   1.960   1.541  -0.072 -1.3707 -0.2062 -1.0787
   58c3c     H9  255   1.592   1.325   0.173  1.8737 -0.0313  1.6807
   58c3c    H10  256   1.660   1.225   0.051  1.3844 -1.5375  1.1379
   58c3c    H11  257   1.759   1.315   0.168 -1.1955  1.7736  1.2241
   58c3c    H12  258   1.518   1.327  -0.097 -0.8183 -0.4761  1.0911
   58c3c    H13  259   1.461   1.422   0.037  0.0353  1.0324 -0.1888
   58c3c     C7  260   1.487   1.540  -0.147 -0.3580 -0.0215  0.1582
   58c3c    H14  261   1.558   1.560  -0.227 -1.7543 -0.0663 -1.1264
   58c3c    H15  262   1.494   1.635  -0.094  1.3101 -0.3625  0.5669
   58c3c     C8  263   1.349   1.522  -0.206 -0.2370  0.2407  0.6151
   58c3c    H16  264   1.322   1.609  -0.266  1.4074  0.4751  0.2025
   58c3c    H17  265   1.283   1.508  -0.120 -1.3254  0.8941 -0.0985
   58c3c    H18  266   1.355   1.436  -0.273  1.4535  1.5625 -0.9989
   59c3c      N  267   0.716   2.320   2.213 -0.1401  0.0744 -0.3805
   59c3c     C1  268   0.611   2.223   2.192 -0.5651  0.2625 -0.0329
   59c3c     C2  269   0.640   2.423   2.285  0.4442  0.2207 -0.0825
   59c3c     C3  270   0.520   2.213   2.318 -0.4790 -0.4287  0.0459
   59c3c     C4  271   0.542   2.350   2.378 -1.0384  0.3520  0.3765
   59c3c     C5  272   0.823   2.279   2.299  0.6181 -0.2514 -0.1722
   59c3c     C6  273   0.775   2.370   2.091  0.1146  0.3276 -0.4258
   59c3c     H1  274   0.652   2.125   2.165 -0.8342 -0.1103  0.8849
   59c3c     H2  275   0.540   2.242   2.112 -0.1677 -0.7624 -0.6436
   59c3c     H3  276   0.698   2.499   2.338  0.9867 -0.9009  0.9617
   59c3c     H4  277   0.572   2.473   2.216 -0.8205 -1.9475 -0.4411
   59c3c     H5  278   0.557   2.147   2.396  0.0088  1.8212  1.7617
   59c3c     H6  279   0.417   2.186   2.295 -1.0738  1.3195  0.5943
   59c3c     H7  280   0.578   2.350   2.481 -0.0686 -0.2320  0.0481
   59c3c     H8  281   0.453   2.412   2.381 -1.6318 -0.4502 -0.4392
   59c3c     H9  282   0.884   2.202   2.251 -0.1102 -1.6146  1.0380
   59c3c    H10  283   0.889   2.357   2.335  1.4822 -1.7006  1.5243
   59c3c    H11  284   0.788   2.220   2.385 -0.8382 -0.8057 -1.1251
   59c3c    H12  285   0.855   2.436   2.122  1.3027 -1.2103 -0.1492
   59c3c    H13  286   0.824   2.285   2.042 -0.3683  0.1547 -0.6187
   59c3c     C7  287   0.688   2.449   1.991 -0.5634  0.3141  0.1609
   59c3c    H14  288   0.655   2.544   2.033 -0.1687  0.5714 -0.1107
   59c3c    H15  289   0.598   2.398   1.959  0.6340 -0.6761 -1.7199
   59c3c     C8  290   0.764   2.499   1.868 -0.3720 -0.4481  0.3604
   59c3c    H16  291   0.691   2.541   1.799  0.9189 -1.4402 -1.6578
   59c3c    H17  292   0.825   2.420   1.824  2.4178  1.1311  1.2847
   59c3c    H18  293   0.830   2.580   1.901 -0.2374 -0.9117  1.2470
   60c3c      N  294   1.604   0.779   1.808  0.0659  0.6668 -1.0511
   60c3c     C1  295   1.735   0.722   1.785  0.2176  1.0077 -0.1104
   60c3c     C2  296   1.602   0.812   1.954  0.2737 -0.2383  0.3845
   60c3c     C3  297   1.832   0.796   1.875 -0.1041  0.0412 -0.9452
   60c3c     C4  298   1.744   0.850   1.988  0.0809 -0.3688  0.3642
   60c3c     C5  299   1.598   0.902   1.725  0.3015  0.1575  0.5366
   60c3c     C6  300   1.494   0.704   1.756 -0.3822 -0.1745  0.2643
   60c3c     H1  301   1.772   0.731   1.683  1.5558 -1.2265  0.1558
   60c3c     H2  302   1.741   0.616   1.810 -0.3781  1.3366  1.4469
   60c3c     H3  303   1.533   0.894   1.972 -0.1024 -0.4853  0.0690
   60c3c     H4  304   1.571   0.735   2.025 -2.2598 -1.0763 -1.5692
   60c3c     H5  305   1.880   0.883   1.830  0.4533  0.2181 -0.0344
   60c3c     H6  306   1.907   0.733   1.923 -0.8375  0.9160  1.4245
   60c3c     H7  307   1.748   0.958   2.002 -2.4803 -0.3931  1.7849
   60c3c     H8  308   1.775   0.811   2.085  0.2722 -0.3760  0.2990
   60c3c     H9  309   1.638   0.897   1.624  1.5987 -0.0400  1.0418
   60c3c    H10  310   1.502   0.953   1.719  0.6355  0.7612  0.2630
   60c3c    H11  311   1.652   0.985   1.772  0.4568 -1.0387  2.5501
   60c3c    H12  312   1.401   0.759   1.765 -1.1291 -1.4958  0.7666
   60c3c    H13  313   1.512   0.683   1.651  1.1516  0.4487  0.3886
   60c3c     C7  314   1.459   0.570   1.833  0.0229 -0.3096 -0.3337
   60c3c    H14  315   1.410   0.596   1.927  1.9205  0.6729  0.4153
   60c3c    H15  316   1.546   0.517   1.872  0.3759  0.6638  0.2237
   60c3c     C8  317   1.369   0.477   1.764 -0.3079 -0.7646 -0.5059
   60c3c    H16  318   1.351   0.389   1.826  0.9569 -0.9387 -0.3753
   60c3c    H17  319   1.412   0.443   1.671 -0.0490 -1.3977 -0.1594
   60c3c    H18  320   1.271   0.521   1.744 -0.1326  0.2073  0.6599
   61c3c      N  321   1.791   2.159   2.904 -0.8349  0.3544  0.7699
   61c3c     C1  322   1.654   2.184   2.850 -0.2015 -0.0079 -0.3783
   61c3c     C2  323   1.767   2.034   2.985  0.1011  0.1676 -0.4917
   61c3c     C3  324   1.587   2.052   2.810  0.1464 -0.0644 -0.3792
   61c3c     C4  325   1.675   1.951   2.882  0.4047  0.4703  0.6361
   61c3c     C5  326   1.879   2.133   2.785  0.2590  0.1040  0.1354
   61c3c     C6  327   1.854   2.271   2.980  0.0429  0.0958  0.0423
   61c3c     H1  328   1.664   2.264   2.777 -0.7711 -0.1681 -0.6384
   61c3c     H2  329   1.584   2.215   2.928  0.4339  2.9672 -0.9448
   61c3c     H3  330   1.859   1.978   3.000 -0.0053 -0.2344 -1.2866
   61c3c     H4  331   1.707   2.051   3.074 -0.4656 -1.1898 -0.6078
   61c3c     H5  332   1.608   2.060   2.703  0.8638  2.3623 -0.0889
   61c3c     H6  333   1.478   2.041   2.811  0.2182 -0.7576 -0.4199
   61c3c     H7  334   1.720   1.898   2.798 -0.2387  2.5781 -1.0764
   61c3c     H8  335   1.623   1.875   2.941  1.2906 -1.1767 -0.6393
   61c3c     H9  336   1.873   2.217   2.715  1.2718 -0.5853 -0.7939
   61c3c    H10  337   1.986   2.118   2.798  0.4547 -0.7350 -2.1072
   61c3c    H11  338   1.840   2.052   2.723 -0.7196  1.3345 -0.8816
   61c3c    H12  339   1.951   2.234   3.014 -0.0770 -0.0300  0.2493
   61c3c    H13  340   1.858   2.360   2.917 -1.4768  0.7211  0.7917
   61c3c     C7  341   1.772   2.315   3.104  0.1676 -0.5193  0.1209
   61c3c    H14  342   1.767   2.238   3.181  1.9511  0.3987  1.2087
   61c3c    H15  343   1.669   2.327   3.070  0.2989 -0.9058 -0.4132
   61c3c     C8  344   1.832   2.445   3.168 -0.0202  0.1650  0.2465
   61c3c    H16  345   1.760   2.474   3.244 -1.3055 -1.3016 -0.3732
   61c3c    H17  346   1.841   2.514   3.084 -0.2858 -0.0618  0.0266
   61c3c    H18  347   1.923   2.423   3.224 -0.7758 -0.7076  1.1438
   62c3c      N  348   1.354   1.188   1.311  0.2853 -0.1175  0.6370
   62c3c     C1  349   1.472   1.156   1.388 -0.4552  0.1872  0.1313
   62c3c     C2  350   1.242   1.157   1.401 -0.0313  0.0273  0.1604
   62c3c     C3  351   1.445   1.214   1.524 -0.1120 -0.0408 -0.0565
   62c3c     C4  352   1.294   1.184   1.542 -0.7258 -0.3605 -0.0829
   62c3c     C5  353   1.364   1.328   1.262  0.0750  0.2260 -0.5371
   62c3c     C6  354   1.347   1.101   1.182  0.1545  0.4309 -0.4149
   62c3c     H1  355   1.564   1.186   1.337 -1.4394 -0.7315 -2.2593
   62c3c     H2  356   1.485   1.050   1.409 -0.3901  0.4983  1.6911
   62c3c     H3  357   1.151   1.214   1.383 -1.0689 -1.5741  0.2601
   62c3c     H4  358   1.203   1.056   1.387  0.2385 -0.5462  3.1419
   62c3c     H5  359   1.471   1.320   1.525 -2.5383  0.5847  1.0893
   62c3c     H6  360   1.503   1.169   1.604  2.1545 -0.8460 -2.1035
   62c3c     H7  361   1.237   1.267   1.583 -2.6113 -0.7965 -1.7227
   62c3c     H8  362   1.272   1.098   1.604  2.0112 -0.3696  0.9397
   62c3c     H9  363   1.458   1.347   1.210  0.5100 -0.7103 -0.1147
   62c3c    H10  364   1.277   1.359   1.205 -2.0048  0.4756  2.6616
   62c3c    H11  365   1.376   1.391   1.351  0.5309 -2.5564  1.4533
   62c3c    H12  366   1.260   1.126   1.121 -1.3501  0.3871  1.6539
   62c3c    H13  367   1.436   1.131   1.126 -1.5247  0.9867 -2.8904
   62c3c     C7  368   1.343   0.948   1.192  0.3905  0.2406 -0.4958
   62c3c    H14  369   1.253   0.900   1.229 -0.3561  0.7002 -1.7111
   62c3c    H15  370   1.425   0.912   1.255  0.2979  1.1540  0.1486
   62c3c     C8  371   1.362   0.894   1.050 -0.8063  0.6743  0.6765
   62c3c    H16  372   1.335   0.788   1.043  0.4818  0.3383  0.7147
   62c3c    H17  373   1.458   0.918   1.004 -1.8042  0.0218 -1.8439
   62c3c    H18  374   1.299   0.943   0.976  0.3542  1.0153 -0.0850
   63c3c      N  375   1.283   2.270   2.358 -0.7886 -0.1239  0.5766
   63c3c     C1  376   1.365   2.294   2.480 -0.3289 -0.2448  0.6857
   63c3c     C2  377   1.392   2.243   2.262 -0.4067  0.5208 -0.3165
   63c3c     C3  378   1.479   2.193   2.480  0.0066 -1.0400 -0.3680
   63c3c     C4  379   1.493   2.148   2.336 -0.3977 -0.2582  0.1213
   63c3c     C5  380   1.201   2.150   2.384  0.1406  0.4399  0.1391
   63c3c     C6  381   1.200   2.388   2.324 -0.6202 -0.2475 -0.2155
   63c3c     H1  382   1.310   2.296   2.574  3.8064 -1.5036  3.2599
   63c3c     H2  383   1.404   2.396   2.480  0.6027 -0.5564 -1.9829
   63c3c     H3  384   1.364   2.185   2.174  1.7231  0.1578 -0.7777
   63c3c     H4  385   1.451   2.326   2.222  0.5385  0.4457  0.8883
   63c3c     H5  386   1.475   2.102   2.539  0.1871 -2.7557 -2.9396
   63c3c     H6  387   1.564   2.257   2.505 -0.6688 -1.2313  2.5729
   63c3c     H7  388   1.473   2.041   2.329  0.5982 -0.4026 -0.6957
   63c3c     H8  389   1.598   2.159   2.309 -0.0820 -1.4115  0.8534
   63c3c     H9  390   1.112   2.165   2.444  0.3172 -1.1007  0.8073
   63c3c    H10  391   1.163   2.120   2.286  1.6092  0.1748 -0.3746
   63c3c    H11  392   1.249   2.058   2.419  1.5914  1.1106 -0.0681
   63c3c    H12  393   1.157   2.347   2.232 -0.6029 -0.2156 -0.2377
   63c3c    H13  394   1.131   2.404   2.407 -0.2369  1.4510 -0.2022
   63c3c     C7  395   1.269   2.526   2.289 -0.3651  0.3764  0.3679
   63c3c    H14  396   1.337   2.506   2.207  0.7543 -1.1751  1.6307
   63c3c    H15  397   1.325   2.564   2.374  1.2067  0.9802 -0.9223
   63c3c     C8  398   1.171   2.636   2.241 -0.4653  0.6174  0.4186
   63c3c    H16  399   1.111   2.681   2.320 -2.0117  1.0195 -0.9592
   63c3c    H17  400   1.106   2.589   2.168  1.7696  2.2477 -2.7123
   63c3c    H18  401   1.231   2.710   2.188 -0.6211  0.9713  0.7356
   64c3c      N  402   2.469   2.402   1.501  0.7697  0.0754  0.6234
   64c3c     C1  403   2.548   2.456   1.609  0.0949 -0.2344  0.2508
   64c3c     C2  404   2.459   2.513   1.413  0.2284 -0.3672  0.0000
   64c3c     C3  405   2.650   2.550   1.543  0.1186 -0.3973 -0.6407
   64c3c     C4  406   2.596   2.575   1.404  0.0439  0.0915  0.1973
   64c3c     C5  407   2.553   2.293   1.438  0.0881  0.1782 -0.2451
   64c3c     C6  408   2.349   2.337   1.550  0.1302  0.1007 -0.2356
   64c3c     H1  409   2.596   2.380   1.671 -1.1788  0.1593  1.7538
   64c3c     H2  410   2.489   2.509   1.684 -0.5633 -0.0463 -0.3985
   64c3c     H3  411   2.424   2.483   1.314  0.2103 -0.8819  0.1595
   64c3c     H4  412   2.385   2.576   1.462 -1.3263 -3.1972  1.4105
   64c3c     H5  413   2.753   2.513   1.548  0.2610 -0.1529 -1.7159
   64c3c     H6  414   2.661   2.643   1.599  0.8560 -0.9898  0.2211
   64c3c     H7  415   2.649   2.519   1.327 -2.2195  0.1488 -1.4759
   64c3c     H8  416   2.598   2.678   1.370 -0.3550 -0.2006 -0.7369
   64c3c     H9  417   2.574   2.217   1.514 -0.8508 -0.9036 -1.0554
   64c3c    H10  418   2.489   2.252   1.360 -0.0981 -0.1620  0.0791
   64c3c    H11  419   2.651   2.314   1.396  0.7070 -1.9745  0.0722
   64c3c    H12  420   2.291   2.295   1.467  1.1351 -0.3143 -0.7392
   64c3c    H13  421   2.383   2.252   1.609 -1.4709  0.6665  1.5478
   64c3c     C7  422   2.259   2.424   1.644 -0.1047 -0.3667 -0.3761
   64c3c    H14  423   2.236   2.523   1.604 -0.2822 -0.4695 -0.5310
   64c3c    H15  424   2.307   2.436   1.741 -0.3267 -0.0815 -0.2997
   64c3c     C8  425   2.122   2.363   1.675 -0.0612  0.1441 -0.1879
   64c3c    H16  426   2.080   2.313   1.588  0.4859 -1.5374  0.4825
   64c3c    H17  427   2.053   2.434   1.721 -0.7071 -0.4998 -0.1380
   64c3c    H18  428   2.143   2.287   1.750 -1.0086  0.2673  0.2102
   65c3c      N  429   2.895   2.893   0.884 -0.1047 -0.1532 -0.1193
   65c3c     C1  430   2.822   2.771   0.898  1.1140 -0.1583 -0.0777
   65c3c     C2  431   2.826   2.984   0.978 -0.3710 -0.0639 -0.5177
   65c3c     C3  432   2.780   2.756   1.048  0.5542 -0.3369 -0.0904
   65c3c     C4  433   2.801   2.896   1.101 -0.5284 -0.3405 -0.1931
   65c3c     C5  434   3.037   2.880   0.919  0.4687  0.3821  0.1371
   65c3c     C6  435   2.897   2.949   0.747  0.1070  0.4321 -0.2656
   65c3c     H1  436   2.873   2.684   0.857  0.5313 -1.0739  1.1228
   65c3c     H2  437   2.729   2.777   0.843  0.7531 -1.5086  0.3637
   65c3c     H3  438   2.876   3.079   0.998 -0.3214 -0.3790  0.8460
   65c3c     H4  439   2.729   3.011   0.937 -0.7322  0.0611  0.4281
   65c3c     H5  440   2.844   2.687   1.104 -1.3356 -1.3431  0.8561
   65c3c     H6  441   2.677   2.725   1.061 -0.0714  2.0035  0.8874
   65c3c     H7  442   2.883   2.900   1.173 -0.5416  0.6087 -0.2171
   65c3c     H8  443   2.718   2.937   1.160  1.1104  0.9571  1.2591
   65c3c     H9  444   3.084   2.819   0.841  0.3421  1.4552 -0.7979
   65c3c    H10  445   3.093   2.974   0.924 -2.5915  2.3293 -0.5861
   65c3c    H11  446   3.068   2.836   1.013  2.3479 -0.1899 -0.7174
   65c3c    H12  447   2.941   3.049   0.749  0.5330  0.2467  2.7630
   65c3c    H13  448   2.965   2.895   0.681  1.3259  0.0250  1.2943
   65c3c     C7  449   2.761   2.958   0.677 -1.1446  0.1924  0.2354
   65c3c    H14  450   2.688   3.024   0.722  0.9384  1.6960  1.5067
   65c3c    H15  451   2.726   2.857   0.656  0.2728  0.0238 -1.4579
   65c3c     C8  452   2.791   3.004   0.534  0.5508 -0.5788  0.5351
   65c3c    H16  453   2.792   3.113   0.530  0.8378 -0.5906  0.2466
   65c3c    H17  454   2.719   2.957   0.468  1.0478 -1.2906  0.4998
   65c3c    H18  455   2.884   2.955   0.506  0.3668 -0.8376  0.3747
   66c3c      N  456   1.342   2.577   0.653 -0.3852 -0.1608  0.1090
   66c3c     C1  457   1.308   2.644   0.525  1.1800 -0.0978 -0.2959
   66c3c     C2  458   1.442   2.677   0.704  0.3081 -0.3025 -0.1494
   66c3c     C3  459   1.301   2.797   0.560 -0.4251  0.3725  0.1525
   66c3c     C4  460   1.381   2.812   0.687 -0.2573  0.0325 -0.5726
   66c3c     C5  461   1.215   2.586   0.733  0.2580  0.1661 -0.4342
   66c3c     C6  462   1.398   2.446   0.660  0.2223  0.4856 -0.3947
   66c3c     H1  463   1.221   2.604   0.471  0.8069 -0.6445  0.7074
   66c3c     H2  464   1.396   2.619   0.466  1.5582  0.0265  0.2201
   66c3c     H3  465   1.476   2.663   0.806  2.6801 -0.7870 -0.9750
   66c3c     H4  466   1.533   2.681   0.644 -1.9408  1.8401 -3.6359
   66c3c     H5  467   1.199   2.831   0.574  0.0642  1.0087  2.3855
   66c3c     H6  468   1.330   2.866   0.481 -1.0399  1.6487  1.0210
   66c3c     H7  469   1.314   2.844   0.766 -1.3002 -1.2122 -0.9423
   66c3c     H8  470   1.461   2.886   0.673  0.0767 -0.1971  0.0987
   66c3c     H9  471   1.126   2.530   0.705  0.2436 -0.3992  0.7057
   66c3c    H10  472   1.228   2.545   0.833  1.0159  0.8925 -0.2328
   66c3c    H11  473   1.186   2.687   0.761 -1.4241  0.4144 -2.9029
   66c3c    H12  474   1.424   2.421   0.763 -2.2280  1.5879  0.5331
   66c3c    H13  475   1.322   2.375   0.627 -1.1442  1.3460  0.8207
   66c3c     C7  476   1.527   2.418   0.570 -0.4702  0.3810 -0.1435
   66c3c    H14  477   1.612   2.481   0.596  0.6778 -0.1427 -2.5190
   66c3c    H15  478   1.494   2.429   0.467  0.7284  1.0561 -0.4478
   66c3c     C8  479   1.576   2.276   0.593 -0.2689 -0.5093  0.4074
   66c3c    H16  480   1.607   2.266   0.697 -1.2020 -1.2246  0.6244
   66c3c    H17  481   1.662   2.258   0.530  1.0809  1.4562  1.6325
   66c3c    H18  482   1.500   2.202   0.568  2.1691 -3.1244  0.5531
   67c3c      N  483   0.267   0.028   2.597  0.7064 -0.4579 -0.8218
   67c3c     C1  484   0.219  -0.060   2.703  0.0948 -0.0659  0.8760
   67c3c     C2  485   0.367  -0.052   2.530 -0.4781  0.0188 -0.0799
   67c3c     C3  486   0.189  -0.184   2.628  0.6226  0.4928 -0.7622
   67c3c     C4  487   0.302  -0.192   2.527 -0.8390  0.3760 -0.0703
   67c3c     C5  488   0.162   0.075   2.500  0.6607  0.1621  0.0474
   67c3c     C6  489   0.334   0.142   2.661 -0.4251  0.2052 -0.6535
   67c3c     H1  490   0.143  -0.032   2.776 -0.7775  0.3964 -0.1950
   67c3c     H2  491   0.296  -0.087   2.776 -0.6150  0.6717  1.9213
   67c3c     H3  492   0.397  -0.012   2.433 -0.2432  0.2421  0.0832
   67c3c     H4  493   0.458  -0.074   2.587  1.0654  0.0058 -2.4852
   67c3c     H5  494   0.096  -0.175   2.572  1.2503  3.0343 -1.4293
   67c3c     H6  495   0.184  -0.273   2.691  0.7200  2.0669  1.5105
   67c3c     H7  496   0.270  -0.212   2.425 -2.5403 -1.7481  0.8475
   67c3c     H8  497   0.372  -0.264   2.568 -0.7102  0.1353 -0.7015
   67c3c     H9  498   0.078   0.111   2.559 -0.0903 -1.8236  0.2131
   67c3c    H10  499   0.197   0.170   2.459  1.0968 -1.1479 -2.7014
   67c3c    H11  500   0.130   0.002   2.426  0.1765  0.9051 -0.4802
   67c3c    H12  501   0.355   0.213   2.582 -0.2425 -0.6693 -1.3938
   67c3c    H13  502   0.248   0.190   2.707 -1.0889 -1.3938 -0.2053
   67c3c     C7  503   0.450   0.132   2.769  0.3038 -0.3412  0.3411
   67c3c    H14  504   0.527   0.070   2.725 -0.4387 -1.5122  0.6852
   67c3c    H15  505   0.405   0.086   2.857  0.8092 -0.3685  0.5845
   67c3c     C8  506   0.503   0.269   2.822  0.1348 -0.6557 -0.4980
   67c3c    H16  507   0.553   0.321   2.740 -0.0698  1.4124  0.6441
   67c3c    H17  508   0.570   0.262   2.908 -0.6222 -1.2884  0.0441
   67c3c    H18  509   0.420   0.336   2.845  2.3684  1.8187  0.5428
   68c3c      N  510   0.195   0.184   1.902 -0.0126 -0.1280  0.0169
   68c3c     C1  511   0.223   0.240   1.763  0.9481  0.0604  0.0660
   68c3c     C2  512   0.328   0.184   1.969  0.2022  0.5424  0.1107
   68c3c     C3  513   0.324   0.355   1.791  0.2181  0.2958 -1.0336
   68c3c     C4  514   0.398   0.306   1.919  0.0694  0.6896  0.9093
   68c3c     C5  515   0.110   0.269   1.985  0.4543 -0.3318 -0.0548
   68c3c     C6  516   0.127   0.049   1.899  0.0713  0.2569  0.2012
   68c3c     H1  517   0.136   0.279   1.712  1.3292 -0.2633 -0.8391
   68c3c     H2  518   0.273   0.158   1.712  0.0076 -1.6033  1.7306
   68c3c     H3  519   0.321   0.175   2.077  0.4139  0.1389  0.0934
   68c3c     H4  520   0.392   0.106   1.927 -2.4115 -0.7205 -1.6603
   68c3c     H5  521   0.286   0.454   1.815  0.2535 -0.3520  1.7691
   68c3c     H6  522   0.386   0.374   1.703  1.6739 -1.5819 -0.4361
   68c3c     H7  523   0.390   0.371   2.006 -0.6537  0.8639  0.7115
   68c3c     H8  524   0.506   0.291   1.906  0.2122  1.9393  0.5892
   68c3c     H9  525   0.004   0.272   1.960  0.2530  2.1389  0.9398
   68c3c    H10  526   0.113   0.236   2.089 -1.8042 -0.2019  0.0611
   68c3c    H11  527   0.139   0.374   1.992  0.0353 -0.1281 -1.2017
   68c3c    H12  528   0.088   0.028   1.998 -1.7966 -3.1349 -1.1960
   68c3c    H13  529   0.041   0.053   1.832 -0.1750  1.3729  0.5704
   68c3c     C7  530   0.211  -0.071   1.851 -0.9705 -0.6269 -0.4644
   68c3c    H14  531   0.288  -0.101   1.922 -0.8123  1.5424  0.3259
   68c3c    H15  532   0.259  -0.041   1.758  0.5065 -1.5543 -0.0165
   68c3c     C8  533   0.117  -0.187   1.833  0.3820 -0.1621  0.2309
   68c3c    H16  534   0.166  -0.283   1.823 -0.7678 -1.0550  2.6567
   68c3c    H17  535   0.056  -0.166   1.745 -0.2015 -1.9359  0.1967
   68c3c    H18  536   0.060  -0.183   1.926 -0.7372 -3.2502 -0.2755
   69c3c      N  537   2.389   2.102   0.659 -0.3106  0.4267  0.6497
   69c3c     C1  538   2.357   2.003   0.552  0.4545 -0.6758  0.2819
   69c3c     C2  539   2.260   2.147   0.710 -0.2815  0.0957 -0.4044
   69c3c     C3  540   2.235   1.921   0.604 -0.1989  0.2287 -0.1841
   69c3c     C4  541   2.167   2.022   0.697  0.9116 -0.7952 -0.7796
   69c3c     C5  542   2.452   2.024   0.772 -0.3757 -0.6724  0.0157
   69c3c     C6  543   2.482   2.214   0.624 -0.6716  0.5412 -0.1891
   69c3c     H1  544   2.448   1.948   0.528 -1.2402 -4.1700  1.5385
   69c3c     H2  545   2.324   2.054   0.461 -0.6439 -0.3739  0.8300
   69c3c     H3  546   2.247   2.180   0.813 -0.2380  0.6301 -0.5732
   69c3c     H4  547   2.220   2.231   0.654  0.6797  1.3921  0.8269
   69c3c     H5  548   2.259   1.839   0.671 -0.1483  1.0462  0.8020
   69c3c     H6  549   2.171   1.874   0.530  2.6690 -1.6889 -1.5534
   69c3c     H7  550   2.136   1.985   0.795 -0.4720  1.2024 -0.4400
   69c3c     H8  551   2.091   2.075   0.641  1.0621  0.1440 -0.1044
   69c3c     H9  552   2.548   1.994   0.731 -1.0567 -0.1987 -1.9593
   69c3c    H10  553   2.475   2.082   0.862 -2.6787 -0.0788  0.2687
   69c3c    H11  554   2.407   1.931   0.807 -2.4065 -0.0673 -0.9065
   69c3c    H12  555   2.475   2.276   0.714 -0.0073  0.2327  0.0781
   69c3c    H13  556   2.583   2.178   0.608 -0.5604  0.6860  0.1819
   69c3c     C7  557   2.445   2.301   0.507 -0.0576 -0.3789  0.6550
   69c3c    H14  558   2.346   2.345   0.516 -0.4976 -1.3163  0.4633
   69c3c    H15  559   2.443   2.241   0.416  1.7526  2.5594 -1.4566
   69c3c     C8  560   2.538   2.418   0.482 -0.1350 -0.0206  0.2368
   69c3c    H16  561   2.535   2.490   0.563  0.1604 -2.4987  2.5142
   69c3c    H17  562   2.511   2.467   0.388  1.5834 -0.8963 -0.7465
   69c3c    H18  563   2.641   2.386   0.463  0.4833  3.1553 -2.1770
   70c3c      N  564   1.225   2.481   1.450  0.0092 -0.1824  0.1847
   70c3c     C1  565   1.128   2.577   1.502  1.0172  0.2572 -0.3920
   70c3c     C2  566   1.224   2.382   1.562 -0.1804 -0.2353  0.3232
   70c3c     C3  567   1.009   2.503   1.570 -0.5043  1.2065 -0.2917
   70c3c     C4  568   1.082   2.365   1.612 -0.1623 -0.2447 -0.1903
   70c3c     C5  569   1.173   2.429   1.322  0.5189 -0.4832  0.3914
   70c3c     C6  570   1.350   2.558   1.426 -1.3383 -0.3940 -0.3287
   70c3c     H1  571   1.108   2.655   1.429  1.2082 -0.5903 -1.3585
   70c3c     H2  572   1.170   2.633   1.587 -0.9366 -1.5754  1.8600
   70c3c     H3  573   1.267   2.286   1.534  0.1688 -0.3725  1.2886
   70c3c     H4  574   1.288   2.409   1.647 -0.2420  0.5533  0.1232
   70c3c     H5  575   0.934   2.470   1.498  2.1577 -2.2356 -1.6669
   70c3c     H6  576   0.965   2.559   1.652 -0.3222 -0.5825  1.0684
   70c3c     H7  577   1.035   2.277   1.569 -1.5144  0.4099 -0.0820
   70c3c     H8  578   1.084   2.359   1.721  1.1453  1.0955 -0.1278
   70c3c     H9  579   1.183   2.493   1.234  1.2091  1.0968  1.6118
   70c3c    H10  580   1.225   2.339   1.287  1.0635  0.3994 -1.1377
   70c3c    H11  581   1.064   2.421   1.317  0.2960  0.3243  3.2976
   70c3c    H12  582   1.418   2.491   1.372  0.8869 -0.5007  2.4794
   70c3c    H13  583   1.336   2.640   1.356  3.8537 -0.2776 -1.4448
   70c3c     C7  584   1.435   2.609   1.541  0.5914  0.8980 -0.4553
   70c3c    H14  585   1.457   2.524   1.606 -0.6566  0.4242 -0.6308
   70c3c    H15  586   1.369   2.676   1.596 -0.3491  0.9250 -1.6073
   70c3c     C8  587   1.563   2.674   1.504 -0.1492 -0.1280  0.1037
   70c3c    H16  588   1.543   2.744   1.423 -1.3769 -2.2334 -1.4454
   70c3c    H17  589   1.631   2.599   1.464 -0.6009 -0.0836 -0.7623
   70c3c    H18  590   1.625   2.721   1.581  0.3461  3.0228 -2.1155
   71c3c      N  591   2.617   0.897   1.018  0.1610  0.8341  0.7422
   71c3c     C1  592   2.671   0.837   0.897 -0.1953  0.8580 -0.7293
   71c3c     C2  593   2.692   0.817   1.116  0.5611  0.1413 -0.2108
   71c3c     C3  594   2.819   0.818   0.914  0.4352  0.2551  0.0563
   71c3c     C4  595   2.838   0.819   1.062 -0.1526  0.2495  0.1259
   71c3c     C5  596   2.647   1.039   1.021 -1.3467 -0.7998  0.7815
   71c3c     C6  597   2.470   0.898   1.018 -0.4236  0.1174 -0.0893
   71c3c     H1  598   2.656   0.897   0.807 -2.1480  1.1737 -0.2226
   71c3c     H2  599   2.622   0.743   0.871 -1.1084  1.0771  0.1489
   71c3c     H3  600   2.687   0.855   1.218 -0.5811 -1.3982  0.3144
   71c3c     H4  601   2.662   0.714   1.135  2.6049 -0.4849 -0.3117
   71c3c     H5  602   2.871   0.906   0.874  2.4564 -1.6809 -1.7242
   71c3c     H6  603   2.866   0.733   0.865  1.0543  1.3696 -1.3356
   71c3c     H7  604   2.878   0.909   1.107 -0.1000  0.7318 -0.8630
   71c3c     H8  605   2.900   0.732   1.083  1.0054  0.8375 -0.7856
   71c3c     H9  606   2.611   1.079   0.927  1.5713  0.4986  0.1438
   71c3c    H10  607   2.608   1.097   1.104 -0.1962  0.5585  0.3872
   71c3c    H11  608   2.755   1.055   1.015 -1.9007  2.3504 -1.6889
   71c3c    H12  609   2.428   0.952   1.102  0.3397 -1.2318  1.1776
   71c3c    H13  610   2.424   0.951   0.935  0.6198  0.4608 -0.4549
   71c3c     C7  611   2.395   0.759   1.018 -0.2944 -0.3529 -1.0761
   71c3c    H14  612   2.435   0.698   1.099  2.4211 -0.1272 -2.1800
   71c3c    H15  613   2.428   0.703   0.931  0.8125 -0.3519 -0.6680
   71c3c     C8  614   2.243   0.753   1.023  0.0774  0.6366  0.4595
   71c3c    H16  615   2.217   0.751   0.917 -1.4115  3.3026  0.7053
   71c3c    H17  616   2.200   0.838   1.077 -1.0390 -0.3240  1.0970
   71c3c    H18  617   2.202   0.662   1.067  2.3937 -0.4292  0.4614
   72c3c      N  618   2.098   0.582   0.043 -0.3463  0.2290  0.2705
   72c3c     C1  619   2.068   0.453   0.094  0.5958 -0.7043  1.0772
   72c3c     C2  620   2.133   0.664   0.162  0.7404 -0.5676  0.0611
   72c3c     C3  621   2.008   0.463   0.235 -0.0581 -0.2717  0.4255
   72c3c     C4  622   2.060   0.601   0.282 -0.3444 -0.0745 -0.2278
   72c3c     C5  623   2.202   0.573  -0.055 -0.0858  0.2316  0.3531
   72c3c     C6  624   1.982   0.649  -0.026  0.3569  0.2610 -0.0283
   72c3c     H1  625   2.163   0.402   0.110  0.9039 -0.6308 -0.4095
   72c3c     H2  626   2.009   0.389   0.028  1.5560 -1.0512  0.5445
   72c3c     H3  627   2.240   0.650   0.181  1.0888  0.5532 -1.0411
   72c3c     H4  628   2.122   0.771   0.148 -2.5895 -0.8842 -0.2118
   72c3c     H5  629   2.046   0.387   0.304 -0.5409 -0.7266  0.1842
   72c3c     H6  630   1.900   0.477   0.229 -0.2543  0.0464  3.7121
   72c3c     H7  631   2.131   0.580   0.362  1.2470  4.1778 -0.4303
   72c3c     H8  632   1.979   0.662   0.322  0.4266  2.2586 -2.1549
   72c3c     H9  633   2.186   0.493  -0.128  1.5702 -0.7142  0.9807
   72c3c    H10  634   2.202   0.665  -0.113 -1.5611  2.1099  3.2283
   72c3c    H11  635   2.306   0.559  -0.023 -0.2005  0.2906  0.7547
   72c3c    H12  636   2.018   0.750  -0.049  2.2767 -0.4384 -0.1984
   72c3c    H13  637   1.957   0.593  -0.116 -1.1535  1.9383 -0.6676
   72c3c     C7  638   1.843   0.662   0.047  0.6985 -0.4145  0.3998
   72c3c    H14  639   1.867   0.700   0.146  3.2580 -0.6830 -0.0912
   72c3c    H15  640   1.798   0.563   0.049 -1.6724  0.3828 -4.9852
   72c3c     C8  641   1.756   0.759  -0.033 -0.3008 -0.8601  0.2669
   72c3c    H16  642   1.663   0.779   0.019  0.6538 -0.0359  1.6910
   72c3c    H17  643   1.725   0.721  -0.130 -2.5974  1.3484  0.0911
   72c3c    H18  644   1.808   0.854  -0.049 -0.1985 -0.8091  0.9086
   73c3c      N  645   2.872   2.397   2.790  0.5163 -0.4797 -1.0692
   73c3c     C1  646   2.953   2.271   2.816 -0.1998 -0.3000 -0.2088
   73c3c     C2  647   2.895   2.465   2.913 -0.1399 -0.2592  0.4803
   73c3c     C3  648   3.077   2.309   2.900  0.1181 -0.6755 -0.1484
   73c3c     C4  649   3.044   2.444   2.956 -0.9018 -0.4088 -0.0012
   73c3c     C5  650   2.941   2.469   2.681 -0.5279  0.0661  0.0113
   73c3c     C6  651   2.732   2.377   2.753  0.2276 -0.6891  0.0531
   73c3c     H1  652   2.997   2.218   2.731  1.1925 -0.2672  0.4761
   73c3c     H2  653   2.900   2.204   2.884  0.4272 -0.1955  0.3833
   73c3c     H3  654   2.866   2.570   2.917  1.7489  0.4010 -1.9827
   73c3c     H4  655   2.836   2.426   2.996  1.2245 -0.0145  1.5874
   73c3c     H5  656   3.170   2.301   2.844  0.9469  2.3747  0.6811
   73c3c     H6  657   3.082   2.231   2.977  2.7700  0.6585  1.0875
   73c3c     H7  658   3.088   2.534   2.913 -1.5750 -0.5657 -1.0332
   73c3c     H8  659   3.051   2.441   3.065 -1.7403 -2.8108  0.0295
   73c3c     H9  660   2.952   2.412   2.589  0.7646  0.1444  0.1140
   73c3c    H10  661   2.906   2.569   2.657 -0.3409 -0.0330 -0.6780
   73c3c    H11  662   3.046   2.487   2.702 -0.7289  0.0760  1.0445
   73c3c    H12  663   2.682   2.473   2.736 -0.0984 -1.1484 -1.6887
   73c3c    H13  664   2.726   2.323   2.658 -0.2283 -1.1627  0.3526
   73c3c     C7  665   2.642   2.298   2.850 -0.2062  0.1154 -0.2723
   73c3c    H14  666   2.672   2.323   2.952 -0.0679  0.2661 -0.3483
   73c3c    H15  667   2.684   2.198   2.844  3.1635  1.4865 -0.5815
   73c3c     C8  668   2.492   2.300   2.822 -0.8384  0.1102  0.5489
   73c3c    H16  669   2.464   2.199   2.789 -0.1506 -0.0276  0.3871
   73c3c    H17  670   2.455   2.353   2.734 -2.0486 -2.6803 -0.7119
   73c3c    H18  671   2.423   2.318   2.904 -1.2260  0.2024  0.2078
   74c3c      N  672   0.989   1.764   1.550 -0.1248 -0.3409  0.2157
   74c3c     C1  673   0.997   1.665   1.661  0.0470 -0.0650 -0.2690
   74c3c     C2  674   0.926   1.708   1.435  0.1111  0.5491  0.1485
   74c3c     C3  675   0.874   1.582   1.635 -0.3376  0.3892 -0.3400
   74c3c     C4  676   0.818   1.618   1.501  0.5553 -0.4414 -0.0000
   74c3c     C5  677   0.895   1.869   1.587  0.3791 -0.2972  0.4035
   74c3c     C6  678   1.120   1.828   1.519 -0.0580  0.9411 -0.0174
   74c3c     H1  679   0.997   1.709   1.761 -0.8151 -1.2455  0.2529
   74c3c     H2  680   1.084   1.600   1.663 -0.7861 -1.2539 -1.5967
   74c3c     H3  681   0.885   1.775   1.359 -0.6234 -0.0444  0.0188
   74c3c     H4  682   0.994   1.645   1.378 -0.5895  1.6868 -2.0030
   74c3c     H5  683   0.805   1.609   1.716  1.1581  0.4804  0.9241
   74c3c     H6  684   0.899   1.477   1.644 -0.1123  0.4607 -0.1276
   74c3c     H7  685   0.723   1.671   1.508  0.8910  0.0960  0.6168
   74c3c     H8  686   0.800   1.534   1.435 -2.1298  1.1355 -1.3638
   74c3c     H9  687   0.920   1.906   1.687  1.2495 -2.1077  0.8629
   74c3c    H10  688   0.905   1.960   1.528 -0.6892 -0.6934 -0.3990
   74c3c    H11  689   0.787   1.855   1.590  0.5765 -1.9528  0.0889
   74c3c    H12  690   1.099   1.894   1.435  2.8114  0.4924 -1.1233
   74c3c    H13  691   1.157   1.874   1.611 -0.3634  0.8811  0.1375
   74c3c     C7  692   1.234   1.722   1.481 -0.1048  0.2248  0.1203
   74c3c    H14  693   1.202   1.645   1.411 -0.9683 -0.2979  1.0698
   74c3c    H15  694   1.281   1.672   1.566  3.0416  0.3675 -1.4554
   74c3c     C8  695   1.349   1.797   1.412  0.5271 -0.3119 -0.4865
   74c3c    H16  696   1.427   1.722   1.397  0.6604 -0.3813  0.4885
   74c3c    H17  697   1.401   1.861   1.484 -2.6303  1.0680  0.6281
   74c3c    H18  698   1.319   1.863   1.331  1.8659  1.4556  0.4089
   75c3c      N  699   1.736   0.866   2.520 -0.1238 -0.9020 -0.2847
   75c3c     C1  700   1.679   0.754   2.594 -0.0277  0.2592 -0.3830
   75c3c     C2  701   1.671   0.839   2.390  0.7448  0.4961 -0.1421
   75c3c     C3  702   1.534   0.738   2.550 -0.2727  0.9708 -0.4397
   75c3c     C4  703   1.526   0.795   2.411  0.3266 -0.1272 -0.0357
   75c3c     C5  704   1.690   0.997   2.572 -0.6247  0.4658  0.1686
   75c3c     C6  705   1.886   0.867   2.523  0.6623 -0.1967  0.5318
   75c3c     H1  706   1.693   0.756   2.702 -2.0939 -0.8158 -0.0734
   75c3c     H2  707   1.734   0.666   2.563  2.2925  2.3107 -2.3441
   75c3c     H3  708   1.669   0.926   2.324 -0.2705  1.6600  1.3999
   75c3c     H4  709   1.721   0.758   2.337 -1.1183  1.8681 -4.1762
   75c3c     H5  710   1.465   0.798   2.610  1.4976  2.0831  0.5134
   75c3c     H6  711   1.494   0.636   2.550 -0.3108  0.9791  0.6291
   75c3c     H7  712   1.452   0.875   2.405 -2.6481 -2.7844 -0.1013
   75c3c     H8  713   1.501   0.720   2.335  3.8324  0.4487 -1.8785
   75c3c     H9  714   1.724   1.007   2.675  0.9216  0.0455 -0.2921
   75c3c    H10  715   1.733   1.083   2.522  0.4726  0.3380  0.8856
   75c3c    H11  716   1.581   0.994   2.577 -0.7563 -0.8235 -2.5720
   75c3c    H12  717   1.917   0.958   2.472  0.5889  0.3348  1.4262
   75c3c    H13  718   1.911   0.871   2.629 -1.1515  2.9082  0.8933
   75c3c     C7  719   1.964   0.750   2.466  0.0479 -1.1857  0.5014
   75c3c    H14  720   1.946   0.744   2.358  0.8554 -2.0106  0.4065
   75c3c    H15  721   1.949   0.655   2.517  0.2748 -1.3188  0.3229
   75c3c     C8  722   2.116   0.768   2.509  0.4271  0.1091 -0.0914
   75c3c    H16  723   2.123   0.764   2.618  1.5431 -0.1118 -0.1630
   75c3c    H17  724   2.152   0.864   2.473 -0.3919  0.4893  0.0852
   75c3c    H18  725   2.178   0.685   2.475  1.1571  0.4106  0.4867
   76c3c      N  726   1.071   1.240   2.683  0.7258 -0.5586  0.0499
   76c3c     C1  727   1.187   1.171   2.739  0.3437 -0.1877 -0.5235
   76c3c     C2  728   1.137   1.326   2.582 -1.3092  0.1866 -0.0720
   76c3c     C3  729   1.284   1.149   2.622 -0.0531  0.5526 -0.6806
   76c3c     C4  730   1.248   1.247   2.513 -0.3855  0.7686 -0.4036
   76c3c     C5  731   0.999   1.130   2.621 -0.2313  0.5463  1.0987
   76c3c     C6  732   0.977   1.305   2.777 -0.3395  0.3004  0.0222
   76c3c     H1  733   1.175   1.082   2.801 -1.2460  2.7922  3.6978
   76c3c     H2  734   1.238   1.245   2.801 -0.9821 -0.2481  0.6736
   76c3c     H3  735   1.076   1.369   2.503  0.1967  1.2825 -0.6740
   76c3c     H4  736   1.185   1.410   2.632  2.3552  0.0638 -3.1368
   76c3c     H5  737   1.289   1.046   2.585 -0.2294 -0.1690  1.2082
   76c3c     H6  738   1.387   1.175   2.647 -0.1953  1.1592 -0.7309
   76c3c     H7  739   1.211   1.200   2.422  0.6379  0.2240 -0.5461
   76c3c     H8  740   1.331   1.303   2.470  0.1492  0.1832 -0.1383
   76c3c     H9  741   0.966   1.049   2.686  0.3827 -0.7845 -0.2224
   76c3c    H10  742   0.910   1.180   2.583  0.2922  1.9991  1.7173
   76c3c    H11  743   1.043   1.087   2.531 -0.9760 -0.1368  1.0606
   76c3c    H12  744   0.880   1.337   2.740 -0.7461 -0.0041  0.8189
   76c3c    H13  745   0.960   1.231   2.855  0.3940  0.6411  0.5100
   76c3c     C7  746   1.030   1.423   2.864 -0.0388 -0.2274  0.0853
   76c3c    H14  747   1.065   1.512   2.811 -1.0487 -0.8370 -1.6659
   76c3c    H15  748   1.125   1.400   2.911 -0.1051  0.2086  0.4273
   76c3c     C8  749   0.919   1.469   2.956  0.3915  0.0130 -0.5149
   76c3c    H16  750   0.819   1.475   2.912  0.5708 -0.3666 -0.9835
   76c3c    H17  751   0.950   1.559   3.008  2.1247  0.6140 -2.4780
   76c3c    H18  752   0.903   1.386   3.024  0.2813  0.4911  0.0459
   77c3c      N  753   3.027   0.734   1.951 -0.7186  0.4038  0.3714
   77c3c     C1  754   3.130   0.832   1.986  0.3533  0.1115 -0.2222
   77c3c     C2  755   2.907   0.805   1.993  0.4828  0.3575 -0.3988
   77c3c     C3  756   3.078   0.975   1.955  0.3917 -0.1526  0.8051
   77c3c     C4  757   2.924   0.954   1.940 -0.1490  0.6885 -0.6067
   77c3c     C5  758   3.014   0.713   1.803 -0.5109 -0.3865 -0.3325
   77c3c     C6  759   3.040   0.607   2.023  0.3575  0.0593  0.8548
   77c3c     H1  760   3.231   0.826   1.945 -0.0004 -0.7284 -0.9876
   77c3c     H2  761   3.148   0.830   2.093 -2.3546 -1.1368  0.2525
   77c3c     H3  762   2.812   0.760   1.965 -0.2643  1.0464  0.9871
   77c3c     H4  763   2.907   0.804   2.102  1.2926  0.5988 -0.3881
   77c3c     H5  764   3.126   0.993   1.858  0.1051 -1.5862  0.3830
   77c3c     H6  765   3.094   1.053   2.029  1.8552 -0.3157  0.6774
   77c3c     H7  766   2.896   0.975   1.837 -0.6528 -0.0683 -0.6245
   77c3c     H8  767   2.873   1.020   2.010  1.8428  2.7408 -1.0304
   77c3c     H9  768   3.099   0.651   1.772 -1.2633 -0.9279 -1.3540
   77c3c    H10  769   2.932   0.647   1.774 -0.8525  0.6995 -1.8803
   77c3c    H11  770   2.998   0.797   1.736 -0.1516 -0.3437 -0.3671
   77c3c    H12  771   2.945   0.554   2.012  0.1156  0.3497  1.5179
   77c3c    H13  772   3.128   0.558   1.982  1.9813  1.8958  2.0757
   77c3c     C7  773   3.055   0.605   2.180 -0.0338 -0.3671  0.0935
   77c3c    H14  774   2.991   0.676   2.232 -0.5199 -1.5969  1.1744
   77c3c    H15  775   3.155   0.645   2.194 -0.3673  0.4026  0.3138
   77c3c     C8  776   3.035   0.459   2.232 -0.2794 -0.1100 -0.0716
   77c3c    H16  777   2.939   0.419   2.202 -0.8564  2.1285 -1.2416
   77c3c    H17  778   3.034   0.470   2.341  0.3178  3.0658 -0.3528
   77c3c    H18  779   3.114   0.394   2.195  0.0666 -0.1139  0.6486
   78c3c      N  780   0.153   0.609   0.481  0.1618  0.1947  0.2336
   78c3c     C1  781   0.147   0.742   0.426  0.1985  0.6948 -0.1444
   78c3c     C2  782   0.077   0.611   0.605 -0.7084  0.1792  0.5685
   78c3c     C3  783   0.010   0.804   0.457  0.3503  0.5046  0.3638
   78c3c     C4  784  -0.028   0.723   0.582  0.1493  0.3359  0.5281
   78c3c     C5  785   0.079   0.519   0.389  0.3983 -0.4501  0.1458
   78c3c     C6  786   0.283   0.552   0.500 -0.5724 -0.2685 -0.1197
   78c3c     H1  787   0.160   0.730   0.318  3.2212  0.1600  0.2221
   78c3c     H2  788   0.225   0.807   0.463 -0.3396  0.6092  1.1663
   78c3c     H3  789   0.034   0.512   0.622  0.3561 -0.1992  1.1072
   78c3c     H4  790   0.140   0.621   0.694  1.2347  2.2170 -0.9906
   78c3c     H5  791  -0.061   0.793   0.375 -0.8941 -1.5131  1.6482
   78c3c     H6  792   0.027   0.908   0.483  2.6707  0.4019 -0.5667
   78c3c     H7  793  -0.119   0.664   0.574  0.4666 -0.0417 -0.5214
   78c3c     H8  794  -0.024   0.787   0.670  3.1596 -0.0003  0.7024
   78c3c     H9  795   0.133   0.518   0.293  1.8325 -0.4253  0.9343
   78c3c    H10  796   0.095   0.415   0.415 -0.7524 -1.4586 -2.9349
   78c3c    H11  797  -0.026   0.543   0.376  0.4771 -0.6769 -1.0227
   78c3c    H12  798   0.267   0.473   0.573  1.6633 -0.2957  0.3455
   78c3c    H13  799   0.339   0.505   0.419 -0.4501 -0.8278  0.2861
   78c3c     C7  800   0.387   0.647   0.562 -0.4847  0.5630 -0.3795
   78c3c    H14  801   0.357   0.720   0.637  2.6690  0.2789  1.2394
   78c3c    H15  802   0.428   0.716   0.488  1.4969 -1.0741 -0.8640
   78c3c     C8  803   0.499   0.574   0.628 -0.8854  0.3685 -0.4265
   78c3c    H16  804   0.567   0.639   0.684  1.4750 -2.4496  0.0790
   78c3c    H17  805   0.550   0.519   0.549 -0.7099 -1.5680  1.0086
   78c3c    H18  806   0.455   0.499   0.694  1.1165  0.6345  1.2618
   79c3c      N  807   1.089   0.152   2.475  0.1632  0.5991 -0.2432
   79c3c     C1  808   1.166   0.278   2.485  0.0960  0.0865  0.2970
   79c3c     C2  809   0.978   0.185   2.380 -0.2815 -0.4997 -0.7630
   79c3c     C3  810   1.163   0.333   2.342  0.1038 -0.1714  0.3316
   79c3c     C4  811   1.046   0.261   2.268  0.7779 -0.3263  0.4386
   79c3c     C5  812   1.182   0.047   2.414 -0.1291 -0.3402  0.4389
   79c3c     C6  813   1.036   0.090   2.599 -0.2049 -0.6212 -0.2739
   79c3c     H1  814   1.270   0.269   2.518  0.7144  0.4286 -1.5007
   79c3c     H2  815   1.118   0.351   2.549 -1.4426  0.3505 -1.1292
   79c3c     H3  816   0.925   0.105   2.328 -1.6485  0.1598 -0.3875
   79c3c     H4  817   0.905   0.254   2.422  0.7832 -0.6309  1.4009
   79c3c     H5  818   1.251   0.306   2.284 -0.1391 -1.9806  0.7747
   79c3c     H6  819   1.150   0.441   2.334 -0.0506 -0.2898 -1.1940
   79c3c     H7  820   1.069   0.196   2.184 -1.0749 -1.4976  0.7970
   79c3c     H8  821   0.978   0.338   2.231 -0.6138 -1.8934 -0.3406
   79c3c     H9  822   1.254   0.019   2.492  2.1925 -1.7379 -2.1066
   79c3c    H10  823   1.133  -0.046   2.386 -1.4945  0.4785  0.0643
   79c3c    H11  824   1.243   0.074   2.328 -2.4349 -2.2282 -1.8624
   79c3c    H12  825   0.975   0.002   2.579 -1.7022  0.4705 -0.6490
   79c3c    H13  826   1.116   0.057   2.665 -0.4466  0.7630  0.7567
   79c3c     C7  827   0.946   0.184   2.678 -0.2324 -0.4485  0.7754
   79c3c    H14  828   0.844   0.190   2.639  0.1863  1.0772 -0.1363
   79c3c    H15  829   0.985   0.286   2.687 -0.3848 -0.3517  0.3668
   79c3c     C8  830   0.919   0.125   2.821  0.1708  0.1109 -0.3711
   79c3c    H16  831   1.008   0.122   2.884  0.7461  2.2310 -1.0209
   79c3c    H17  832   0.884   0.024   2.804 -0.3027 -0.1086  1.8042
   79c3c    H18  833   0.847   0.189   2.872  1.1823  0.4983  0.5843
   80c3c      N  834   3.124   2.408   1.001 -0.2735 -0.1377  0.5239
   80c3c     C1  835   3.140   2.268   1.048 -0.1423  0.3179  0.0851
   80c3c     C2  836   3.021   2.461   1.085 -0.1568 -0.2595  0.1355
   80c3c     C3  837   3.128   2.270   1.202  0.0578 -0.4082 -0.0250
   80c3c     C4  838   3.045   2.398   1.226  1.1900  0.3277 -0.2311
   80c3c     C5  839   3.253   2.482   1.022 -0.1956  0.0206  0.2218
   80c3c     C6  840   3.100   2.418   0.848 -0.3131  0.5353 -0.5133
   80c3c     H1  841   3.221   2.208   1.006 -0.3212  1.2938 -1.7452
   80c3c     H2  842   3.047   2.215   1.028 -0.5431  0.8145  0.6068
   80c3c     H3  843   3.019   2.570   1.083  3.2825 -0.1601 -0.4753
   80c3c     H4  844   2.922   2.426   1.058  0.0451 -0.8305  0.1329
   80c3c     H5  845   3.225   2.279   1.250  0.2104 -0.1855 -0.3742
   80c3c     H6  846   3.086   2.181   1.249  1.2314 -0.1542  1.5701
   80c3c     H7  847   3.093   2.464   1.298 -1.7585 -1.4229  3.5226
   80c3c     H8  848   2.948   2.384   1.274  1.8841 -0.6376  0.9038
   80c3c     H9  849   3.331   2.434   0.964 -0.0526 -1.3439  1.5201
   80c3c    H10  850   3.249   2.587   0.992 -1.4232  0.2721  1.2257
   80c3c    H11  851   3.278   2.484   1.128 -1.4212  0.0151  0.5146
   80c3c    H12  852   3.137   2.507   0.797  0.4221 -0.4676 -1.7558
   80c3c    H13  853   3.162   2.339   0.805  0.5614  0.7488  0.3233
   80c3c     C7  854   2.957   2.398   0.798 -0.4198 -0.0883 -0.4701
   80c3c    H14  855   2.892   2.472   0.845 -0.4371 -1.5651  1.8925
   80c3c    H15  856   2.929   2.299   0.834  1.0997 -0.1670  0.4823
   80c3c     C8  857   2.938   2.410   0.648  0.0816  0.4893  0.7874
   80c3c    H16  858   2.941   2.516   0.626  1.3246  0.6243  1.5810
   80c3c    H17  859   2.842   2.372   0.611  1.2536  0.5494 -2.4520
   80c3c    H18  860   3.014   2.356   0.592 -2.1376 -0.4586 -1.4142
   81c3c      N  861   1.199   0.109   0.236  0.0861  0.0897 -0.4864
   81c3c     C1  862   1.316   0.024   0.211 -0.2082  0.4994 -0.6402
   81c3c     C2  863   1.174   0.159   0.102  0.0683  0.4538 -0.1057
   81c3c     C3  864   1.281  -0.060   0.088  0.3156 -0.6484 -0.1846
   81c3c     C4  865   1.200   0.045   0.007 -0.6632  0.7173  0.6094
   81c3c     C5  866   1.090   0.021   0.286 -0.1986  0.8757 -0.1484
   81c3c     C6  867   1.217   0.221   0.336 -0.7410  0.2307  0.4154
   81c3c     H1  868   1.334  -0.045   0.294  0.5042  0.9333 -0.4370
   81c3c     H2  869   1.408   0.077   0.188 -0.4123  1.1054 -0.0638
   81c3c     H3  870   1.074   0.202   0.096 -0.4139 -0.6942 -0.4178
   81c3c     H4  871   1.242   0.240   0.075  0.2894  0.3253  0.0610
   81c3c     H5  872   1.216  -0.144   0.113 -0.4060 -0.7103 -2.2051
   81c3c     H6  873   1.365  -0.098   0.030  0.1956 -0.5702 -0.4115
   81c3c     H7  874   1.106   0.001  -0.026 -0.1795 -0.4753  0.8023
   81c3c     H8  875   1.249   0.070  -0.087 -0.1021 -0.8568  0.4679
   81c3c     H9  876   1.125  -0.037   0.372  2.1450  1.1441 -0.8818
   81c3c    H10  877   1.005   0.082   0.317 -1.2263 -0.0515 -1.1298
   81c3c    H11  878   1.051  -0.040   0.206 -1.7645 -0.3785  1.5261
   81c3c    H12  879   1.124   0.260   0.377 -0.3890  0.5128  0.9433
   81c3c    H13  880   1.259   0.181   0.428  0.2509 -2.7706 -1.2653
   81c3c     C7  881   1.313   0.330   0.292  0.3887 -0.4614  1.1767
   81c3c    H14  882   1.271   0.398   0.218  0.6671  0.1353  1.5662
   81c3c    H15  883   1.403   0.288   0.248 -0.6014 -1.8890  0.4423
   81c3c     C8  884   1.364   0.406   0.409  0.8021 -0.3401 -0.2131
   81c3c    H16  885   1.448   0.468   0.376  0.0785  0.1884 -1.0830
   81c3c    H17  886   1.398   0.335   0.484 -1.8028 -0.0286  1.3143
   81c3c    H18  887   1.288   0.466   0.458 -0.4700 -3.1603  1.3487
   82c3c      N  888   0.096   0.455   1.227 -0.5851 -0.4237 -0.2605
   82c3c     C1  889  -0.038   0.384   1.217 -0.3364 -0.6200 -0.3026
   82c3c     C2  890   0.080   0.575   1.147  0.3134 -0.2917  0.2911
   82c3c     C3  891  -0.142   0.501   1.219  0.1259  0.2368 -0.5655
   82c3c     C4  892  -0.058   0.631   1.182  0.1575  0.4466  0.0670
   82c3c     C5  893   0.109   0.485   1.375  0.1283 -0.0363 -0.4606
   82c3c     C6  894   0.222   0.379   1.192  0.4590 -0.1244  0.1584
   82c3c     H1  895  -0.071   0.311   1.291 -0.8789 -1.6415 -1.5297
   82c3c     H2  896  -0.041   0.320   1.128  1.1960 -0.9203 -0.1589
   82c3c     H3  897   0.161   0.646   1.160 -0.2965  0.5951 -0.7088
   82c3c     H4  898   0.078   0.548   1.042  0.9012 -0.5008  0.3358
   82c3c     H5  899  -0.188   0.497   1.317 -1.1296 -1.1155 -1.1991
   82c3c     H6  900  -0.209   0.485   1.135 -0.5866 -0.4912  0.1279
   82c3c     H7  901  -0.048   0.697   1.269  0.1898  0.3254  0.1562
   82c3c     H8  902  -0.093   0.696   1.103  0.4490  0.4469 -0.0617
   82c3c     H9  903   0.113   0.393   1.432  0.1166  0.4010  0.2462
   82c3c    H10  904   0.192   0.552   1.398 -0.4262  0.9562 -1.3028
   82c3c    H11  905   0.018   0.536   1.407  1.5047  1.5260  1.0722
   82c3c    H12  906   0.308   0.436   1.226  1.8328 -2.7757  1.1622
   82c3c    H13  907   0.220   0.287   1.250 -3.0617 -1.2825 -1.6307
   82c3c     C7  908   0.242   0.326   1.050  0.3070  0.3649  0.1833
   82c3c    H14  909   0.254   0.402   0.973 -0.9657  0.9261  0.5214
   82c3c    H15  910   0.160   0.262   1.017  0.4175 -0.4110  1.3614
   82c3c     C8  911   0.373   0.244   1.039 -0.1675 -0.2566  0.4874
   82c3c    H16  912   0.386   0.209   0.937 -1.7065 -0.9551  0.5147
   82c3c    H17  913   0.369   0.154   1.100  0.9935 -1.5763 -1.3385
   82c3c    H18  914   0.458   0.312   1.053  2.1911 -3.0728  0.1920
   83c3c      N  915   2.492   0.096   2.065 -0.1173 -0.6153  0.3234
   83c3c     C1  916   2.513   0.237   2.111 -0.1782  0.5144  0.3365
   83c3c     C2  917   2.581   0.027   2.159 -0.3475  0.1641 -0.1853
   83c3c     C3  918   2.520   0.235   2.267  0.5092  0.0336 -0.5793
   83c3c     C4  919   2.558   0.087   2.297  0.0132  0.0898  0.1527
   83c3c     C5  920   2.353   0.052   2.091 -0.1921  0.6616  0.5217
   83c3c     C6  921   2.514   0.077   1.919 -0.9644 -0.6950 -0.7692
   83c3c     H1  922   2.429   0.301   2.083 -0.0015 -0.8938 -3.6657
   83c3c     H2  923   2.609   0.274   2.074  0.1312 -0.4722  0.1324
   83c3c     H3  924   2.568  -0.081   2.153 -0.4451  0.0075  2.3269
   83c3c     H4  925   2.686   0.048   2.139 -0.9279  2.5348 -1.0431
   83c3c     H5  926   2.420   0.260   2.300 -0.1579 -0.1597 -2.4148
   83c3c     H6  927   2.588   0.314   2.299  0.2804 -0.5569  1.4312
   83c3c     H7  928   2.473   0.045   2.351  0.9304  0.2435  1.7516
   83c3c     H8  929   2.644   0.074   2.363  0.2861  0.3897 -0.1353
   83c3c     H9  930   2.285   0.102   2.021 -0.6024 -0.2047  0.2907
   83c3c    H10  931   2.339  -0.056   2.091 -0.1015  0.6318  2.8855
   83c3c    H11  932   2.323   0.060   2.195  1.1839 -0.4150  1.0095
   83c3c    H12  933   2.478  -0.021   1.887  0.7758 -1.0424 -1.7214
   83c3c    H13  934   2.446   0.145   1.867 -1.0957  0.1993  0.5473
   83c3c     C7  935   2.663   0.096   1.877  0.1318 -0.3149  0.2915
   83c3c    H14  936   2.722   0.009   1.905  1.6998  0.1880 -1.3525
   83c3c    H15  937   2.712   0.185   1.918  0.2538  0.7872 -2.1677
   83c3c     C8  938   2.672   0.107   1.721 -0.1385 -0.3968  0.1823
   83c3c    H16  939   2.623   0.024   1.669 -0.3866  0.5295 -1.0837
   83c3c    H17  940   2.771   0.085   1.680 -2.2817 -0.2101 -5.6308
   83c3c    H18  941   2.634   0.203   1.686  1.2402  0.7244  1.6850
   84c3c      N  942   0.848   1.070   0.093 -0.3595  0.0707  0.1945
   84c3c     C1  943   0.990   1.079   0.052  0.2649  0.4461 -0.5578
   84c3c     C2  944   0.827   1.170   0.198 -0.0673  0.3684  0.0797
   84c3c     C3  945   1.028   1.228   0.074 -0.6867 -0.2071 -0.3588
   84c3c     C4  946   0.926   1.291   0.166 -0.6869 -0.4186  0.0842
   84c3c     C5  947   0.765   1.108  -0.025  0.0844 -0.7166  0.8416
   84c3c     C6  948   0.809   0.931   0.131  0.1771 -0.2770 -0.4090
   84c3c     H1  949   1.009   1.050  -0.052 -0.7779 -0.8407 -0.3906
   84c3c     H2  950   1.052   1.026   0.125 -0.4055  0.5418  0.0812
   84c3c     H3  951   0.723   1.202   0.193  0.8228  3.4116  0.0049
   84c3c     H4  952   0.853   1.136   0.298 -2.6938  0.5702  0.8593
   84c3c     H5  953   1.040   1.289  -0.016  2.0820  0.5559  0.4955
   84c3c     H6  954   1.121   1.225   0.130 -0.4064 -1.3554 -0.8618
   84c3c     H7  955   0.875   1.368   0.108  0.8536  1.0462  0.6507
   84c3c     H8  956   0.973   1.339   0.252 -0.8305  1.8975 -1.1181
   84c3c     H9  957   0.769   1.044  -0.114 -2.8326  0.6831 -0.3563
   84c3c    H10  958   0.661   1.127  -0.001  0.3052  1.6711  0.0783
   84c3c    H11  959   0.784   1.204  -0.073  0.8885 -1.6729 -0.8093
   84c3c    H12  960   0.700   0.931   0.133  0.0438  3.8681 -1.7927
   84c3c    H13  961   0.838   0.870   0.045  0.4606  0.3434 -0.7569
   84c3c     C7  962   0.849   0.860   0.265 -0.0830 -0.3760  0.0191
   84c3c    H14  963   0.792   0.903   0.347  0.4495 -0.6645  0.5509
   84c3c    H15  964   0.954   0.887   0.280  0.7694 -2.6295 -1.5187
   84c3c     C8  965   0.828   0.709   0.274 -0.1047 -0.1436  0.3247
   84c3c    H16  966   0.792   0.663   0.366  0.6746  2.1883  1.8303
   84c3c    H17  967   0.919   0.657   0.246  1.1371  1.2789  1.6344
   84c3c    H18  968   0.757   0.674   0.199 -0.1884 -0.7333  0.6735
   85c3c      N  969   0.501   1.192   2.576 -0.5060  0.9192 -0.1792
   85c3c     C1  970   0.414   1.101   2.502 -0.1928  0.0775 -1.1454
   85c3c     C2  971   0.573   1.106   2.671  0.2949 -0.5181 -0.1387
   85c3c     C3  972   0.510   0.985   2.466 -0.2100 -0.0911  0.5835
   85c3c     C4  973   0.589   0.977   2.591 -0.9955  0.2887  1.0676
   85c3c     C5  974   0.601   1.254   2.485  0.1010 -0.0725  0.0518
   85c3c     C6  975   0.427   1.300   2.646 -0.0127 -1.0082  0.4748
   85c3c     H1  976   0.369   1.146   2.413  2.7113  3.2155 -1.1578
   85c3c     H2  977   0.335   1.058   2.563  1.7220 -0.0290  1.3224
   85c3c     H3  978   0.664   1.147   2.715  1.3521 -1.9859 -0.9148
   85c3c     H4  979   0.518   1.087   2.762  1.7300 -1.2184  0.5986
   85c3c     H5  980   0.572   1.008   2.380 -1.2379 -1.0474 -0.4407
   85c3c     H6  981   0.462   0.888   2.448 -1.6764  0.8851 -0.9463
   85c3c     H7  982   0.690   0.952   2.561 -1.5775  0.9869 -1.6456
   85c3c     H8  983   0.549   0.901   2.658  0.5234 -0.2930  1.3097
   85c3c     H9  984   0.561   1.276   2.386  0.4735 -0.5390 -0.2080
   85c3c    H10  985   0.636   1.347   2.529 -0.7653  0.5542 -0.5604
   85c3c    H11  986   0.687   1.189   2.471 -0.3295 -0.6516  0.0561
   85c3c    H12  987   0.508   1.353   2.696 -0.7799  0.4428  0.2263
   85c3c    H13  988   0.382   1.364   2.569 -1.8622 -1.1060  1.4349
   85c3c     C7  989   0.323   1.260   2.757 -0.6804 -0.2213 -0.1394
   85c3c    H14  990   0.385   1.232   2.843  2.5549  0.1489 -2.2572
   85c3c    H15  991   0.256   1.178   2.734  0.0968 -0.6390 -0.9223
   85c3c     C8  992   0.236   1.386   2.793  0.0445 -0.0641 -0.4180
   85c3c    H16  993   0.165   1.354   2.869 -0.0855  1.0120 -0.0926
   85c3c    H17  994   0.185   1.426   2.706 -2.4314 -1.5256  0.3133
   85c3c    H18  995   0.307   1.459   2.832 -0.4687 -1.4316  3.2954
   86c3c      N  996   2.616   1.777   1.410  0.2502  0.4386 -0.4603
   86c3c     C1  997   2.540   1.897   1.449  0.0434  0.2199 -0.1127
   86c3c     C2  998   2.705   1.751   1.530 -0.1914 -0.0512  0.0111
   86c3c     C3  999   2.536   1.889   1.603  0.0342 -0.3418 -0.8068
   86c3c     C4 1000   2.627   1.772   1.650  0.0851 -0.0628  0.2362
   86c3c     C5 1001   2.509   1.668   1.387  0.9322  0.3306 -0.6684
   86c3c     C6 1002   2.690   1.791   1.283 -0.2007  0.0439 -0.6718
   86c3c     H1 1003   2.447   1.907   1.394  0.5637  0.7144 -0.9029
   86c3c     H2 1004   2.608   1.981   1.435  1.2444 -0.7571 -0.2809
   86c3c     H3 1005   2.749   1.651   1.541  0.3967  0.4053  1.9277
   86c3c     H4 1006   2.796   1.811   1.527 -0.9872  1.1021 -1.8214
   86c3c     H5 1007   2.435   1.890   1.644  0.8482 -3.0364  1.4153
   86c3c     H6 1008   2.586   1.980   1.636 -0.7211 -0.3025  0.2494
   86c3c     H7 1009   2.572   1.687   1.691 -0.8545  0.6054  0.3798
   86c3c     H8 1010   2.689   1.804   1.734  2.0812 -0.5266 -1.0257
   86c3c     H9 1011   2.451   1.696   1.299  1.2240  1.9418 -0.3627
   86c3c    H10 1012   2.547   1.569   1.361  1.3381  0.1530  0.5780
   86c3c    H11 1013   2.437   1.655   1.468  0.6136  1.5784 -0.7402
   86c3c    H12 1014   2.733   1.691   1.271  0.4160  0.2011  0.2212
   86c3c    H13 1015   2.620   1.787   1.199 -1.8452  0.6069  0.6572
   86c3c     C7 1016   2.799   1.899   1.251  0.6464  0.1579  0.1982
   86c3c    H14 1017   2.875   1.882   1.327 -3.2666 -1.4712  3.9614
   86c3c    H15 1018   2.762   2.001   1.264 -0.3670  0.1416 -2.2034
   86c3c     C8 1019   2.865   1.875   1.121 -0.1450  0.2306  0.1111
   86c3c    H16 1020   2.904   1.773   1.119  0.5940  0.5077 -0.2383
   86c3c    H17 1021   2.947   1.945   1.108 -0.6746  0.5759 -1.5556
   86c3c    H18 1022   2.808   1.888   1.029  0.5309 -0.3089 -0.3905
   87c3c      N 1023   2.560   0.244   1.157 -0.3117 -1.2265  0.3915
   87c3c     C1 1024   2.661   0.332   1.103 -0.2054  0.1743  0.0722
   87c3c     C2 1025   2.635   0.136   1.225  0.3658  0.0480  0.2618
   87c3c     C3 1026   2.757   0.335   1.225 -0.2896 -0.0947 -0.4844
   87c3c     C4 1027   2.744   0.201   1.304  0.4234  0.1901  1.1918
   87c3c     C5 1028   2.479   0.301   1.264 -0.5378 -0.0525 -1.4055
   87c3c     C6 1029   2.469   0.196   1.052 -0.0517 -0.0262 -0.3871
   87c3c     H1 1030   2.627   0.432   1.077  1.9383 -0.1481 -4.4550
   87c3c     H2 1031   2.721   0.303   1.017  0.7992  2.0034  0.1369
   87c3c     H3 1032   2.581   0.064   1.286  0.8602  0.1364  0.8119
   87c3c     H4 1033   2.682   0.074   1.149 -2.4344  1.1371 -2.4674
   87c3c     H5 1034   2.759   0.426   1.285 -0.8132 -0.0763 -0.4964
   87c3c     H6 1035   2.854   0.331   1.174  0.2014  0.6047  0.3844
   87c3c     H7 1036   2.716   0.217   1.408 -2.4515 -0.5981  0.5653
   87c3c     H8 1037   2.839   0.147   1.310  0.8565  0.6838 -1.0011
   87c3c     H9 1038   2.427   0.388   1.222 -2.9056 -1.4367 -1.4471
   87c3c    H10 1039   2.396   0.239   1.298 -1.0311  2.3532  2.1107
   87c3c    H11 1040   2.533   0.342   1.349  0.2276 -1.0422 -1.4074
   87c3c    H12 1041   2.383   0.144   1.095 -1.3425  1.4495 -1.1434
   87c3c    H13 1042   2.424   0.281   1.001  1.9299  0.6654 -1.0165
   87c3c     C7 1043   2.537   0.106   0.945 -0.0483  0.0076  0.4841
   87c3c    H14 1044   2.588   0.019   0.985 -0.0163 -0.1167  0.1732
   87c3c    H15 1045   2.614   0.168   0.899 -0.8390  0.4131 -0.2924
   87c3c     C8 1046   2.434   0.076   0.831  0.1651  0.9828 -0.0385
   87c3c    H16 1047   2.380   0.164   0.795 -0.8255  1.0056  1.4416
   87c3c    H17 1048   2.361   0.010   0.877  2.3517  0.3454  2.6000
   87c3c    H18 1049   2.479   0.044   0.737  0.0885  1.3422 -0.2012
   88c3c      N 1050   0.158   1.694   0.387  0.2579  0.1328  0.1280
   88c3c     C1 1051   0.301   1.717   0.398  0.2279  0.6787 -0.1749
   88c3c     C2 1052   0.123   1.826   0.324 -0.5316  0.1070 -0.4165
   88c3c     C3 1053   0.347   1.778   0.264  0.4403 -0.4794 -0.0762
   88c3c     C4 1054   0.221   1.842   0.211  0.3562 -0.0304 -0.5084
   88c3c     C5 1055   0.122   1.573   0.309  0.3316 -0.4242 -1.0129
   88c3c     C6 1056   0.098   1.673   0.521  0.5322 -0.1126  0.1723
   88c3c     H1 1057   0.360   1.627   0.410  2.0905  1.9298  0.2236
   88c3c     H2 1058   0.322   1.793   0.473  1.8207  0.1848 -0.1071
   88c3c     H3 1059   0.018   1.840   0.303 -1.0628 -0.9558  1.4191
   88c3c     H4 1060   0.142   1.912   0.388  1.3038 -1.2614  0.9567
   88c3c     H5 1061   0.371   1.700   0.192 -1.3585 -1.2812  0.1601
   88c3c     H6 1062   0.435   1.841   0.279  2.4508 -2.9266 -1.1876
   88c3c     H7 1063   0.193   1.801   0.114 -2.0672  1.1262 -0.3481
   88c3c     H8 1064   0.237   1.949   0.204  0.3275  0.1221  1.4497
   88c3c     H9 1065   0.174   1.484   0.341 -1.9925 -1.3064  0.4743
   88c3c    H10 1066   0.015   1.552   0.310  0.0159  1.0401 -2.1930
   88c3c    H11 1067   0.137   1.589   0.202  0.7698  1.4567 -0.6920
   88c3c    H12 1068  -0.006   1.649   0.501  0.9550 -0.0782 -2.3183
   88c3c    H13 1069   0.138   1.581   0.562 -0.0688 -0.8006 -0.7847
   88c3c     C7 1070   0.097   1.792   0.625 -0.3920  0.1951  0.0260
   88c3c    H14 1071   0.034   1.877   0.597  0.5809  0.4811 -1.3847
   88c3c    H15 1072   0.199   1.831   0.629  0.5203 -2.1055  0.0994
   88c3c     C8 1073   0.068   1.747   0.768 -0.1634 -0.8720 -0.3038
   88c3c    H16 1074   0.160   1.712   0.815  0.1404  0.2071 -0.0774
   88c3c    H17 1075  -0.011   1.672   0.773 -0.9235 -0.0105  0.9947
   88c3c    H18 1076   0.035   1.838   0.818 -1.0178 -2.6953  2.5807
   89c3c      N 1077   1.779   2.993   1.202 -0.0341 -0.1869 -0.4900
   89c3c     C1 1078   1.835   2.953   1.067 -0.1351  0.2499 -0.8694
   89c3c     C2 1079   1.847   3.124   1.228 -0.2335  0.4201  0.1541
   89c3c     C3 1080   1.852   3.092   0.994 -0.5530  0.4800  0.1534
   89c3c     C4 1081   1.860   3.202   1.095 -0.0665  0.1111 -0.1764
   89c3c     C5 1082   1.639   3.018   1.184 -0.7626  0.2694 -0.1102
   89c3c     C6 1083   1.805   2.895   1.311 -0.5934  0.4868  0.3864
   89c3c     H1 1084   1.782   2.872   1.016 -2.0305  0.9845 -0.1259
   89c3c     H2 1085   1.939   2.924   1.082  0.0314  0.7212 -1.0827
   89c3c     H3 1086   1.805   3.181   1.311 -0.3966 -0.1314  0.4549
   89c3c     H4 1087   1.953   3.112   1.252  0.0826  0.8583 -1.0260
   89c3c     H5 1088   1.758   3.099   0.938 -0.4356  1.9095  0.1127
   89c3c     H6 1089   1.932   3.093   0.920 -0.2912 -0.3890  0.4106
   89c3c     H7 1090   1.777   3.270   1.076  1.4998  1.5428 -2.0782
   89c3c     H8 1091   1.957   3.251   1.093  0.1219 -0.2629 -0.2905
   89c3c     H9 1092   1.600   2.930   1.134  2.8024 -0.4820 -1.7097
   89c3c    H10 1093   1.584   3.041   1.276 -0.6571 -1.3100  0.3717
   89c3c    H11 1094   1.628   3.101   1.114 -1.8075  0.2369  0.0093
   89c3c    H12 1095   1.766   2.941   1.403 -4.4833 -1.0121 -0.4014
   89c3c    H13 1096   1.750   2.803   1.292 -0.4639  0.6667 -0.8638
   89c3c     C7 1097   1.947   2.856   1.343 -0.2675  0.0290  0.1754
   89c3c    H14 1098   2.010   2.938   1.377 -1.7493  1.0016  0.6341
   89c3c    H15 1099   2.001   2.808   1.262 -0.4917 -1.3044  0.8089
   89c3c     C8 1100   1.934   2.753   1.456 -0.3121 -0.1518  0.2188
   89c3c    H16 1101   1.874   2.787   1.540 -1.8299 -1.9016 -0.1406
   89c3c    H17 1102   2.029   2.720   1.498 -1.0073 -0.1443  1.8472
   89c3c    H18 1103   1.881   2.666   1.419 -1.9054  0.1052  1.8158
   90c3c      N 1104   2.598   1.489   0.218  0.1289  0.8151 -0.9404
   90c3c     C1 1105   2.540   1.598   0.143 -0.6930  0.1039 -0.1822
   90c3c     C2 1106   2.590   1.529   0.363 -0.7124 -0.0830  0.0194
   90c3c     C3 1107   2.418   1.635   0.232 -1.1710 -0.0222  0.4177
   90c3c     C4 1108   2.443   1.573   0.374 -0.3267  0.3859  0.1944
   90c3c     C5 1109   2.527   1.364   0.192 -0.0257 -0.0820 -0.1654
   90c3c     C6 1110   2.736   1.473   0.177  0.0725  0.1084 -0.0756
   90c3c     H1 1111   2.525   1.579   0.037  1.8449 -0.2073 -0.5131
   90c3c     H2 1112   2.615   1.677   0.146  0.5108 -0.9997 -0.7861
   90c3c     H3 1113   2.617   1.456   0.439 -0.2486 -0.3821 -0.4325
   90c3c     H4 1114   2.662   1.607   0.386 -1.4096 -0.0546  2.2693
   90c3c     H5 1115   2.323   1.605   0.190 -2.2460  1.3528  1.8015
   90c3c     H6 1116   2.392   1.741   0.239 -1.3482 -0.0377  0.0197
   90c3c     H7 1117   2.375   1.489   0.385  1.0913 -0.8280 -0.1794
   90c3c     H8 1118   2.423   1.639   0.458  0.8903 -0.3540  1.0793
   90c3c     H9 1119   2.551   1.284   0.262 -0.0538 -1.1809 -1.3688
   90c3c    H10 1120   2.419   1.376   0.181 -0.1066 -1.4851 -1.1463
   90c3c    H11 1121   2.555   1.324   0.094 -4.3879 -4.2923  0.1474
   90c3c    H12 1122   2.771   1.379   0.221 -0.4536  0.5096  1.2171
   90c3c    H13 1123   2.748   1.427   0.079 -2.6542 -1.4278  0.2536
   90c3c     C7 1124   2.839   1.593   0.198  0.0633  0.2723 -0.6156
   90c3c    H14 1125   2.859   1.620   0.301 -0.5688  2.2452 -0.9864
   90c3c    H15 1126   2.807   1.688   0.155 -1.2198 -0.3612 -1.0665
   90c3c     C8 1127   2.979   1.574   0.136 -0.7688  0.5305 -0.3719
   90c3c    H16 1128   3.056   1.643   0.172 -1.1103  0.1897  1.0526
   90c3c    H17 1129   2.964   1.599   0.031 -0.5391 -2.2476 -1.1196
   90c3c    H18 1130   3.015   1.471   0.133  1.2435  1.2113 -0.1646
   91c3c      N 1131   0.466   1.729   2.253 -0.5860  0.0826  0.2822
   91c3c     C1 1132   0.355   1.796   2.179  0.2345  0.3254  0.5141
   91c3c     C2 1133   0.497   1.816   2.365 -0.8258  0.0373 -0.3583
   91c3c     C3 1134   0.269   1.865   2.286  0.1440 -0.1902 -0.1561
   91c3c     C4 1135   0.361   1.874   2.403  0.0830 -0.3109 -0.1629
   91c3c     C5 1136   0.418   1.610   2.323 -0.7727  0.1613 -0.0142
   91c3c     C6 1137   0.587   1.689   2.175  0.0602  0.2080 -0.0387
   91c3c     H1 1138   0.313   1.728   2.105  1.2695  0.5157 -0.2735
   91c3c     H2 1139   0.401   1.873   2.118  0.2682  2.0100  2.6326
   91c3c     H3 1140   0.555   1.771   2.445 -2.4674 -1.1273  0.2120
   91c3c     H4 1141   0.556   1.906   2.345 -1.5310  1.0083  1.7402
   91c3c     H5 1142   0.179   1.808   2.307 -0.3933  1.0186  0.8710
   91c3c     H6 1143   0.240   1.965   2.252  0.1497 -0.0768  0.1765
   91c3c     H7 1144   0.317   1.823   2.489 -1.0837  0.1511 -0.4737
   91c3c     H8 1145   0.364   1.980   2.428 -0.7199 -0.2211 -0.4172
   91c3c     H9 1146   0.414   1.528   2.251 -0.2994 -0.1048  0.2613
   91c3c    H10 1147   0.475   1.574   2.409 -0.1609  1.6059  0.1905
   91c3c    H11 1148   0.316   1.627   2.359 -0.0156 -0.7108  2.6249
   91c3c    H12 1149   0.666   1.647   2.238  0.4329  0.9392 -0.0079
   91c3c    H13 1150   0.558   1.609   2.108 -0.2321  0.2779  0.0062
   91c3c     C7 1151   0.665   1.799   2.102 -0.4355 -0.5066  0.3166
   91c3c    H14 1152   0.700   1.888   2.155 -0.9670 -1.6141  2.5914
   91c3c    H15 1153   0.603   1.846   2.026 -1.5255 -2.4788 -0.0326
   91c3c     C8 1154   0.774   1.739   2.016 -0.4105 -0.0858  0.4625
   91c3c    H16 1155   0.818   1.811   1.947  0.1351  0.8561  1.7735
   91c3c    H17 1156   0.726   1.657   1.963 -0.9418 -0.3500  1.3466
   91c3c    H18 1157   0.863   1.707   2.071 -1.0068 -0.6445  1.1120
   92c3c      N 1158   0.855   1.806   0.771 -0.2097  0.0194  0.1576
   92c3c     C1 1159   0.862   1.911   0.669 -0.6886  0.3641 -0.4283
   92c3c     C2 1160   0.919   1.698   0.706  0.4020  0.0229 -0.9086
   92c3c     C3 1161   1.005   1.900   0.621  1.5222  0.2089  0.3520
   92c3c     C4 1162   1.041   1.753   0.642  0.0787  0.0359 -0.4263
   92c3c     C5 1163   0.927   1.858   0.893  0.3063  0.6377  0.3505
   92c3c     C6 1164   0.723   1.757   0.818  0.6933 -0.1076  1.0113
   92c3c     H1 1165   0.832   2.013   0.695  0.5303  1.1466 -2.0093
   92c3c     H2 1166   0.799   1.888   0.584 -1.7622 -1.2319  0.7722
   92c3c     H3 1167   0.947   1.609   0.762 -2.0784  0.7194  1.5675
   92c3c     H4 1168   0.860   1.651   0.627  1.4886 -1.6108 -0.7562
   92c3c     H5 1169   1.072   1.966   0.676  0.1463  2.2682 -0.3690
   92c3c     H6 1170   1.014   1.916   0.513 -0.3626  0.5307  0.2300
   92c3c     H7 1171   1.130   1.751   0.705 -0.0778 -0.2383 -0.2195
   92c3c     H8 1172   1.068   1.707   0.547  0.6177  0.7893 -0.6515
   92c3c     H9 1173   0.878   1.940   0.945 -2.5206  0.0804 -1.3117
   92c3c    H10 1174   0.940   1.776   0.964 -1.5338 -2.6387 -2.8495
   92c3c    H11 1175   1.029   1.892   0.876  0.8530 -0.9832  0.2973
   92c3c    H12 1176   0.733   1.671   0.885  1.5181 -0.7334  0.1041
   92c3c    H13 1177   0.688   1.843   0.875  2.0212  1.4440 -0.4400
   92c3c     C7 1178   0.616   1.724   0.710  0.0496  0.7193 -0.4907
   92c3c    H14 1179   0.648   1.626   0.674 -1.0519 -0.3098  1.2752
   92c3c    H15 1180   0.608   1.800   0.632 -0.3870  0.8086 -0.3592
   92c3c     C8 1181   0.476   1.700   0.762 -0.3447 -0.3747  0.4519
   92c3c    H16 1182   0.478   1.644   0.856  0.3461 -2.0026 -0.5240
   92c3c    H17 1183   0.415   1.643   0.692 -0.1524 -2.8693  2.2298
   92c3c    H18 1184   0.411   1.781   0.795 -0.0887 -0.3293  0.8404
   93c3c      N 1185   1.653   3.041   2.813  0.5623 -0.4494  0.0761
   93c3c     C1 1186   1.633   3.093   2.953  0.4663  0.1724 -0.4182
   93c3c     C2 1187   1.514   3.018   2.783  0.4094  0.5568  0.0108
   93c3c     C3 1188   1.521   3.198   2.950  0.7700 -0.3725 -0.2209
   93c3c     C4 1189   1.429   3.136   2.853 -0.3896 -0.3457  0.1269
   93c3c     C5 1190   1.717   3.135   2.729 -0.3049 -1.0345  0.1978
   93c3c     C6 1191   1.723   2.913   2.808 -0.0736 -0.3079 -0.2296
   93c3c     H1 1192   1.721   3.134   3.002  0.2953 -0.5197  0.4780
   93c3c     H2 1193   1.600   3.010   3.015  0.6756  0.4834  0.1070
   93c3c     H3 1194   1.491   3.006   2.677  0.5695 -0.8186  0.1269
   93c3c     H4 1195   1.480   2.921   2.818  0.7391  0.9870  1.5708
   93c3c     H5 1196   1.544   3.299   2.916  1.7401 -0.6796 -0.5129
   93c3c     H6 1197   1.489   3.212   3.053 -0.7907 -1.6927 -0.5182
   93c3c     H7 1198   1.406   3.215   2.781 -2.8950 -0.6967  0.4944
   93c3c     H8 1199   1.336   3.108   2.904 -1.0398  0.2168 -0.7225
   93c3c     H9 1200   1.823   3.147   2.750 -0.2019  0.7256 -1.2216
   93c3c    H10 1201   1.709   3.096   2.628 -1.8780  0.2971 -0.2197
   93c3c    H11 1202   1.673   3.234   2.719  0.5144 -0.8232 -1.4269
   93c3c    H12 1203   1.821   2.924   2.855  0.8120 -2.6722 -1.4260
   93c3c    H13 1204   1.674   2.841   2.873  3.0928 -2.0825  0.2646
   93c3c     C7 1205   1.741   2.846   2.665 -0.3270  0.5399  0.2419
   93c3c    H14 1206   1.804   2.916   2.611 -0.3344 -0.7281 -1.4414
   93c3c    H15 1207   1.651   2.838   2.604  0.0212  1.0934 -0.3482
   93c3c     C8 1208   1.803   2.708   2.676  0.5712  0.7531 -0.2173
   93c3c    H16 1209   1.750   2.635   2.736  1.9428  0.2659  0.4267
   93c3c    H17 1210   1.896   2.718   2.732  0.1327 -1.1753  0.8835
   93c3c    H18 1211   1.819   2.672   2.574 -0.6668  0.6160 -0.3740
   94c3c      N 1212   1.501   1.211   0.636  0.5781  0.5171 -0.2671
   94c3c     C1 1213   1.479   1.361   0.634  0.1548  0.5920  0.4810
   94c3c     C2 1214   1.601   1.197   0.532 -0.7649  0.1003 -0.1631
   94c3c     C3 1215   1.620   1.425   0.615  0.0291  0.2537  0.1403
   94c3c     C4 1216   1.704   1.312   0.557 -1.1225  0.0193  0.6714
   94c3c     C5 1217   1.557   1.165   0.764 -0.5148  0.1629  0.0391
   94c3c     C6 1218   1.367   1.142   0.620 -0.1542  0.6928 -0.0866
   94c3c     H1 1219   1.450   1.390   0.735 -0.5912 -3.9252  1.6931
   94c3c     H2 1220   1.409   1.395   0.558 -1.1879 -1.8612  0.5739
   94c3c     H3 1221   1.653   1.101   0.533 -2.6298 -0.9649 -1.5512
   94c3c     H4 1222   1.560   1.212   0.432  1.7796  0.2774 -1.2260
   94c3c     H5 1223   1.661   1.464   0.709  0.7600  1.5316 -0.6941
   94c3c     H6 1224   1.630   1.511   0.549  1.4392 -0.4004 -0.5356
   94c3c     H7 1225   1.786   1.288   0.625 -0.3655  2.0268  0.5216
   94c3c     H8 1226   1.754   1.338   0.464 -0.0627  1.0405  1.5140
   94c3c     H9 1227   1.491   1.179   0.849 -1.6512 -0.0618 -0.7928
   94c3c    H10 1228   1.583   1.059   0.766  0.2400  0.2956 -1.6775
   94c3c    H11 1229   1.658   1.199   0.786 -0.1830 -0.0274 -1.1075
   94c3c    H12 1230   1.396   1.037   0.620  2.7403  1.4450  1.5454
   94c3c    H13 1231   1.310   1.163   0.711  2.7263 -1.8387  2.4256
   94c3c     C7 1232   1.281   1.180   0.497  0.1942 -0.4126  0.6050
   94c3c    H14 1233   1.329   1.165   0.401  0.5846  1.8085  0.4346
   94c3c    H15 1234   1.259   1.286   0.496  0.2012 -0.3815  2.4608
   94c3c     C8 1235   1.141   1.107   0.509  0.3543  0.2753  0.8346
   94c3c    H16 1236   1.087   1.139   0.420  2.0730  1.0822  0.0534
   94c3c    H17 1237   1.095   1.139   0.602 -0.9572 -1.2541  0.7348
   94c3c    H18 1238   1.153   1.001   0.486  1.1773  0.6074 -0.3151
   95c3c      N 1239   0.881   2.181   3.128  0.1467  0.3984 -0.3125
   95c3c     C1 1240   1.003   2.222   3.203 -0.4052  0.1948 -0.1484
   95c3c     C2 1241   0.823   2.074   3.214 -0.1405  0.3640 -0.2052
   95c3c     C3 1242   0.961   2.214   3.345  0.3317 -0.4273 -0.2206
   95c3c     C4 1243   0.848   2.114   3.356  1.0037 -0.4562  0.4581
   95c3c     C5 1244   0.790   2.304   3.134  0.2148 -0.8009  0.2696
   95c3c     C6 1245   0.890   2.144   2.984  0.7771 -0.2084 -0.0316
   95c3c     H1 1246   1.047   2.319   3.180  0.2462 -0.0984 -0.1485
   95c3c     H2 1247   1.080   2.152   3.170  0.4225  0.6848  0.7427
   95c3c     H3 1248   0.719   2.048   3.194 -0.3973  0.6906  0.6884
   95c3c     H4 1249   0.881   1.987   3.181 -0.2388 -1.2536  3.6874
   95c3c     H5 1250   0.928   2.306   3.394  0.2696 -0.6597  0.1769
   95c3c     H6 1251   1.045   2.182   3.408  1.0383 -0.7831 -1.3250
   95c3c     H7 1252   0.757   2.159   3.396 -0.3948 -1.3165 -1.6660
   95c3c     H8 1253   0.878   2.030   3.420  1.7604 -0.1362  0.5339
   95c3c     H9 1254   0.830   2.392   3.082 -0.0457 -0.9590 -0.2054
   95c3c    H10 1255   0.695   2.282   3.085  0.6225 -0.2331 -0.8173
   95c3c    H11 1256   0.765   2.345   3.232  1.8209  1.6808 -0.2858
   95c3c    H12 1257   0.791   2.117   2.949  0.4516 -2.3664  2.3797
   95c3c    H13 1258   0.925   2.227   2.923 -1.7867  1.9682  1.3509
   95c3c     C7 1259   0.982   2.025   2.936  0.4023 -0.1955 -0.2827
   95c3c    H14 1260   0.942   1.935   2.983 -0.7868  1.1423  1.3251
   95c3c    H15 1261   1.085   2.043   2.968  0.5635 -1.8029  0.1387
   95c3c     C8 1262   0.990   2.002   2.790 -0.0896 -0.4303  0.0772
   95c3c    H16 1263   1.064   1.926   2.765 -0.6462 -0.2551 -2.2370
   95c3c    H17 1264   1.004   2.099   2.742  1.5776 -0.8094 -0.2397
   95c3c    H18 1265   0.894   1.965   2.752 -0.2462  0.2483 -0.1921
   96c3c      N 1266   0.155   2.345   1.700  0.7586  0.0963  0.5262
   96c3c     C1 1267   0.289   2.402   1.734 -0.5985  0.6668 -0.4615
   96c3c     C2 1268   0.070   2.447   1.749  0.8895 -0.4385  0.1366
   96c3c     C3 1269   0.285   2.547   1.695 -0.0449  0.2478 -0.2686
   96c3c     C4 1270   0.134   2.581   1.699  0.4774  0.0798  0.1749
   96c3c     C5 1271   0.147   2.313   1.551  0.0419 -0.1293 -0.1425
   96c3c     C6 1272   0.127   2.213   1.769  0.0649 -0.0020 -0.1412
   96c3c     H1 1273   0.367   2.349   1.680 -0.5256 -1.3962  1.5740
   96c3c     H2 1274   0.319   2.383   1.837 -1.0815 -0.2091 -0.4740
   96c3c     H3 1275  -0.034   2.425   1.725  0.9788 -0.8537  0.1204
   96c3c     H4 1276   0.078   2.441   1.857  0.6369 -0.2532  0.1669
   96c3c     H5 1277   0.322   2.567   1.594 -0.0669 -0.7291 -0.4765
   96c3c     H6 1278   0.348   2.601   1.766 -0.9449  1.9386 -0.7235
   96c3c     H7 1279   0.088   2.615   1.606 -0.4125 -0.3601  0.4425
   96c3c     H8 1280   0.122   2.654   1.780  2.7227  0.0740  0.5387
   96c3c     H9 1281   0.212   2.230   1.523  0.9270  0.0350  1.3607
   96c3c    H10 1282   0.047   2.284   1.516  0.3201 -2.1798  0.7276
   96c3c    H11 1283   0.171   2.397   1.486  1.5349  0.1718  0.7939
   96c3c    H12 1284   0.036   2.170   1.727  0.0905  1.0836 -1.3302
   96c3c    H13 1285   0.205   2.153   1.722 -1.4172 -0.4758 -2.0773
   96c3c     C7 1286   0.125   2.195   1.922  0.7929 -0.2141 -0.2190
   96c3c    H14 1287   0.031   2.233   1.961  0.2757 -2.0685  0.3750
   96c3c    H15 1288   0.210   2.255   1.956  0.6006 -0.3136  0.4420
   96c3c     C8 1289   0.130   2.045   1.964 -0.0841 -0.2145  0.2313
   96c3c    H16 1290   0.232   2.011   1.953  0.3456  1.0759  0.1358
   96c3c    H17 1291   0.061   1.986   1.904 -0.9085 -0.3194  1.2568
   96c3c    H18 1292   0.103   2.025   2.068 -0.4783  1.9205  0.5674
   97c3c      N 1293   2.750   0.732   2.688  0.0434  0.3163 -0.2659
   97c3c     C1 1294   2.722   0.595   2.654 -0.1035  0.5567 -0.1358
   97c3c     C2 1295   2.660   0.804   2.596  0.2865  0.3715  0.2611
   97c3c     C3 1296   2.576   0.590   2.647 -0.3053  1.1820  0.0458
   97c3c     C4 1297   2.527   0.723   2.610  0.3008 -0.1548 -0.2059
   97c3c     C5 1298   2.715   0.765   2.827  0.0392 -0.6339 -0.0839
   97c3c     C6 1299   2.894   0.766   2.671 -0.1155  0.1488  0.6114
   97c3c     H1 1300   2.754   0.526   2.732  0.7563  0.0701 -0.9033
   97c3c     H2 1301   2.760   0.561   2.557  0.8714 -0.4339  0.5824
   97c3c     H3 1302   2.642   0.911   2.612  1.4275  0.6775 -0.3867
   97c3c     H4 1303   2.698   0.788   2.495  0.5298  2.1668  0.0392
   97c3c     H5 1304   2.530   0.573   2.744 -0.4290 -1.8101 -0.4922
   97c3c     H6 1305   2.544   0.520   2.569 -0.4398 -0.2619  1.3775
   97c3c     H7 1306   2.466   0.765   2.689 -0.2171 -0.7413 -0.2963
   97c3c     H8 1307   2.467   0.725   2.519  1.2388  2.0951 -0.7973
   97c3c     H9 1308   2.784   0.718   2.897 -0.4299  0.7197  1.3322
   97c3c    H10 1309   2.733   0.867   2.861  1.8954 -1.5802  1.8795
   97c3c    H11 1310   2.621   0.724   2.864 -0.3897 -0.8575 -1.4143
   97c3c    H12 1311   2.902   0.873   2.691  0.5080 -0.0225  1.2798
   97c3c    H13 1312   2.947   0.719   2.754 -0.0403 -0.8024  0.0351
   97c3c     C7 1313   2.962   0.736   2.536 -0.3168  0.8064 -0.4356
   97c3c    H14 1314   2.893   0.758   2.455 -1.2481  0.3878  0.2286
   97c3c    H15 1315   2.982   0.630   2.518 -1.9842  0.1286  1.5193
   97c3c     C8 1316   3.092   0.814   2.534 -0.8036 -0.3375  0.1920
   97c3c    H16 1317   3.108   0.837   2.429 -0.5651 -3.3544 -0.4846
   97c3c    H17 1318   3.181   0.755   2.555 -0.1924 -0.1827 -1.8668
   97c3c    H18 1319   3.098   0.908   2.590 -2.8138 -0.5401  0.7837
   98c3c      N 1320   2.149   1.386   0.943  0.1688  0.0481  0.1989
   98c3c     C1 1321   2.077   1.434   1.063  0.1750  0.2801  0.0658
   98c3c     C2 1322   2.284   1.435   0.954 -0.3632  0.0862  0.0815
   98c3c     C3 1323   2.176   1.411   1.174 -0.1239 -0.0513  0.5969
   98c3c     C4 1324   2.312   1.418   1.110  0.5423 -0.3632  0.5837
   98c3c     C5 1325   2.147   1.239   0.948 -0.1424  0.2165  0.4670
   98c3c     C6 1326   2.082   1.428   0.809 -0.6304  0.3613 -1.0118
   98c3c     H1 1327   1.989   1.371   1.078  0.2547  0.0518 -0.4246
   98c3c     H2 1328   2.047   1.538   1.055 -1.8598 -0.4101 -1.7290
   98c3c     H3 1329   2.350   1.380   0.888  0.7550  0.8931  0.5020
   98c3c     H4 1330   2.293   1.541   0.930 -1.0440 -0.0885 -0.9607
   98c3c     H5 1331   2.149   1.328   1.238 -1.8427 -1.1170 -1.4330
   98c3c     H6 1332   2.165   1.494   1.244  1.1380  0.0325  0.7086
   98c3c     H7 1333   2.365   1.323   1.122 -0.7455 -1.3392 -1.2360
   98c3c     H8 1334   2.381   1.495   1.144  0.7997 -0.4954  0.3645
   98c3c     H9 1335   2.044   1.205   0.946  0.0232 -0.4318  2.2344
   98c3c    H10 1336   2.197   1.188   0.865  0.1772 -1.0504  1.4187
   98c3c    H11 1337   2.186   1.184   1.033  0.4837 -1.3496 -0.7938
   98c3c    H12 1338   2.134   1.372   0.731  0.2723  0.5560 -0.5618
   98c3c    H13 1339   1.980   1.391   0.806 -0.2647 -0.8850  0.9290
   98c3c     C7 1340   2.089   1.584   0.774  0.3934 -0.2847 -0.6423
   98c3c    H14 1341   2.190   1.622   0.756 -0.1094  0.9670 -0.9367
   98c3c    H15 1342   2.037   1.639   0.853  0.2541 -0.4245 -0.6363
   98c3c     C8 1343   2.025   1.617   0.636 -0.1262 -0.1810  0.4336
   98c3c    H16 1344   1.920   1.589   0.641 -0.1420  0.0188  1.4240
   98c3c    H17 1345   2.076   1.556   0.561  0.0658  1.3261 -0.6843
   98c3c    H18 1346   2.027   1.722   0.609 -0.4151  0.1390  1.6322
   99c3c      N 1347   1.758   2.039   1.926  0.9394  0.3226 -0.3678
   99c3c     C1 1348   1.743   1.979   2.063 -0.0279  0.1651  0.0044
   99c3c     C2 1349   1.869   1.954   1.872  0.2106  1.2772 -0.2499
   99c3c     C3 1350   1.741   1.830   2.030  0.3530  0.2029  0.1324
   99c3c     C4 1351   1.847   1.813   1.926  0.4025  0.0368 -0.2952
   99c3c     C5 1352   1.636   2.017   1.844 -0.1806  0.4953  0.0752
   99c3c     C6 1353   1.790   2.182   1.917 -0.2284  0.0621 -0.3747
   99c3c     H1 1354   1.658   2.010   2.124  0.8868 -0.1416  1.4555
   99c3c     H2 1355   1.829   1.996   2.128  0.1238 -0.8451  0.0773
   99c3c     H3 1356   1.872   1.950   1.763 -1.5184 -1.2512 -0.2411
   99c3c     H4 1357   1.966   1.976   1.918  1.0177 -1.0024 -0.7908
   99c3c     H5 1358   1.643   1.790   2.002  2.0355 -2.0164 -2.9663
   99c3c     H6 1359   1.771   1.763   2.111 -0.0645 -0.3561 -0.1738
   99c3c     H7 1360   1.819   1.735   1.854 -1.1309  0.9211 -0.6720
   99c3c     H8 1361   1.937   1.772   1.972 -0.1316 -0.2604  0.4977
   99c3c     H9 1362   1.553   2.064   1.896 -0.2759  1.3678 -0.8507
   99c3c    H10 1363   1.649   2.059   1.744  2.2298  0.4254  0.3383
   99c3c    H11 1364   1.601   1.914   1.835  1.5866 -0.0872 -0.4255
   99c3c    H12 1365   1.822   2.200   1.814 -0.0593  0.4110 -0.2621
   99c3c    H13 1366   1.700   2.239   1.938 -1.7089 -2.3587  0.0094
   99c3c     C7 1367   1.904   2.217   2.023  0.1763 -0.1442  0.2240
   99c3c    H14 1368   1.996   2.159   2.015  0.1056 -0.1109 -1.0060
   99c3c    H15 1369   1.857   2.202   2.120 -0.3432 -1.1183 -0.1695
   99c3c     C8 1370   1.957   2.363   2.026  0.0732 -0.0293 -0.0235
   99c3c    H16 1371   1.882   2.439   2.048  0.8279  1.3187 -1.9466
   99c3c    H17 1372   2.005   2.394   1.933 -0.8560 -0.6831 -0.7411
   99c3c    H18 1373   2.031   2.384   2.102  0.6593  1.1946 -0.9174
  100c3c      N 1374   0.464   3.127   0.526 -0.5533  0.3684 -0.3395
  100c3c     C1 1375   0.607   3.161   0.516 -0.5087  0.0653 -0.3819
  100c3c     C2 1376   0.463   3.008   0.439  0.1743  0.4119 -0.3869
  100c3c     C3 1377   0.692   3.030   0.529 -0.0654 -0.1798  0.6184
  100c3c     C4 1378   0.586   2.932   0.473  0.1080  0.3627  0.1962
  100c3c     C5 1379   0.416   3.086   0.656  0.4970  0.0270 -0.0957
  100c3c     C6 1380   0.368   3.235   0.485  0.0820 -1.0287  0.1239
  100c3c     H1 1381   0.650   3.242   0.576 -2.5160  0.1433  0.9827
  100c3c     H2 1382   0.637   3.197   0.417  3.2988  1.4741  1.1834
  100c3c     H3 1383   0.371   2.950   0.439  0.4502 -0.0309 -0.3750
  100c3c     H4 1384   0.470   3.036   0.334  0.9971  0.1536 -0.4003
  100c3c     H5 1385   0.718   3.003   0.632 -0.4668 -0.5075  0.6366
  100c3c     H6 1386   0.785   3.035   0.471 -0.7163  1.5236 -0.3152
  100c3c     H7 1387   0.556   2.863   0.552  0.9479  0.2759  0.4428
  100c3c     H8 1388   0.630   2.889   0.383  1.3170  2.1028 -0.0813
  100c3c     H9 1389   0.389   3.164   0.727  0.6061  0.0879 -0.1204
  100c3c    H10 1390   0.321   3.034   0.645  0.3702  0.2025  0.1832
  100c3c    H11 1391   0.483   3.022   0.713  0.9870 -0.0038 -0.7006
  100c3c    H12 1392   0.270   3.189   0.477 -0.4553 -0.1086  1.2037
  100c3c    H13 1393   0.363   3.315   0.560 -1.5199  0.3738 -1.4352
  100c3c     C7 1394   0.394   3.315   0.354  0.1005 -0.2097 -0.5331
  100c3c    H14 1395   0.422   3.248   0.273 -1.3163 -0.4868 -0.8065
  100c3c    H15 1396   0.479   3.381   0.370 -0.3251  0.5177 -1.2516
  100c3c     C8 1397   0.271   3.399   0.318  0.0334 -0.5510 -0.4663
  100c3c    H16 1398   0.232   3.449   0.406 -0.1973 -1.1533 -0.2254
  100c3c    H17 1399   0.187   3.354   0.265 -0.8936  1.0380 -0.4029
  100c3c    H18 1400   0.300   3.493   0.269  0.6529  0.1229  1.1704
  101fsi     F1 1401   2.430   2.797   1.192  0.3311  0.6217  0.3923
  101fsi     S1 1402   2.279   2.803   1.228 -0.2371  0.1039  0.0791
  101fsi      N 1403   2.219   2.914   1.133 -0.6879  0.3316 -0.0929
  101fsi     O1 1404   2.234   2.671   1.186 -0.4779  0.0269 -0.1544
  101fsi     O2 1405   2.285   2.822   1.370  0.2842  0.0033  0.1020
  101fsi     S2 1406   2.286   3.045   1.074  0.1579  0.2435 -0.0739
  101fsi     O3 1407   2.405   3.079   1.141  0.6912 -0.5368 -0.0337
  101fsi     O4 1408   2.185   3.147   1.052 -0.1011  0.3225 -0.5089
  101fsi     F2 1409   2.336   3.001   0.932  0.7784  0.5948 -0.2788
  102fsi     F1 1410   1.471   0.737   3.014 -0.3341 -0.0066  0.5067
  102fsi     S1 1411   1.404   0.837   2.925 -0.3920  0.1100 -0.4478
  102fsi      N 1412   1.312   0.921   3.018  0.9456  0.2394  0.3959
  102fsi     O1 1413   1.516   0.910   2.867  0.2359  0.7651 -0.3008
  102fsi     O2 1414   1.329   0.761   2.833  0.1542 -0.5999 -0.1462
  102fsi     S2 1415   1.346   1.062   3.083  0.2926 -0.1467 -0.1751
  102fsi     O3 1416   1.244   1.161   3.068 -0.9349  0.6584 -0.3007
  102fsi     O4 1417   1.480   1.110   3.065 -0.0168  0.4846  0.6975
  102fsi     F2 1418   1.331   1.028   3.233  0.2007 -0.5383 -0.2615
  103fsi     F1 1419   0.465   1.396   0.975 -0.0133  0.2154 -0.0143
  103fsi     S1 1420   0.337   1.311   1.000 -0.1013  0.2296 -0.0083
  103fsi      N 1421   0.384   1.194   1.092 -0.1855 -0.7129 -0.2509
  103fsi     O1 1422   0.245   1.405   1.056  0.0830 -0.0202 -0.0580
  103fsi     O2 1423   0.308   1.257   0.872 -0.6195 -0.1474  0.0463
  103fsi     S2 1424   0.401   1.200   1.250  0.1471 -0.3339 -0.1027
  103fsi     O3 1425   0.405   1.330   1.317  0.1255 -0.4484 -0.5466
  103fsi     O4 1426   0.500   1.103   1.292 -0.6874 -0.5205 -0.4838
  103fsi     F2 1427   0.257   1.140   1.295 -0.6755  0.0298 -0.1878
  104fsi     F1 1428   0.482   2.071   0.878  0.0751  0.0682  0.3440
  104fsi     S1 1429   0.543   2.198   0.949  0.2029 -0.0950 -0.0105
  104fsi      N 1430   0.477   2.195   1.084  0.0150  0.1096 -0.2084
  104fsi     O1 1431   0.685   2.171   0.960  0.0090  0.1187  0.2267
  104fsi     O2 1432   0.509   2.308   0.859 -0.8526 -0.5759 -0.1392
  104fsi     S2 1433   0.389   2.296   1.159  0.2908  0.1981 -0.0823
  104fsi     O3 1434   0.293   2.234   1.243 -0.5128 -0.0144 -0.3395
  104fsi     O4 1435   0.346   2.411   1.090  0.1297 -0.6403 -0.1683
  104fsi     F2 1436   0.492   2.362   1.262 -0.0122 -0.1527  0.3418
  105fsi     F1 1437   0.092   2.482   3.186 -0.1661  0.4542 -0.0574
  105fsi     S1 1438   0.211   2.544   3.269 -0.1415  0.0514  0.1542
  105fsi      N 1439   0.292   2.416   3.303  0.0071  0.7404  0.3871
  105fsi     O1 1440   0.278   2.630   3.173  0.3662 -0.2988  0.3678
  105fsi     O2 1441   0.145   2.608   3.381 -0.5541 -0.4507  0.3064
  105fsi     S2 1442   0.385   2.320   3.215 -0.3139  0.2992 -0.2206
  105fsi     O3 1443   0.503   2.264   3.274 -0.3244  0.0941  0.1537
  105fsi     O4 1444   0.390   2.360   3.078 -0.2082  0.2031 -0.7667
  105fsi     F2 1445   0.288   2.191   3.206  0.0649 -0.4968 -0.0971
  106fsi     F1 1446   0.103   2.363   2.438 -0.1348 -0.3771  0.1774
  106fsi     S1 1447   0.070   2.357   2.287  0.3720  0.0220  0.2796
  106fsi      N 1448   0.191   2.423   2.213 -0.4165 -0.4276  0.3145
  106fsi     O1 1449   0.057   2.218   2.262 -0.3827  0.0988 -0.0933
  106fsi     O2 1450  -0.051   2.431   2.268  0.7454 -0.3038  0.7361
  106fsi     S2 1451   0.213   2.562   2.154 -0.2769 -0.1779 -0.1306
  106fsi     O3 1452   0.102   2.652   2.136  0.3788  0.1274  0.0909
  106fsi     O4 1453   0.318   2.560   2.057 -0.5073  0.4487 -0.7856
  106fsi     F2 1454   0.287   2.620   2.276  0.0022 -0.5457 -0.1496
  107fsi     F1 1455   0.761   2.577   1.257 -0.5722  0.5372  0.0318
  107fsi     S1 1456   0.818   2.586   1.113  0.4597  0.0521  0.1706
  107fsi      N 1457   0.690   2.579   1.022 -0.3672  0.0708  0.4306
  107fsi     O1 1458   0.889   2.713   1.125  0.5208 -0.7600  1.0188
  107fsi     O2 1459   0.901   2.466   1.106 -0.1919 -0.0577  0.3221
  107fsi     S2 1460   0.648   2.674   0.911  0.0631 -0.2041 -0.0365
  107fsi     O3 1461   0.568   2.602   0.816  0.2121  0.5953  0.0278
  107fsi     O4 1462   0.753   2.761   0.861  0.6073 -0.2835 -0.0031
  107fsi     F2 1463   0.556   2.778   0.990  0.6547  0.4238  0.1225
  108fsi     F1 1464   1.405   2.005   3.089  0.4474 -0.3860  0.1705
  108fsi     S1 1465   1.423   2.014   3.244  0.8305 -0.3086 -0.3302
  108fsi      N 1466   1.485   2.160   3.262  0.0397 -0.4910  0.6723
  108fsi     O1 1467   1.299   1.993   3.309 -0.5866 -0.6635 -0.3710
  108fsi     O2 1468   1.515   1.912   3.259 -0.2410  0.2331  0.2781
  108fsi     S2 1469   1.437   2.277   3.352 -0.4584  0.3369  0.1785
  108fsi     O3 1470   1.305   2.274   3.405  0.2025  0.1779  0.1316
  108fsi     O4 1471   1.482   2.402   3.305  0.2572 -0.1135  0.1393
  108fsi     F2 1472   1.531   2.258   3.484 -0.5726 -0.0846  0.5478
  109fsi     F1 1473   2.165   0.781   1.921 -0.5270 -0.0528 -0.4641
  109fsi     S1 1474   2.216   0.664   1.828 -0.3866  0.3331  0.1655
  109fsi      N 1475   2.086   0.639   1.730 -0.1763  0.0252 -0.3991
  109fsi     O1 1476   2.328   0.718   1.759  0.0660  0.0587 -0.0966
  109fsi     O2 1477   2.239   0.556   1.919 -0.1024 -0.6122  0.7363
  109fsi     S2 1478   2.065   0.670   1.579 -0.0503  0.0264  0.3679
  109fsi     O3 1479   2.121   0.800   1.548 -0.7780  0.0481  0.0829
  109fsi     O4 1480   1.940   0.631   1.526  0.3926  0.0367  0.3565
  109fsi     F2 1481   2.163   0.570   1.506 -0.2633  0.1513  0.0322
  110fsi     F1 1482   3.039   2.618   1.793  0.3606 -0.3935  0.0298
  110fsi     S1 1483   2.966   2.672   1.925 -0.5792  0.4563  0.1295
  110fsi      N 1484   3.001   2.824   1.925  0.3756  0.0294 -0.0037
  110fsi     O1 1485   2.822   2.640   1.907  0.1233  0.2231 -0.2822
  110fsi     O2 1486   3.036   2.603   2.031 -0.6589 -0.7027  0.1944
  110fsi     S2 1487   2.902   2.949   1.922  0.2807 -0.1156 -0.0867
  110fsi     O3 1488   2.773   2.930   1.983 -1.0411 -0.0296  0.0086
  110fsi     O4 1489   2.913   3.035   1.809 -0.2181 -0.1663  0.1979
  110fsi     F2 1490   2.969   3.045   2.033  0.5761 -0.1058  0.2990
  111fsi     F1 1491   1.015   3.081   0.597 -0.1727  0.3372  0.4375
  111fsi     S1 1492   0.997   3.100   0.745  0.0316 -0.1308 -0.0730
  111fsi      N 1493   0.858   3.176   0.768 -0.9280  0.0384 -0.7513
  111fsi     O1 1494   0.987   2.959   0.787 -0.4069  0.3877 -0.4655
  111fsi     O2 1495   1.111   3.175   0.792 -0.8112  0.0045 -0.5914
  111fsi     S2 1496   0.776   3.166   0.900 -0.1205 -0.1092  0.2102
  111fsi     O3 1497   0.796   3.047   0.987 -0.0874  0.3342 -0.1208
  111fsi     O4 1498   0.644   3.205   0.866  0.3008 -0.3183  0.2004
  111fsi     F2 1499   0.839   3.279   0.981  0.0216  0.7415  0.3463
  112fsi     F1 1500   2.855   2.045   0.750  0.1325 -0.4653 -0.1066
  112fsi     S1 1501   2.988   1.991   0.701  0.0063 -0.0478 -0.1468
  112fsi      N 1502   2.975   1.833   0.690 -0.0734  0.1636 -0.3924
  112fsi     O1 1503   3.001   2.065   0.576  0.7454  0.6744 -0.1818
  112fsi     O2 1504   3.077   2.037   0.804  0.1605  0.6636  0.3934
  112fsi     S2 1505   2.946   1.748   0.560  0.4233  0.1301 -0.0461
  112fsi     O3 1506   2.966   1.609   0.587  0.3949 -0.4941  0.1849
  112fsi     O4 1507   3.003   1.806   0.435 -0.3616  0.9089  0.0804
  112fsi     F2 1508   2.796   1.768   0.537  0.1715 -0.0022 -0.0258
  113fsi     F1 1509   2.969   3.245   2.934 -0.4345 -0.4633 -0.3057
  113fsi     S1 1510   3.122   3.242   2.887  0.0142 -0.1222  0.2274
  113fsi      N 1511   3.182   3.153   3.005  0.4940 -0.1907  0.3352
  113fsi     O1 1512   3.115   3.185   2.754  0.3988  0.5213 -0.7331
  113fsi     O2 1513   3.168   3.376   2.901 -0.0503  0.4984  0.0544
  113fsi     S2 1514   3.177   2.998   3.038  0.2282  0.1826  0.4499
  113fsi     O3 1515   3.295   2.938   3.092  0.4588 -0.8316 -0.2880
  113fsi     O4 1516   3.118   2.929   2.930  0.0664  0.3841 -0.0635
  113fsi     F2 1517   3.069   2.985   3.156 -0.4510  0.1231  0.4819
  114fsi     F1 1518   2.782   1.096   0.636  0.2543  0.0790  0.5521
  114fsi     S1 1519   2.738   1.239   0.581 -0.1286 -0.2824  0.4914
  114fsi      N 1520   2.602   1.256   0.653  0.2652 -0.3611  0.0584
  114fsi     O1 1521   2.839   1.325   0.637 -0.1571 -0.0720 -0.5952
  114fsi     O2 1522   2.742   1.213   0.435  0.4310  0.3624  0.6329
  114fsi     S2 1523   2.462   1.200   0.606 -0.2870 -0.4319  0.2373
  114fsi     O3 1524   2.467   1.112   0.493  0.0836  0.1857 -0.1460
  114fsi     O4 1525   2.358   1.296   0.607 -0.0657 -0.7124  0.2334
  114fsi     F2 1526   2.424   1.107   0.725 -0.2088  0.0423  0.2631
  115fsi     F1 1527   1.828   2.514   0.783  0.3393  0.1816 -0.2067
  115fsi     S1 1528   1.910   2.408   0.869 -0.2987 -0.3747 -0.2603
  115fsi      N 1529   1.824   2.393   0.999  0.8625 -0.0060  0.4277
  115fsi     O1 1530   1.917   2.294   0.787  0.3038 -0.1073 -0.5047
  115fsi     O2 1531   2.038   2.470   0.887 -0.0908 -0.5396  0.1187
  115fsi     S2 1532   1.827   2.466   1.136  0.4631 -0.3224 -0.2705
  115fsi     O3 1533   1.955   2.531   1.165  0.0494  0.1889 -0.3773
  115fsi     O4 1534   1.756   2.402   1.243  0.3220  0.2498  0.2156
  115fsi     F2 1535   1.731   2.591   1.097  0.0075 -0.1475 -0.3002
  116fsi     F1 1536   3.202   1.403   2.077  0.0750 -0.0727  0.4362
  116fsi     S1 1537   3.347   1.361   2.143  0.2971  0.1729 -0.2375
  116fsi      N 1538   3.312   1.244   2.246 -0.3920 -0.0157  0.3041
  116fsi     O1 1539   3.433   1.324   2.033 -0.0124  0.6294  0.2431
  116fsi     O2 1540   3.378   1.479   2.214  0.2369 -0.5312  0.0840
  116fsi     S2 1541   3.313   1.091   2.227  0.2293  0.1194  0.1597
  116fsi     O3 1542   3.379   1.041   2.108 -0.0519 -0.6764  0.2853
  116fsi     O4 1543   3.185   1.027   2.256 -0.3140  0.2033 -0.0787
  116fsi     F2 1544   3.405   1.036   2.349  0.1081 -0.0810  0.2114
  117fsi     F1 1545   2.048   0.103   2.157 -0.3396 -0.0579  0.6813
  117fsi     S1 1546   2.076   0.238   2.230  0.0377 -0.3142  0.4369
  117fsi      N 1547   1.921   0.298   2.243 -0.0603  0.1063  0.0123
  117fsi     O1 1548   2.123   0.192   2.361  0.1173  0.6611 -0.1870
  117fsi     O2 1549   2.167   0.311   2.143 -0.4995  0.2751 -0.0163
  117fsi     S2 1550   1.849   0.410   2.155  0.2419 -0.0769  0.2318
  117fsi     O3 1551   1.917   0.449   2.033 -0.0062  0.2784  0.0174
  117fsi     O4 1552   1.803   0.518   2.239  0.3935 -0.1548  0.2337
  117fsi     F2 1553   1.718   0.342   2.101 -0.4644  0.2750  0.1234
  118fsi     F1 1554   1.883   3.019   1.662 -0.1741  0.2258  0.1766
  118fsi     S1 1555   2.013   3.063   1.738 -0.2023 -0.2630 -0.4395
  118fsi      N 1556   2.007   3.218   1.729  0.0943  0.2429 -0.8972
  118fsi     O1 1557   2.007   3.012   1.874  0.5057 -0.4334  0.3455
  118fsi     O2 1558   2.121   3.017   1.660  0.3838  0.2224  0.1925
  118fsi     S2 1559   1.912   3.316   1.815  0.3892  0.1841 -0.3394
  118fsi     O3 1560   1.976   3.429   1.869 -0.5530  0.3705  0.0644
  118fsi     O4 1561   1.823   3.247   1.909 -0.3719 -0.4632  0.3168
  118fsi     F2 1562   1.815   3.383   1.710  0.2308  0.0914  0.6540
  119fsi     F1 1563   1.893   3.067   0.609 -0.2964 -0.0077 -0.0447
  119fsi     S1 1564   1.753   2.997   0.598  0.6456 -0.4019  0.2752
  119fsi      N 1565   1.654   3.115   0.644 -0.0248 -0.0862 -0.0657
  119fsi     O1 1566   1.732   2.964   0.455 -0.1972 -0.4827 -0.2835
  119fsi     O2 1567   1.761   2.886   0.691 -0.2218 -0.2990  0.2138
  119fsi     S2 1568   1.559   3.211   0.566 -0.4992 -0.1824 -0.0193
  119fsi     O3 1569   1.549   3.183   0.424  0.0685 -0.3767  0.2194
  119fsi     O4 1570   1.575   3.347   0.611  1.0965 -0.7980  0.3125
  119fsi     F2 1571   1.416   3.169   0.624 -0.3396 -0.0022  0.4437
  120fsi     F1 1572   2.825   2.789   2.815 -0.1420  0.2132 -0.1792
  120fsi     S1 1573   2.722   2.916   2.816  0.1330  0.0645 -0.4662
  120fsi      N 1574   2.599   2.857   2.737  0.7832  0.1851 -0.3092
  120fsi     O1 1575   2.695   2.942   2.953  0.3530  0.1393 -0.5711
  120fsi     O2 1576   2.801   3.006   2.737  0.3713 -0.5718  0.2548
  120fsi     S2 1577   2.498   2.742   2.772  0.3097 -0.0244  0.3276
  120fsi     O3 1578   2.540   2.650   2.866  0.0335 -0.1434  0.0003
  120fsi     O4 1579   2.443   2.683   2.649 -0.3880  0.3870 -0.3222
  120fsi     F2 1580   2.378   2.809   2.837 -0.1079  0.3865  0.6380
  121fsi     F1 1581   2.687   0.487   0.564  0.3251 -0.1258 -0.0688
  121fsi     S1 1582   2.615   0.355   0.604 -0.4345 -0.0598 -0.1673
  121fsi      N 1583   2.485   0.351   0.519  0.3690  0.1732  0.2718
  121fsi     O1 1584   2.703   0.249   0.577  0.6115 -0.1471  0.4757
  121fsi     O2 1585   2.585   0.378   0.745 -0.3968  0.3440 -0.4201
  121fsi     S2 1586   2.462   0.315   0.363 -0.2154 -0.0947 -0.3258
  121fsi     O3 1587   2.581   0.297   0.284  0.3816 -0.3668 -0.0872
  121fsi     O4 1588   2.364   0.402   0.302  0.4255 -0.3657  0.2902
  121fsi     F2 1589   2.390   0.180   0.356  0.6524 -0.0097  0.2142
  122fsi     F1 1590   1.858   0.270   2.904  0.3483  0.2720 -0.4478
  122fsi     S1 1591   1.999   0.216   2.853  0.0834 -0.1668  0.0995
  122fsi      N 1592   2.086   0.347   2.859  0.0429 -0.1076  0.5231
  122fsi     O1 1593   2.028   0.131   2.967 -0.3432  0.2187 -0.1787
  122fsi     O2 1594   1.972   0.162   2.729  0.3860 -0.0702  0.1676
  122fsi     S2 1595   2.113   0.445   2.743 -0.1036 -0.1319 -0.0085
  122fsi     O3 1596   2.055   0.408   2.614  0.7557  0.3632  0.1895
  122fsi     O4 1597   2.254   0.488   2.742  0.4044  0.0091  0.3837
  122fsi     F2 1598   2.041   0.581   2.787 -0.1962  0.3725  0.1013
  123fsi     F1 1599   1.788   0.085   3.175  0.0063  0.3772  0.1254
  123fsi     S1 1600   1.692   0.114   3.281 -0.2465  0.3907 -0.1953
  123fsi      N 1601   1.779   0.187   3.390 -0.4619  0.0577 -0.6282
  123fsi     O1 1602   1.601   0.203   3.220  0.2487 -0.4968  0.6454
  123fsi     O2 1603   1.638  -0.009   3.324 -0.1801  0.1840  0.5409
  123fsi     S2 1604   1.857   0.124   3.511  0.3183  0.3333  0.2136
  123fsi     O3 1605   1.995   0.147   3.508  1.0113  0.4966  0.5269
  123fsi     O4 1606   1.826  -0.011   3.533 -0.6529  0.2666 -0.6328
  123fsi     F2 1607   1.806   0.200   3.639 -0.3341  0.2834  0.7598
  124fsi     F1 1608   3.226   0.533   3.197 -0.1260  0.5442 -0.2323
  124fsi     S1 1609   3.297   0.460   3.088  0.1210  0.4756 -0.0885
  124fsi      N 1610   3.359   0.344   3.172 -0.4223  0.7000 -0.2391
  124fsi     O1 1611   3.187   0.415   3.002  0.1025  0.3012  0.0831
  124fsi     O2 1612   3.397   0.551   3.034  0.2992 -0.2753 -0.1807
  124fsi     S2 1613   3.441   0.214   3.128 -0.2020 -0.2787  0.3807
  124fsi     O3 1614   3.436   0.186   2.991 -0.1893  0.3525 -0.2370
  124fsi     O4 1615   3.430   0.110   3.225  0.1338 -0.0277  0.5135
  124fsi     F2 1616   3.586   0.267   3.160  0.2108 -0.0701 -0.3853
  125fsi     F1 1617   0.029   2.099   0.121  0.2240  0.2892  0.4068
  125fsi     S1 1618  -0.012   2.197   0.242  0.2744 -0.2610 -0.1702
  125fsi      N 1619  -0.116   2.288   0.164 -0.0583  0.2014 -0.6876
  125fsi     O1 1620  -0.067   2.104   0.338  0.5472  0.5957  0.2257
  125fsi     O2 1621   0.108   2.261   0.276 -0.3122 -0.3148 -0.5030
  125fsi     S2 1622  -0.238   2.382   0.210  0.4933  0.1692 -0.1653
  125fsi     O3 1623  -0.296   2.353   0.341 -0.3474  0.3358 -0.4778
  125fsi     O4 1624  -0.326   2.421   0.103  0.0831 -0.6145 -0.0372
  125fsi     F2 1625  -0.165   2.514   0.248  0.8155  0.0670  0.2338
  126fsi     F1 1626   3.091   1.024   0.682  0.2372 -0.0139  0.1541
  126fsi     S1 1627   3.148   1.085   0.819  0.0304 -0.4221 -0.1546
  126fsi      N 1628   3.251   1.186   0.756  0.2729 -1.1749  0.5659
  126fsi     O1 1629   3.034   1.144   0.882  0.3793 -0.7508 -0.6325
  126fsi     O2 1630   3.216   0.978   0.884  0.1970 -0.0380 -0.0963
  126fsi     S2 1631   3.233   1.336   0.728 -0.2255 -0.2775  0.2645
  126fsi     O3 1632   3.363   1.401   0.730  0.1813  0.3893  0.0450
  126fsi     O4 1633   3.130   1.401   0.797 -0.1148 -0.5464  0.2296
  126fsi     F2 1634   3.190   1.337   0.577  0.3142  0.2830  0.0286
  127fsi     F1 1635   2.493   1.254   1.772 -0.2908 -0.1337 -0.0767
  127fsi     S1 1636   2.563   1.141   1.691 -0.0696  0.0504  0.3944
  127fsi      N 1637   2.473   1.124   1.567  0.1652  0.3616  0.6556
  127fsi     O1 1638   2.688   1.207   1.656  0.0066  0.0689 -0.4287
  127fsi     O2 1639   2.555   1.030   1.783  0.1782 -0.2289 -0.3139
  127fsi     S2 1640   2.504   1.144   1.423 -0.1146  0.5630  0.2543
  127fsi     O3 1641   2.404   1.094   1.336 -0.5260 -0.0593 -0.3601
  127fsi     O4 1642   2.641   1.124   1.378 -0.4485  0.1768  0.0580
  127fsi     F2 1643   2.488   1.300   1.408 -0.1084 -0.3488 -0.3665
  128fsi     F1 1644   0.818   1.038   1.788  0.9155  0.3320  0.0239
  128fsi     S1 1645   0.935   1.118   1.720 -0.1889  0.1635 -0.1045
  128fsi      N 1646   1.007   1.001   1.646 -0.6023  0.2038 -0.1714
  128fsi     O1 1647   0.867   1.213   1.634 -0.0617  0.6416 -0.5721
  128fsi     O2 1648   1.003   1.175   1.831 -0.0675  0.0519 -0.6693
  128fsi     S2 1649   1.109   0.897   1.701  0.0344 -0.3515 -0.2714
  128fsi     O3 1650   1.176   0.921   1.827 -0.1998 -0.2404  0.0518
  128fsi     O4 1651   1.200   0.853   1.597  0.3875 -0.1328 -0.7233
  128fsi     F2 1652   1.018   0.767   1.718  0.2318  0.0383 -0.1572
  129fsi     F1 1653   0.581   1.255   0.452 -0.3101 -0.4257 -0.4591
  129fsi     S1 1654   0.441   1.318   0.396  0.5273  0.2797 -0.3009
  129fsi      N 1655   0.373   1.199   0.325 -0.2374  0.4346  0.1064
  129fsi     O1 1656   0.372   1.364   0.518 -0.4060  0.5787  0.1522
  129fsi     O2 1657   0.480   1.415   0.303  0.2066  0.0818  0.2757
  129fsi     S2 1658   0.250   1.118   0.372  0.1117  0.0562  0.2616
  129fsi     O3 1659   0.226   1.104   0.514 -0.6490  0.2100 -0.5011
  129fsi     O4 1660   0.225   1.003   0.286  0.0229  0.4210  0.4695
  129fsi     F2 1661   0.130   1.209   0.311 -0.2333 -0.3948 -0.0198
  130fsi     F1 1662   0.643   2.582   0.002  0.0207  0.1631  0.3814
  130fsi     S1 1663   0.696   2.656   0.131  0.0488  0.0223 -0.5999
  130fsi      N 1664   0.564   2.676   0.215 -0.2019  0.3223 -0.1271
  130fsi     O1 1665   0.790   2.562   0.189 -0.2062  0.4907 -0.2582
  130fsi     O2 1666   0.743   2.783   0.080  0.2383 -0.0657  0.0412
  130fsi     S2 1667   0.495   2.578   0.320  0.6515 -0.1253 -0.3753
  130fsi     O3 1668   0.518   2.437   0.298 -0.0466 -0.5816 -0.4580
  130fsi     O4 1669   0.360   2.627   0.340  0.2988 -0.1545 -0.0563
  130fsi     F2 1670   0.567   2.603   0.456 -0.0280  0.1791 -0.6448
  131fsi     F1 1671   0.070   2.679   1.361 -0.0249  1.2132 -0.0566
  131fsi     S1 1672   0.003   2.814   1.307  0.0109  0.3553  0.1480
  131fsi      N 1673  -0.151   2.775   1.304  0.3486  0.3480 -0.0501
  131fsi     O1 1674   0.031   2.913   1.410  0.2566  0.0752  0.5295
  131fsi     O2 1675   0.062   2.837   1.176 -0.2934 -0.0196 -0.1055
  131fsi     S2 1676  -0.248   2.777   1.428  0.0053  0.4002  0.0921
  131fsi     O3 1677  -0.378   2.714   1.403 -0.8295  0.2143 -0.2696
  131fsi     O4 1678  -0.243   2.903   1.494  0.4223  0.2891  0.2209
  131fsi     F2 1679  -0.184   2.681   1.528 -0.3258 -0.0419  0.2784
  132fsi     F1 1680   0.803   1.677   2.737  0.3967 -0.3361  0.2535
  132fsi     S1 1681   0.782   1.637   2.588 -0.2164 -0.1577 -0.2538
  132fsi      N 1682   0.808   1.773   2.513  0.1484  0.3010 -0.0297
  132fsi     O1 1683   0.878   1.531   2.570  0.4162 -0.0809  0.5480
  132fsi     O2 1684   0.642   1.602   2.583  0.2416 -0.9073  0.0287
  132fsi     S2 1685   0.920   1.797   2.405 -0.0653  0.1367  0.4142
  132fsi     O3 1686   0.900   1.918   2.331  0.2728  0.1881 -0.6525
  132fsi     O4 1687   0.971   1.677   2.342  0.9019 -0.3156  0.3571
  132fsi     F2 1688   1.045   1.843   2.496  0.2555 -1.0997 -0.3650
  133fsi     F1 1689   1.734   2.703   1.882 -0.1819  0.0429 -0.0491
  133fsi     S1 1690   1.628   2.789   1.953 -0.3485  0.3956  0.5883
  133fsi      N 1691   1.574   2.692   2.069 -0.9760 -0.3335  0.3845
  133fsi     O1 1692   1.707   2.898   2.003  0.3669 -0.3948  0.2454
  133fsi     O2 1693   1.531   2.810   1.848 -0.0610 -0.4584 -0.2155
  133fsi     S2 1694   1.637   2.664   2.206  0.0285  0.0105 -0.4763
  133fsi     O3 1695   1.770   2.709   2.222 -0.1192 -0.3939 -0.3846
  133fsi     O4 1696   1.608   2.530   2.255 -0.2247 -0.1219  0.0403
  133fsi     F2 1697   1.563   2.757   2.308 -0.0905  0.1592 -0.1967
  134fsi     F1 1698   2.392   0.307   1.578 -0.4842  0.3051  0.3157
  134fsi     S1 1699   2.277   0.220   1.623  0.1034 -0.2796  0.1299
  134fsi      N 1700   2.181   0.232   1.497  0.1253  0.2462 -0.4866
  134fsi     O1 1701   2.335   0.084   1.650  0.5536  0.3391 -0.1300
  134fsi     O2 1702   2.231   0.291   1.740 -0.1283  0.0019  0.3536
  134fsi     S2 1703   2.134   0.125   1.391  0.1497 -0.0893 -0.2936
  134fsi     O3 1704   2.184  -0.008   1.412 -0.5253  0.3348 -0.3172
  134fsi     O4 1705   2.136   0.165   1.253 -0.6375 -0.4450  0.0571
  134fsi     F2 1706   1.981   0.111   1.426 -0.1347  0.0612 -0.4989
  135fsi     F1 1707   1.478   0.636   1.204 -0.4290  0.2994 -0.3099
  135fsi     S1 1708   1.540   0.547   1.321  0.3243  0.0096 -0.0419
  135fsi      N 1709   1.584   0.421   1.246 -0.1486  0.4486  0.3505
  135fsi     O1 1710   1.641   0.626   1.380 -0.0538 -0.4149  0.0193
  135fsi     O2 1711   1.426   0.516   1.403  0.3801 -0.0077  0.1958
  135fsi     S2 1712   1.733   0.389   1.196  0.1655 -0.1788 -0.1068
  135fsi     O3 1713   1.827   0.498   1.226  0.8610 -0.1887  0.1191
  135fsi     O4 1714   1.731   0.333   1.063 -0.3821 -0.0739  0.1404
  135fsi     F2 1715   1.770   0.276   1.296  0.0093 -0.4062 -0.4736
  136fsi     F1 1716   1.022   1.326   0.914 -0.2349  0.0429  0.0621
  136fsi     S1 1717   1.150   1.414   0.882  0.2442 -0.4552 -0.2432
  136fsi      N 1718   1.122   1.551   0.955 -0.2346  0.5056  0.0348
  136fsi     O1 1719   1.253   1.328   0.940 -0.2883  0.0648 -0.1271
  136fsi     O2 1720   1.137   1.420   0.738  0.0566 -0.8055  0.3161
  136fsi     S2 1721   1.227   1.644   1.033  0.5371 -0.4394  0.2526
  136fsi     O3 1722   1.360   1.591   1.052 -0.8715 -0.1001 -0.1741
  136fsi     O4 1723   1.163   1.702   1.145  0.4955  0.2807  0.0977
  136fsi     F2 1724   1.251   1.764   0.941  0.0900  0.4672 -0.2110
  137fsi     F1 1725   2.849   2.951   2.341 -0.0519 -0.5903 -0.1368
  137fsi     S1 1726   2.934   2.832   2.392 -0.1655  0.2938  0.1538
  137fsi      N 1727   2.823   2.728   2.432 -0.3930 -0.4880 -0.3046
  137fsi     O1 1728   3.019   2.797   2.282 -0.0491 -0.5476  0.0399
  137fsi     O2 1729   3.002   2.895   2.501 -0.2421  0.0256 -0.1731
  137fsi     S2 1730   2.735   2.639   2.345 -0.1633  0.0068  0.0508
  137fsi     O3 1731   2.697   2.677   2.213 -0.2746 -0.1074  0.1353
  137fsi     O4 1732   2.639   2.575   2.433 -0.3242 -0.2302 -0.0486
  137fsi     F2 1733   2.826   2.521   2.315  0.1227 -0.2407 -0.5855
  138fsi     F1 1734   0.322   3.096   0.073 -0.2188 -0.0372  0.0563
  138fsi     S1 1735   0.407   2.969   0.063 -0.0298  0.4038  0.2204
  138fsi      N 1736   0.378   2.938  -0.091  0.2367 -0.6459  0.5202
  138fsi     O1 1737   0.538   3.008   0.109  0.2191 -0.3278  0.0524
  138fsi     O2 1738   0.342   2.876   0.144  0.0003  0.3431  0.0586
  138fsi     S2 1739   0.476   2.936  -0.211 -0.4977 -0.3738  0.2710
  138fsi     O3 1740   0.423   2.852  -0.311  0.1543  0.0289  0.4206
  138fsi     O4 1741   0.616   2.921  -0.173 -0.4855  0.5111 -0.0359
  138fsi     F2 1742   0.473   3.088  -0.270 -0.0996  0.7398  0.0720
  139fsi     F1 1743   0.106   2.490   2.850  0.1502 -0.3777  0.2748
  139fsi     S1 1744   0.195   2.609   2.793  0.1413 -0.1792 -0.0499
  139fsi      N 1745   0.142   2.615   2.644 -0.4217 -0.0539  0.1022
  139fsi     O1 1746   0.162   2.723   2.879  0.1835 -0.0557  0.0309
  139fsi     O2 1747   0.334   2.562   2.806 -0.6152 -0.3751  0.0799
  139fsi     S2 1748   0.033   2.706   2.584  0.0793  0.2569  0.2518
  139fsi     O3 1749  -0.038   2.789   2.676  0.4038  0.0837 -0.2291
  139fsi     O4 1750  -0.046   2.630   2.489  0.2110 -0.1862 -0.1525
  139fsi     F2 1751   0.116   2.797   2.493  0.0406  0.2651  0.7552
  140fsi     F1 1752   1.458   2.582   2.754  0.8261  0.0655  0.1588
  140fsi     S1 1753   1.436   2.584   2.906 -0.0352  0.1118 -0.0566
  140fsi      N 1754   1.409   2.432   2.935  0.3205 -0.9372 -0.0119
  140fsi     O1 1755   1.563   2.627   2.964  0.1683 -0.2844  0.8413
  140fsi     O2 1756   1.326   2.674   2.921  0.0432  0.4794 -0.5434
  140fsi     S2 1757   1.271   2.357   2.941  0.7319  0.1835  0.2828
  140fsi     O3 1758   1.260   2.253   2.841 -0.2120  0.1839  0.3730
  140fsi     O4 1759   1.149   2.431   2.970 -0.3699  0.2149 -0.1222
  140fsi     F2 1760   1.286   2.270   3.071  0.3989  0.1930 -0.0806
  141fsi     F1 1761   2.919   0.511   3.055 -0.5716  0.8220  0.1676
  141fsi     S1 1762   2.835   0.379   3.043 -0.0952 -0.1938 -0.2876
  141fsi      N 1763   2.700   0.436   2.988 -0.7384  0.7137 -0.2985
  141fsi     O1 1764   2.896   0.301   2.940 -0.5722 -0.3728  0.0747
  141fsi     O2 1765   2.845   0.333   3.180  0.0070  0.4098 -0.3112
  141fsi     S2 1766   2.571   0.471   3.065 -0.4083 -0.1017  0.0890
  141fsi     O3 1767   2.544   0.386   3.180 -0.5884  0.5880 -0.4832
  141fsi     O4 1768   2.455   0.499   2.985  0.4704  0.6124  0.8556
  141fsi     F2 1769   2.600   0.614   3.134  0.7721  0.3556 -0.4861
  142fsi     F1 1770   1.522   0.235   2.327 -0.2089  0.2924  0.9140
  142fsi     S1 1771   1.588   0.143   2.439 -0.3797 -0.3655 -0.5857
  142fsi      N 1772   1.618   0.012   2.362  0.1010 -0.0346 -0.2581
  142fsi     O1 1773   1.702   0.217   2.484  0.2864 -0.3548  0.2317
  142fsi     O2 1774   1.480   0.125   2.528 -0.0533  0.3648 -0.4920
  142fsi     S2 1775   1.747  -0.064   2.329  0.4415  0.0743 -0.1991
  142fsi     O3 1776   1.862  -0.026   2.407 -0.0705  0.9908  0.0733
  142fsi     O4 1777   1.767  -0.098   2.190 -0.2702 -0.0315 -0.6833
  142fsi     F2 1778   1.723  -0.199   2.401 -0.5568 -0.3371 -0.1808
  143fsi     F1 1779   0.578   0.728   1.491  0.1760  0.4035 -0.2849
  143fsi     S1 1780   0.586   0.835   1.598  0.0287 -0.7283  0.0690
  143fsi      N 1781   0.681   0.765   1.700 -0.2379 -0.0618  0.2958
  143fsi     O1 1782   0.649   0.947   1.529 -0.0125  0.1956  0.2384
  143fsi     O2 1783   0.450   0.849   1.635  0.0174 -0.1643  0.5718
  143fsi     S2 1784   0.655   0.652   1.805  0.2757  0.0836  0.0738
  143fsi     O3 1785   0.516   0.645   1.836 -0.1406 -0.3170  0.0685
  143fsi     O4 1786   0.752   0.643   1.908 -0.1436 -0.0438  0.0353
  143fsi     F2 1787   0.682   0.515   1.725 -0.1480  0.8611 -0.3599
  144fsi     F1 1788   0.961   1.698   0.121 -0.2674 -0.3022  0.2424
  144fsi     S1 1789   0.996   1.712   0.275  0.2153 -0.4600 -0.1166
  144fsi      N 1790   1.082   1.583   0.301  0.1886 -0.1847 -0.1835
  144fsi     O1 1791   1.066   1.836   0.285  0.7074 -0.3856  0.3102
  144fsi     O2 1792   0.866   1.705   0.334  0.0214  0.1304 -0.4349
  144fsi     S2 1793   1.232   1.560   0.257  0.1785  0.2171  0.4878
  144fsi     O3 1794   1.295   1.672   0.198  0.4782 -0.0706  0.0708
  144fsi     O4 1795   1.254   1.432   0.193  0.5390  0.1407 -0.6758
  144fsi     F2 1796   1.316   1.546   0.396 -0.0258 -0.2466 -0.4694
  145fsi     F1 1797   1.419   0.371   2.975  0.3510 -0.0090  0.0406
  145fsi     S1 1798   1.266   0.352   2.921 -0.3056  0.2730  0.4391
  145fsi      N 1799   1.184   0.381   3.047 -0.4621  0.1830 -0.1618
  145fsi     O1 1800   1.243   0.447   2.813  0.1385  0.0148 -0.6288
  145fsi     O2 1801   1.262   0.214   2.882 -0.3049  0.1613  0.3587
  145fsi     S2 1802   1.119   0.513   3.103 -0.2321 -0.5891 -0.0437
  145fsi     O3 1803   0.995   0.479   3.172  0.1736 -0.2714  0.3112
  145fsi     O4 1804   1.131   0.624   3.019 -0.3154 -0.2194 -0.0876
  145fsi     F2 1805   1.207   0.545   3.228 -0.3353 -0.2023  0.1375
  146fsi     F1 1806   2.036   1.061   0.065  0.6024  0.4458 -0.2094
  146fsi     S1 1807   1.971   1.073   0.208  0.0849  0.0016 -0.3084
  146fsi      N 1808   1.989   1.223   0.245  1.0668  0.5328 -0.9219
  146fsi     O1 1809   1.834   1.034   0.190  0.8975 -0.3530  0.3840
  146fsi     O2 1810   2.055   0.983   0.286  0.7089  0.1168 -0.1029
  146fsi     S2 1811   2.104   1.284   0.335 -0.3158 -0.1622  0.1472
  146fsi     O3 1812   2.128   1.418   0.291  0.1789  0.3079 -0.6497
  146fsi     O4 1813   2.221   1.198   0.343 -0.2818 -0.0560 -0.4609
  146fsi     F2 1814   2.042   1.307   0.479  0.5717  0.0155  0.3011
  147fsi     F1 1815   0.018   3.201   1.516 -0.1586 -0.2733 -0.0650
  147fsi     S1 1816  -0.090   3.290   1.433 -0.2544 -0.2797 -0.4400
  147fsi      N 1817  -0.075   3.430   1.493 -0.9525 -0.2203  0.8369
  147fsi     O1 1818  -0.040   3.289   1.296 -0.0904 -0.1142  0.4551
  147fsi     O2 1819  -0.221   3.238   1.462 -0.2535  0.0213  0.2350
  147fsi     S2 1820  -0.150   3.494   1.614 -0.2708 -0.2325 -0.8499
  147fsi     O3 1821  -0.091   3.618   1.646  0.0263 -0.1979  0.1791
  147fsi     O4 1822  -0.184   3.398   1.716  0.7185  0.0696 -0.6368
  147fsi     F2 1823  -0.284   3.532   1.545  0.1478  0.0590 -0.3070
  148fsi     F1 1824   0.956   0.841   3.039  0.4057 -0.3917 -0.2522
  148fsi     S1 1825   0.900   0.845   2.890 -0.1202  0.4133  0.4236
  148fsi      N 1826   0.806   0.720   2.888 -0.3657  0.3104 -0.0275
  148fsi     O1 1827   0.833   0.972   2.899  0.0242 -0.8310 -0.2705
  148fsi     O2 1828   1.020   0.837   2.803  0.1249  0.5365  0.3373
  148fsi     S2 1829   0.830   0.574   2.836 -0.1057  0.2161  0.1818
  148fsi     O3 1830   0.811   0.477   2.937 -0.2717 -0.0171  0.9562
  148fsi     O4 1831   0.935   0.557   2.746 -0.1931 -0.4748 -0.0099
  148fsi     F2 1832   0.705   0.554   2.738  0.0031  0.3974 -0.3778
  149fsi     F1 1833   0.721   2.729   2.831  0.0866 -0.1458  0.3136
  149fsi     S1 1834   0.718   2.575   2.805 -0.2034 -0.1627  0.1713
  149fsi      N 1835   0.870   2.537   2.792  0.0379 -0.0002  0.4311
  149fsi     O1 1836   0.665   2.519   2.928 -0.7273  0.0648 -0.8109
  149fsi     O2 1837   0.647   2.564   2.680 -0.5703  0.5328 -0.0802
  149fsi     S2 1838   0.953   2.500   2.656  0.0316  0.0596  0.3877
  149fsi     O3 1839   1.094   2.489   2.681 -0.3918 -0.0492  0.1417
  149fsi     O4 1840   0.899   2.564   2.534  0.1351 -0.5322 -0.1614
  149fsi     F2 1841   0.914   2.342   2.625  0.2427 -0.1387  0.0434
  150fsi     F1 1842   0.912   1.401   2.093  0.3786  0.3172 -0.3052
  150fsi     S1 1843   0.963   1.322   2.214 -0.0028 -0.0642  0.0557
  150fsi      N 1844   0.979   1.176   2.146 -0.1977  0.6916 -0.0797
  150fsi     O1 1845   1.088   1.385   2.245  1.0896 -0.0593  0.5241
  150fsi     O2 1846   0.859   1.337   2.309 -0.2101  0.1785  0.3081
  150fsi     S2 1847   0.879   1.054   2.154 -0.1572 -0.0073  0.2032
  150fsi     O3 1848   0.836   1.022   2.289  0.2658 -0.1603  0.5463
  150fsi     O4 1849   0.916   0.949   2.070 -0.2229 -0.0930  0.2471
  150fsi     F2 1850   0.744   1.115   2.092  0.6813 -0.1437 -0.0896
  151fsi     F1 1851   1.897   1.888   2.382  0.6093  0.2671 -0.0421
  151fsi     S1 1852   1.791   1.833   2.481  0.3319 -0.4859  0.2476
  151fsi      N 1853   1.881   1.807   2.601 -0.2282 -0.1194 -0.2031
  151fsi     O1 1854   1.700   1.940   2.501  0.3872 -0.2349 -0.4998
  151fsi     O2 1855   1.740   1.721   2.410  0.1201 -0.1314 -0.5124
  151fsi     S2 1856   1.951   1.677   2.643 -0.3617  0.4818 -0.0500
  151fsi     O3 1857   1.940   1.568   2.545 -0.1916 -0.1004 -1.1852
  151fsi     O4 1858   1.933   1.646   2.781 -0.3554  0.1056 -0.2234
  151fsi     F2 1859   2.106   1.708   2.637  0.1561  0.1944 -0.0986
  152fsi     F1 1860   0.991   0.822   2.489  0.4081  0.5331  0.2456
  152fsi     S1 1861   1.132   0.787   2.434  0.8561  0.0082  0.3592
  152fsi      N 1862   1.100   0.694   2.312  0.2785 -0.4949 -0.5038
  152fsi     O1 1863   1.181   0.913   2.394 -0.2727  0.1903  0.2463
  152fsi     O2 1864   1.192   0.725   2.552  0.1246 -0.1107 -0.2453
  152fsi     S2 1865   1.135   0.707   2.160  0.1590  0.2846 -0.1574
  152fsi     O3 1866   1.188   0.834   2.122 -0.3229  0.3994 -0.2103
  152fsi     O4 1867   1.039   0.652   2.073 -0.2168  0.2313 -0.1522
  152fsi     F2 1868   1.257   0.610   2.146 -0.2576  0.3301  0.5612
  153fsi     F1 1869   1.476   1.089   2.214  0.1792  0.0220 -0.4587
  153fsi     S1 1870   1.432   1.187   2.094 -0.1047  0.3553 -0.0464
  153fsi      N 1871   1.424   1.326   2.166  0.1459 -0.2145 -0.1501
  153fsi     O1 1872   1.545   1.170   2.007  0.0757 -0.4714 -0.1283
  153fsi     O2 1873   1.303   1.133   2.054  0.5631 -0.5553 -0.1840
  153fsi     S2 1874   1.528   1.449   2.177 -0.4894  0.1579 -0.0553
  153fsi     O3 1875   1.600   1.473   2.057 -0.1370 -0.0494  0.6351
  153fsi     O4 1876   1.610   1.444   2.301 -0.1236  1.2531 -0.0451
  153fsi     F2 1877   1.451   1.586   2.186  0.1432 -0.1610  0.5309
  154fsi     F1 1878   0.640   1.972   2.780  0.1664  0.1108  0.0686
  154fsi     S1 1879   0.600   2.112   2.717 -0.2508  0.0351 -0.6782
  154fsi      N 1880   0.448   2.081   2.671  0.2764  0.2137  0.6126
  154fsi     O1 1881   0.605   2.209   2.821 -0.2455 -0.2107 -0.5259
  154fsi     O2 1882   0.696   2.123   2.612  1.0936 -0.2979  0.4988
  154fsi     S2 1883   0.320   2.100   2.753 -0.2658  0.2008 -0.3320
  154fsi     O3 1884   0.201   2.067   2.675  0.4369  0.3253 -0.0848
  154fsi     O4 1885   0.319   2.212   2.844  0.2438  0.2169 -0.3405
  154fsi     F2 1886   0.331   1.981   2.856  0.2343 -0.3318  0.3924
  155fsi     F1 1887   0.001   2.531   0.529  0.2010  0.7549  0.0506
  155fsi     S1 1888   0.014   2.671   0.581 -0.3092  0.3025  0.0203
  155fsi      N 1889   0.072   2.652   0.728  0.6828  0.2839 -0.1751
  155fsi     O1 1890   0.100   2.736   0.482 -0.3709 -0.4144 -0.5131
  155fsi     O2 1891  -0.123   2.717   0.585 -0.3838 -0.1251 -0.0100
  155fsi     S2 1892   0.219   2.682   0.778 -0.2353  0.1339  0.3925
  155fsi     O3 1893   0.321   2.672   0.675 -0.2936  0.2717  0.2318
  155fsi     O4 1894   0.262   2.616   0.898  0.1916 -0.2255 -0.3386
  155fsi     F2 1895   0.215   2.836   0.808  0.0843 -0.3545  0.0946
  156fsi     F1 1896   3.161   1.814   1.459 -0.1264  0.3820  0.1892
  156fsi     S1 1897   3.187   1.944   1.551 -0.1337 -0.0857  0.6074
  156fsi      N 1898   3.040   1.973   1.604 -0.8052  0.1880 -0.3064
  156fsi     O1 1899   3.278   1.896   1.653  0.3167  0.1870  0.2275
  156fsi     O2 1900   3.233   2.041   1.459  0.4106  0.0090 -0.1546
  156fsi     S2 1901   2.958   2.106   1.593 -0.2174 -0.0289  0.1836
  156fsi     O3 1902   2.818   2.091   1.559  0.2340 -0.0813  0.5656
  156fsi     O4 1903   3.023   2.222   1.538  0.0817 -0.2844  0.3352
  156fsi     F2 1904   2.947   2.145   1.747 -0.1874  0.2180 -0.6798
  157fsi     F1 1905   1.173   2.927   0.286  0.6135  0.3842 -0.2942
  157fsi     S1 1906   1.042   2.859   0.217  0.4650  0.3345 -0.0019
  157fsi      N 1907   1.106   2.781   0.098 -0.1233 -0.1842  0.3080
  157fsi     O1 1908   0.978   2.782   0.319  0.4472  0.7708  0.2622
  157fsi     O2 1909   0.969   2.972   0.163 -0.3013 -0.3656  0.1903
  157fsi     S2 1910   1.141   2.630   0.069 -0.0552  0.2313  0.5042
  157fsi     O3 1911   1.129   2.550   0.183  0.2336  0.5064 -0.6946
  157fsi     O4 1912   1.248   2.614  -0.027 -0.5461 -0.7078 -0.3078
  157fsi     F2 1913   1.010   2.577  -0.019 -0.1877  0.5455 -0.0729
  158fsi     F1 1914   0.605   0.173   2.489  0.3826  0.3199 -0.5259
  158fsi     S1 1915   0.574   0.217   2.339  0.3794  0.3287  0.3622
  158fsi      N 1916   0.684   0.333   2.319 -0.1950 -0.0210  0.2397
  158fsi     O1 1917   0.599   0.100   2.259 -0.3719  0.2339  0.2405
  158fsi     O2 1918   0.441   0.269   2.349 -0.0296  0.1710 -0.3791
  158fsi     S2 1919   0.670   0.488   2.342  0.6175  0.0152 -0.2687
  158fsi     O3 1920   0.557   0.526   2.421  0.3992 -0.2202  0.0573
  158fsi     O4 1921   0.711   0.569   2.229 -0.2508  0.4489 -0.0945
  158fsi     F2 1922   0.783   0.514   2.449 -0.0445 -0.1290 -0.4815
  159fsi     F1 1923   2.879   0.466   0.858  0.3049 -0.4397 -0.1449
  159fsi     S1 1924   3.024   0.423   0.815 -0.6187  0.2615 -0.2905
  159fsi      N 1925   3.053   0.298   0.909  0.4597 -0.6018  1.1546
  159fsi     O1 1926   3.001   0.396   0.676  0.0210 -0.2075  0.2715
  159fsi     O2 1927   3.115   0.530   0.845  1.3249 -0.6583  0.3811
  159fsi     S2 1928   3.011   0.146   0.890 -0.0300  0.2170 -0.4208
  159fsi     O3 1929   2.921   0.119   0.781 -0.2157 -0.1379  0.0274
  159fsi     O4 1930   2.989   0.088   1.020 -0.3002  0.0681 -0.3173
  159fsi     F2 1931   3.141   0.079   0.841  0.2179  0.6586  0.4478
  160fsi     F1 1932   2.399   1.923   1.055  0.4301  0.1589  0.5868
  160fsi     S1 1933   2.242   1.895   1.080 -0.1448  0.5117 -0.1873
  160fsi      N 1934   2.183   2.043   1.085 -0.3384  0.1173 -0.2209
  160fsi     O1 1935   2.206   1.815   0.966  0.1240  0.2286  0.1382
  160fsi     O2 1936   2.239   1.836   1.209 -0.4487 -0.5107  0.4217
  160fsi     S2 1937   2.194   2.152   1.201  0.0410  0.0971 -0.1210
  160fsi     O3 1938   2.239   2.275   1.140  0.2663 -0.1335 -0.6203
  160fsi     O4 1939   2.269   2.111   1.317 -0.1013  0.0885  0.0841
  160fsi     F2 1940   2.045   2.179   1.254 -0.0358  0.3718 -0.6432
  161fsi     F1 1941   0.976   1.041   1.001  0.2596 -0.1224  0.3291
  161fsi     S1 1942   0.877   1.052   1.120 -0.2338 -0.6289 -0.2380
  161fsi      N 1943   0.797   1.185   1.094 -0.6416 -0.2502 -0.2216
  161fsi     O1 1944   0.784   0.942   1.099  0.2558  0.2315 -0.1931
  161fsi     O2 1945   0.958   1.060   1.237  0.6503 -0.1670  0.0514
  161fsi     S2 1946   0.784   1.304   1.192  0.0329  0.1648 -0.4822
  161fsi     O3 1947   0.743   1.256   1.320  0.4613  0.3524  0.1106
  161fsi     O4 1948   0.724   1.419   1.130 -0.2215  0.1564  0.0659
  161fsi     F2 1949   0.931   1.351   1.219  0.2730  0.1756 -0.3001
  162fsi     F1 1950   1.696   1.969   0.403 -0.6891  0.3729 -0.2807
  162fsi     S1 1951   1.673   1.833   0.482 -0.1080  0.2034 -0.0355
  162fsi      N 1952   1.568   1.863   0.593  0.2538  0.1858  0.5970
  162fsi     O1 1953   1.630   1.746   0.377 -0.3387 -0.3766 -0.5093
  162fsi     O2 1954   1.797   1.801   0.543  0.0213 -0.7879 -0.4140
  162fsi     S2 1955   1.413   1.835   0.592 -0.0110 -0.1102  0.4011
  162fsi     O3 1956   1.350   1.828   0.462  0.7763 -0.1115  0.4939
  162fsi     O4 1957   1.346   1.923   0.686 -0.3072  0.4825 -0.1591
  162fsi     F2 1958   1.395   1.691   0.651  0.6093  0.8130 -0.4695
  163fsi     F1 1959   0.332   2.063   0.416 -0.4920 -0.1992  0.1358
  163fsi     S1 1960   0.388   2.129   0.548  0.2718  0.1986 -0.0160
  163fsi      N 1961   0.284   2.090   0.653 -0.0394 -0.5519 -0.1023
  163fsi     O1 1962   0.511   2.052   0.566  0.4626  0.3331 -0.3805
  163fsi     O2 1963   0.388   2.268   0.510  0.3807 -0.3904  0.0541
  163fsi     S2 1964   0.182   2.178   0.733 -0.0584 -0.1755 -0.1952
  163fsi     O3 1965   0.233   2.311   0.759 -0.2609 -0.3334 -0.4491
  163fsi     O4 1966   0.146   2.101   0.848 -0.0693 -0.2460 -0.3590
  163fsi     F2 1967   0.061   2.185   0.637 -0.1273 -0.0326 -0.0683
  164fsi     F1 1968   0.568   1.581   3.050  0.0545  0.3299 -0.2621
  164fsi     S1 1969   0.579   1.454   3.133 -0.1193 -0.1975  0.3095
  164fsi      N 1970   0.455   1.480   3.224  0.3755 -0.6337  0.6515
  164fsi     O1 1971   0.572   1.353   3.036 -0.0116  0.3357 -0.0581
  164fsi     O2 1972   0.709   1.464   3.195  0.0260 -0.3083  0.0649
  164fsi     S2 1973   0.327   1.390   3.234  0.0533 -0.4689 -0.4812
  164fsi     O3 1974   0.269   1.408   3.363  0.1356 -0.3073  0.6762
  164fsi     O4 1975   0.348   1.256   3.183 -0.6394 -0.0938 -0.9932
  164fsi     F2 1976   0.226   1.454   3.129  0.7049 -0.4905  0.4350
  165fsi     F1 1977   1.907   1.515   1.295 -0.0114  0.0189  0.3523
  165fsi     S1 1978   1.745   1.503   1.313 -0.2227  0.2219 -0.1933
  165fsi      N 1979   1.727   1.457   1.463 -0.2505  0.1213  0.7123
  165fsi     O1 1980   1.701   1.635   1.277 -0.2899 -0.8825  0.0262
  165fsi     O2 1981   1.704   1.397   1.220 -0.2461 -0.0791 -0.3074
  165fsi     S2 1982   1.701   1.542   1.593  0.0885 -0.3467 -0.1925
  165fsi     O3 1983   1.696   1.457   1.709 -0.2644 -0.6888  0.3715
  165fsi     O4 1984   1.602   1.648   1.574 -0.2726 -0.0277 -0.2280
  165fsi     F2 1985   1.836   1.618   1.609 -0.3343 -0.0101  0.4721
  166fsi     F1 1986   0.187   0.810   1.480 -0.3104 -0.0533  0.3201
  166fsi     S1 1987   0.078   0.805   1.595  0.3063  0.1479  0.2210
  166fsi      N 1988   0.052   0.952   1.635  0.2953 -0.3622  0.7698
  166fsi     O1 1989  -0.039   0.755   1.531  0.1287 -0.0345 -0.3361
  166fsi     O2 1990   0.143   0.727   1.695 -0.0195 -0.3369 -0.0729
  166fsi     S2 1991   0.138   1.058   1.717  0.0058  0.2099 -0.1628
  166fsi     O3 1992   0.230   1.002   1.811 -0.3278  0.1635  0.1492
  166fsi     O4 1993   0.073   1.178   1.750  0.6994  0.2197 -0.1562
  166fsi     F2 1994   0.234   1.111   1.602  0.3686 -0.5228 -0.0117
  167fsi     F1 1995   0.686   0.386   0.235  0.1670  0.6231 -0.2117
  167fsi     S1 1996   0.791   0.270   0.222  0.0466 -0.2781  0.2134
  167fsi      N 1997   0.790   0.229   0.073 -0.0170  0.3764  0.5440
  167fsi     O1 1998   0.921   0.335   0.257  0.0198  0.1337 -0.4025
  167fsi     O2 1999   0.741   0.165   0.306  0.0371 -0.2072 -0.0499
  167fsi     S2 2000   0.740   0.098   0.002 -0.2464 -0.1051  0.0761
  167fsi     O3 2001   0.798  -0.020   0.060  0.0212 -0.4094 -0.4030
  167fsi     O4 2002   0.747   0.121  -0.143  0.2199  0.2121 -0.4103
  167fsi     F2 2003   0.578   0.081   0.030  0.1593 -0.2140 -0.0459
  168fsi     F1 2004   1.214   3.106   1.288  0.0489 -0.2788 -0.2750
  168fsi     S1 2005   1.158   2.958   1.282  0.4314  0.0868 -0.3302
  168fsi      N 2006   1.276   2.887   1.202  0.4159  0.0382 -0.6501
  168fsi     O1 2007   1.145   2.915   1.414 -0.4604  0.3851  0.0696
  168fsi     O2 2008   1.033   2.977   1.205  0.3346 -0.1381  0.0066
  168fsi     S2 2009   1.278   2.802   1.073  0.4481  0.3104 -0.1973
  168fsi     O3 2010   1.153   2.804   1.001  0.1737  0.4172  0.3806
  168fsi     O4 2011   1.346   2.681   1.093  0.2627  0.2410 -0.1416
  168fsi     F2 2012   1.373   2.887   0.980  0.1880 -0.4247 -0.3007
  169fsi     F1 2013   2.636   1.780   0.821  0.1136  0.2105 -0.0583
  169fsi     S1 2014   2.571   1.646   0.801  0.2205  0.1726  0.2229
  169fsi      N 2015   2.588   1.577   0.942 -0.0733 -0.2070  0.1161
  169fsi     O1 2016   2.440   1.682   0.768  0.2695  0.2277 -0.8183
  169fsi     O2 2017   2.653   1.580   0.699  0.5640  0.7076  0.1151
  169fsi     S2 2018   2.691   1.469   0.994 -0.4154  0.2884  0.0204
  169fsi     O3 2019   2.675   1.437   1.131 -0.1044 -0.5925 -0.5070
  169fsi     O4 2020   2.830   1.497   0.949 -0.0928 -0.1404  0.1126
  169fsi     F2 2021   2.652   1.336   0.919 -0.0951  0.2638  0.7296
  170fsi     F1 2022   3.113   1.005   2.977  0.0872  0.2315 -0.0199
  170fsi     S1 2023   3.142   0.849   3.012  0.0660 -0.1368 -0.5096
  170fsi      N 2024   3.280   0.872   3.088  0.0783  0.3114 -1.0089
  170fsi     O1 2025   3.028   0.800   3.090  0.2451  0.0871  0.3789
  170fsi     O2 2026   3.165   0.783   2.888  0.3224 -0.3509  0.2300
  170fsi     S2 2027   3.296   0.907   3.244 -0.2068  0.0900  0.2023
  170fsi     O3 2028   3.174   0.898   3.315 -0.2933  0.5304  0.8117
  170fsi     O4 2029   3.386   1.019   3.257 -0.1631  0.3448  0.0049
  170fsi     F2 2030   3.383   0.789   3.306 -0.5007  0.2436  0.2443
  171fsi     F1 2031   2.969   0.573   0.334 -0.2420 -0.1211  0.0817
  171fsi     S1 2032   2.859   0.613   0.229 -0.4534  0.0769 -0.1363
  171fsi      N 2033   2.780   0.719   0.314  0.1827 -0.4706 -0.2058
  171fsi     O1 2034   2.927   0.666   0.120 -0.1643  0.2616 -0.0858
  171fsi     O2 2035   2.779   0.496   0.200  0.2461  0.1763 -0.0257
  171fsi     S2 2036   2.838   0.850   0.379  0.1212 -0.0473  0.2244
  171fsi     O3 2037   2.877   0.939   0.278 -0.7409 -0.3997  0.1996
  171fsi     O4 2038   2.926   0.833   0.492  0.5897 -0.1957 -0.0026
  171fsi     F2 2039   2.710   0.908   0.442 -0.0303 -0.3932 -0.6109
  172fsi     F1 2040   2.603   2.948   1.361 -0.3436 -0.5474 -0.1600
  172fsi     S1 2041   2.603   3.019   1.502  0.2479  0.2229 -0.0859
  172fsi      N 2042   2.563   2.899   1.602  0.7788 -0.0086 -0.4038
  172fsi     O1 2043   2.735   3.074   1.516  0.4342 -0.4662  0.4240
  172fsi     O2 2044   2.496   3.115   1.481  0.6042  0.2946  0.3984
  172fsi     S2 2045   2.460   2.890   1.717 -0.6818  0.0732 -0.1941
  172fsi     O3 2046   2.392   3.016   1.748  0.3163  0.1761 -0.2465
  172fsi     O4 2047   2.517   2.821   1.827 -0.1888 -0.3783  0.7915
  172fsi     F2 2048   2.347   2.797   1.661  0.3704  0.4845 -0.4392
  173fsi     F1 2049   0.510   0.555   3.004  0.1706 -0.1018 -0.1134
  173fsi     S1 2050   0.529   0.586   3.156  0.2837 -0.4457 -0.0786
  173fsi      N 2051   0.556   0.738   3.168 -0.4131 -0.0067 -0.2190
  173fsi     O1 2052   0.407   0.549   3.213  0.8034 -0.0319  0.5778
  173fsi     O2 2053   0.649   0.516   3.187  0.1002  0.2791 -0.3220
  173fsi     S2 2054   0.465   0.855   3.131  0.3880  0.5045  0.1141
  173fsi     O3 2055   0.457   0.942   3.244 -0.5866 -0.4762 -0.4555
  173fsi     O4 2056   0.338   0.827   3.066 -0.1328 -0.2554 -0.0343
  173fsi     F2 2057   0.540   0.922   3.016  0.1104  0.1413  0.1162
  174fsi     F1 2058   0.597   0.170   1.272 -0.3195 -0.0832 -0.0593
  174fsi     S1 2059   0.546   0.272   1.373 -0.0237  0.1411  0.0936
  174fsi      N 2060   0.659   0.258   1.484 -0.0579  0.4051 -0.2005
  174fsi     O1 2061   0.556   0.395   1.301 -0.4712 -0.5724 -0.5797
  174fsi     O2 2062   0.413   0.220   1.402 -0.4399 -0.3333  0.8438
  174fsi     S2 2063   0.658   0.158   1.597 -0.1274  0.0753  0.2577
  174fsi     O3 2064   0.532   0.095   1.629 -0.4996 -0.1487  0.2284
  174fsi     O4 2065   0.733   0.204   1.710  0.2277 -0.1962  0.1925
  174fsi     F2 2066   0.745   0.036   1.543 -0.5218  0.0790 -0.1187
  175fsi     F1 2067   2.643   1.172   3.173 -0.2401 -0.3123  0.1407
  175fsi     S1 2068   2.663   1.015   3.171 -0.3326 -0.2609  0.0166
  175fsi      N 2069   2.583   0.967   3.296 -0.0216 -0.1032  0.4402
  175fsi     O1 2070   2.605   0.988   3.043 -0.5469  0.0396 -0.1023
  175fsi     O2 2071   2.805   1.000   3.185  0.3272  0.1487  0.2200
  175fsi     S2 2072   2.438   0.900   3.309 -0.6511 -0.4278 -0.0303
  175fsi     O3 2073   2.353   0.894   3.196  0.2635 -0.7074  0.6145
  175fsi     O4 2074   2.376   0.947   3.429  0.1957  0.0243  0.0299
  175fsi     F2 2075   2.474   0.752   3.341 -0.3011 -0.3494 -0.0025
  176fsi     F1 2076   2.723   2.186   0.936  0.5276 -0.1871 -0.0696
  176fsi     S1 2077   2.628   2.236   1.048 -0.0412 -0.1492 -0.2413
  176fsi      N 2078   2.514   2.300   0.956  0.0944 -0.4943  0.3159
  176fsi     O1 2079   2.587   2.110   1.112 -0.7572  0.3859  0.4612
  176fsi     O2 2080   2.707   2.326   1.124 -0.4279 -0.1105  0.5925
  176fsi     S2 2081   2.492   2.457   0.924  0.0142 -0.0195 -0.3764
  176fsi     O3 2082   2.354   2.478   0.889 -0.3763  0.2423 -0.4531
  176fsi     O4 2083   2.595   2.524   0.855 -0.2573  0.0898 -0.0228
  176fsi     F2 2084   2.500   2.519   1.074 -0.3740 -0.1849  0.5625
  177fsi     F1 2085   1.835   1.180   1.611  0.5887  0.2541 -0.2516
  177fsi     S1 2086   1.940   1.174   1.726  0.2856  0.2365 -0.0989
  177fsi      N 2087   2.015   1.310   1.707 -0.2544 -0.0477  0.4001
  177fsi     O1 2088   1.860   1.160   1.846 -0.6033  0.0109  0.1083
  177fsi     O2 2089   2.023   1.055   1.693 -0.4693 -0.2034  0.1528
  177fsi     S2 2090   2.141   1.361   1.629 -0.2547  0.0376 -0.4086
  177fsi     O3 2091   2.110   1.483   1.558  0.4180 -1.1465  0.1380
  177fsi     O4 2092   2.205   1.260   1.552 -0.0946  0.4285  0.3210
  177fsi     F2 2093   2.253   1.395   1.738 -0.3569  0.3407  0.6314
  178fsi     F1 2094   1.235   1.780   1.883  0.1622 -0.0067  0.5676
  178fsi     S1 2095   1.241   1.853   2.026 -0.3228  0.0611 -0.0827
  178fsi      N 2096   1.129   1.962   2.023  0.4635  0.3679 -0.5876
  178fsi     O1 2097   1.188   1.748   2.111  0.5953  0.0385  0.9653
  178fsi     O2 2098   1.373   1.894   2.044  0.0018  0.1430 -0.0676
  178fsi     S2 2099   1.132   2.104   1.964 -0.0008  0.1121  0.2308
  178fsi     O3 2100   1.262   2.139   1.911  0.5264 -0.3066 -0.3261
  178fsi     O4 2101   1.061   2.206   2.036 -0.3029 -0.8813  0.3330
  178fsi     F2 2102   1.040   2.088   1.839  0.5558 -0.1615  0.1384
  179fsi     F1 2103   0.142   0.729   2.207  0.3120 -0.6935  0.0837
  179fsi     S1 2104   0.274   0.683   2.139  0.2881 -0.3183 -0.2871
  179fsi      N 2105   0.381   0.781   2.190  0.1586 -0.2850  0.3196
  179fsi     O1 2106   0.287   0.556   2.203  0.1257  0.0447  0.1599
  179fsi     O2 2107   0.235   0.691   1.999 -0.1585  0.4399  0.3982
  179fsi     S2 2108   0.479   0.875   2.111 -0.0996 -0.1335  0.1970
  179fsi     O3 2109   0.444   0.900   1.976 -0.5621  0.9371 -0.1520
  179fsi     O4 2110   0.623   0.840   2.127  0.4957 -0.0391  0.0151
  179fsi     F2 2111   0.460   1.016   2.173  0.0922 -0.5482 -0.0696
  180fsi     F1 2112   0.911   2.965   2.690  0.0988 -0.5108 -0.1129
  180fsi     S1 2113   1.059   2.959   2.735  0.6701  0.2226  0.0255
  180fsi      N 2114   1.046   3.016   2.881 -0.2543  0.0100  0.2576
  180fsi     O1 2115   1.088   2.815   2.733 -0.1940  0.3301  0.6341
  180fsi     O2 2116   1.134   3.047   2.652 -0.1424 -0.0142 -0.0941
  180fsi     S2 2117   1.011   2.934   3.011  0.1167  0.1742 -0.7091
  180fsi     O3 2118   0.990   2.795   2.988  0.0306  0.5086 -0.3954
  180fsi     O4 2119   0.924   3.003   3.102  0.0121 -0.5149  0.0801
  180fsi     F2 2120   1.148   2.930   3.086 -0.2551  0.2713 -0.3878
  181fsi     F1 2121   0.709   2.389   0.617  0.4752 -0.1064 -0.1884
  181fsi     S1 2122   0.857   2.427   0.654 -0.3619 -0.0689  0.0241
  181fsi      N 2123   0.942   2.295   0.617 -0.2194 -0.5873  0.3720
  181fsi     O1 2124   0.890   2.547   0.579 -0.1336  0.5033  0.0552
  181fsi     O2 2125   0.842   2.436   0.795  0.1591  0.2763  0.6054
  181fsi     S2 2126   1.029   2.262   0.490  0.3617 -0.1833  0.2319
  181fsi     O3 2127   1.156   2.202   0.518 -0.0241  0.4619  0.5776
  181fsi     O4 2128   1.033   2.367   0.385  0.5758 -0.2054 -0.5501
  181fsi     F2 2129   0.947   2.148   0.422  0.0912 -0.0562  0.3265
  182fsi     F1 2130   2.906   2.128   3.212 -0.4252 -0.5763  0.2363
  182fsi     S1 2131   2.888   1.998   3.295  0.2424 -0.1563  0.5133
  182fsi      N 2132   2.736   2.017   3.337  0.1989 -0.2388  0.3694
  182fsi     O1 2133   2.900   1.888   3.203 -0.8144 -0.2009  0.3313
  182fsi     O2 2134   2.980   2.003   3.403 -0.0521  0.3729 -0.6440
  182fsi     S2 2135   2.682   2.063   3.474  0.0226 -0.3046  0.3113
  182fsi     O3 2136   2.772   2.070   3.587  0.2595 -0.1188 -0.4032
  182fsi     O4 2137   2.559   1.994   3.496  0.5793 -0.1692 -0.0262
  182fsi     F2 2138   2.636   2.212   3.447  0.4919  0.0266  0.7660
  183fsi     F1 2139   3.169   2.907   0.244  0.0158 -0.2226 -0.5277
  183fsi     S1 2140   3.231   3.050   0.258 -0.4060 -0.2197 -0.6217
  183fsi      N 2141   3.121   3.110   0.346 -0.2835 -0.6950  0.1442
  183fsi     O1 2142   3.364   3.025   0.315 -0.0630 -0.0579 -0.7118
  183fsi     O2 2143   3.223   3.101   0.125 -0.3632  0.6122  0.2060
  183fsi     S2 2144   3.136   3.179   0.490 -0.0460  0.4542 -0.3867
  183fsi     O3 2145   3.015   3.250   0.534 -0.3369  0.1225 -0.5649
  183fsi     O4 2146   3.260   3.251   0.511  0.3888 -0.4912  0.5510
  183fsi     F2 2147   3.153   3.055   0.584 -0.4334  0.3482 -0.3770
  184fsi     F1 2148   3.246   0.522   2.541 -0.1528  0.5318 -0.0484
  184fsi     S1 2149   3.357   0.457   2.624 -0.0315  0.0874  0.0179
  184fsi      N 2150   3.401   0.582   2.713  0.5780  0.3169 -0.0893
  184fsi     O1 2151   3.289   0.355   2.695  0.0549  0.0480 -0.4253
  184fsi     O2 2152   3.457   0.422   2.528 -0.0942  0.9808  0.0663
  184fsi     S2 2153   3.500   0.695   2.685 -0.0428 -0.1609  0.0334
  184fsi     O3 2154   3.471   0.820   2.751  0.0365 -0.2690 -0.0075
  184fsi     O4 2155   3.540   0.710   2.546 -0.2846  0.0085 -0.0909
  184fsi     F2 2156   3.629   0.656   2.754  0.5261  0.5955 -0.0893
  185fsi     F1 2157   2.099   1.431   2.110 -0.1381  0.1641 -0.1962
  185fsi     S1 2158   1.943   1.454   2.096 -0.0126 -0.5155  0.1065
  185fsi      N 2159   1.876   1.310   2.117  0.3530  0.8321  0.0194
  185fsi     O1 2160   1.904   1.540   2.200 -0.0323 -0.4416 -0.3558
  185fsi     O2 2161   1.925   1.509   1.965 -0.1986 -0.2669 -0.3869
  185fsi     S2 2162   1.886   1.223   2.255 -0.0201 -0.2106  0.2784
  185fsi     O3 2163   1.774   1.134   2.270 -0.6992  0.1128 -0.3862
  185fsi     O4 2164   1.912   1.297   2.372  0.2062  0.0468  0.4309
  185fsi     F2 2165   2.015   1.134   2.227 -0.2435  0.5402 -0.0511
  186fsi     F1 2166   1.851   2.743   0.089  0.1075 -0.1298  0.0691
  186fsi     S1 2167   1.749   2.842   0.028  0.1540 -0.0001  0.4172
  186fsi      N 2168   1.610   2.776   0.065  0.4409  0.7609 -0.9770
  186fsi     O1 2169   1.786   2.968   0.096 -0.2531  0.4454 -0.2840
  186fsi     O2 2170   1.771   2.832  -0.112  0.1380 -0.4178 -0.6087
  186fsi     S2 2171   1.490   2.824   0.153  0.1647  0.2311  0.2029
  186fsi     O3 2172   1.509   2.940   0.235  0.3058  0.0291  0.5228
  186fsi     O4 2173   1.426   2.709   0.207  0.4525 -0.1386  0.6826
  186fsi     F2 2174   1.385   2.878   0.047 -0.3932  0.0237 -0.1799
  187fsi     F1 2175   0.557   1.467   1.588 -0.1638  0.0710  0.6102
  187fsi     S1 2176   0.450   1.370   1.653  0.2036  0.1560  0.3647
  187fsi      N 2177   0.472   1.407   1.805  0.0586 -0.0189 -0.2083
  187fsi     O1 2178   0.323   1.409   1.612 -0.2013 -1.2097 -0.2469
  187fsi     O2 2179   0.492   1.238   1.619  0.3810 -0.2339 -0.5921
  187fsi     S2 2180   0.526   1.322   1.923  0.4847 -0.1040 -0.0302
  187fsi     O3 2181   0.488   1.182   1.912  0.2744  0.2522  0.2488
  187fsi     O4 2182   0.504   1.384   2.053 -0.1886 -0.5563  0.0736
  187fsi     F2 2183   0.684   1.333   1.908  0.0009  0.5692 -0.2392
  188fsi     F1 2184   1.679   0.998   1.153  0.2450  0.1188  0.8802
  188fsi     S1 2185   1.804   0.942   1.086 -0.7083 -0.0783 -0.2156
  188fsi      N 2186   1.922   1.017   1.164  0.2207 -0.0887  0.7740
  188fsi     O1 2187   1.801   0.805   1.114 -0.1664  0.0238  0.3286
  188fsi     O2 2188   1.792   0.978   0.946  0.3130  0.0586  0.2525
  188fsi     S2 2189   1.953   1.038   1.315 -0.0685 -0.3864 -0.0926
  188fsi     O3 2190   2.092   1.050   1.343  0.2253 -0.0482  0.3002
  188fsi     O4 2191   1.870   0.963   1.404  0.0541  0.0311  0.1834
  188fsi     F2 2192   1.899   1.187   1.334 -0.6363  0.4670  0.2101
  189fsi     F1 2193   2.168   2.485   2.757 -0.4052  0.3032  0.1226
  189fsi     S1 2194   2.171   2.402   2.625 -0.2081  0.4613 -0.0168
  189fsi      N 2195   2.015   2.385   2.581  0.0706  0.2238 -0.0370
  189fsi     O1 2196   2.249   2.483   2.537  0.4164  0.3471 -0.1191
  189fsi     O2 2197   2.215   2.272   2.672  0.6856 -0.6315 -0.1395
  189fsi     S2 2198   1.933   2.394   2.447 -0.0317  0.0417  0.4388
  189fsi     O3 2199   1.994   2.485   2.352  0.0770 -0.6539 -0.6948
  189fsi     O4 2200   1.790   2.399   2.470  0.6223 -1.0119 -0.2366
  189fsi     F2 2201   1.956   2.248   2.388 -0.1952 -0.3519 -0.2323
  190fsi     F1 2202   3.071   3.209   2.390  0.0256  0.0903 -0.1911
  190fsi     S1 2203   3.066   3.354   2.337 -0.0805 -0.1658  0.3579
  190fsi      N 2204   3.052   3.444   2.460 -0.2928 -0.2327  0.5017
  190fsi     O1 2205   3.194   3.372   2.274  0.2883 -0.1247 -0.5877
  190fsi     O2 2206   2.952   3.366   2.251  0.7104 -0.0209 -0.2760
  190fsi     S2 2207   2.923   3.512   2.525 -0.0424  0.3995 -0.1477
  190fsi     O3 2208   2.820   3.558   2.433 -0.1914 -1.1596  0.1977
  190fsi     O4 2209   2.959   3.589   2.635 -0.2244 -0.2642  0.1832
  190fsi     F2 2210   2.856   3.393   2.591  0.0374  0.3010 -0.2437
  191fsi     F1 2211   2.510   2.985   2.383 -0.7011 -0.0875  0.4893
  191fsi     S1 2212   2.427   2.900   2.279 -0.1735 -0.3108 -0.2820
  191fsi      N 2213   2.307   3.002   2.242  0.5792 -0.9286  0.4961
  191fsi     O1 2214   2.509   2.878   2.160 -0.1510 -0.5617  0.0889
  191fsi     O2 2215   2.377   2.779   2.336 -0.7250  0.3792 -0.7760
  191fsi     S2 2216   2.156   2.993   2.279  0.0865  0.1746 -0.3480
  191fsi     O3 2217   2.097   2.886   2.353 -1.1340 -0.2041 -0.0893
  191fsi     O4 2218   2.073   3.032   2.169 -0.0238 -0.5678 -0.2729
  191fsi     F2 2219   2.147   3.115   2.381 -0.4733 -0.2718 -0.1538
  192fsi     F1 2220   1.222   2.089   0.878 -0.2912  0.0948 -0.0650
  192fsi     S1 2221   1.167   2.194   0.985 -0.4070  0.4543 -0.2991
  192fsi      N 2222   1.140   2.119   1.125 -0.5273  0.1504  0.3660
  192fsi     O1 2223   1.272   2.290   0.993  0.4921 -0.2735 -0.6345
  192fsi     O2 2224   1.048   2.242   0.922  0.1641  0.2646 -0.4776
  192fsi     S2 2225   1.010   2.092   1.203 -0.0295  0.1914 -0.4417
  192fsi     O3 2226   0.895   2.153   1.149 -0.2829  0.5492 -0.0591
  192fsi     O4 2227   1.036   2.117   1.340 -0.2888 -0.0637  0.8004
  192fsi     F2 2228   0.989   1.937   1.188  0.2040 -0.1922 -0.2964
  193fsi     F1 2229   2.522   0.440   1.805 -0.3368 -0.4934 -0.0376
  193fsi     S1 2230   2.643   0.524   1.866 -0.5746 -0.0627 -0.1302
  193fsi      N 2231   2.611   0.540   2.022  0.0687 -0.5946 -0.3190
  193fsi     O1 2232   2.753   0.435   1.842 -0.5218 -0.2237 -0.7771
  193fsi     O2 2233   2.645   0.644   1.789 -0.3936  0.2339 -0.2948
  193fsi     S2 2234   2.573   0.669   2.103 -0.0490 -0.0248 -0.0092
  193fsi     O3 2235   2.554   0.786   2.022 -0.1916  0.3283  0.2725
  193fsi     O4 2236   2.650   0.685   2.224 -0.1623  0.4236 -0.3903
  193fsi     F2 2237   2.427   0.634   2.161 -0.2025 -0.2091 -0.7555
  194fsi     F1 2238   0.449   2.165   1.846  0.0641 -0.1746  0.2708
  194fsi     S1 2239   0.589   2.104   1.790 -0.2083 -0.0268 -0.2419
  194fsi      N 2240   0.651   2.222   1.704  0.9732  0.0453 -0.0033
  194fsi     O1 2241   0.665   2.083   1.909 -0.4171  0.2343  0.2316
  194fsi     O2 2242   0.558   1.983   1.714 -0.9996 -0.0350  0.1998
  194fsi     S2 2243   0.617   2.259   1.554 -0.3037 -0.1528 -0.1785
  194fsi     O3 2244   0.610   2.401   1.537  0.5502  0.6384  0.1715
  194fsi     O4 2245   0.514   2.179   1.487  0.1701 -0.0459  0.0707
  194fsi     F2 2246   0.750   2.219   1.479 -0.5700 -0.8551  0.3140
  195fsi     F1 2247   2.068   0.905   0.821  0.7456 -0.4014 -0.2124
  195fsi     S1 2248   2.073   0.948   0.670  0.6880 -0.5677 -0.1596
  195fsi      N 2249   2.223   0.929   0.630 -0.0436 -0.9797 -0.5831
  195fsi     O1 2250   1.987   0.854   0.602 -0.3587 -0.2680 -0.0976
  195fsi     O2 2251   2.034   1.086   0.674  0.1818  0.0000  0.4027
  195fsi     S2 2252   2.297   0.794   0.605 -0.0788  0.1196  0.0978
  195fsi     O3 2253   2.368   0.799   0.480 -0.1211  0.5773 -0.1032
  195fsi     O4 2254   2.226   0.673   0.639 -0.0052  0.3865  0.1965
  195fsi     F2 2255   2.414   0.794   0.710 -0.2950 -0.1674 -0.3588
  196fsi     F1 2256   2.496   0.575   1.540  0.0197 -0.2702 -0.1823
  196fsi     S1 2257   2.525   0.704   1.458  0.0823  0.1134  0.1745
  196fsi      N 2258   2.670   0.674   1.407 -0.4763  0.3164 -0.1298
  196fsi     O1 2259   2.429   0.688   1.354  0.0238  0.0269  0.1731
  196fsi     O2 2260   2.510   0.817   1.546  0.1518  0.0876 -0.8056
  196fsi     S2 2261   2.814   0.701   1.468  0.1001 -0.3782 -0.1008
  196fsi     O3 2262   2.810   0.810   1.562 -0.3278  0.3950  0.5931
  196fsi     O4 2263   2.916   0.724   1.369  0.0582  0.1504  0.5740
  196fsi     F2 2264   2.857   0.574   1.548  0.0477  0.7582  0.1741
  197fsi     F1 2265   3.093   0.367   0.188  0.8464 -0.3667 -0.3741
  197fsi     S1 2266   3.066   0.231   0.263  0.1333 -0.0184 -0.1894
  197fsi      N 2267   2.925   0.191   0.213 -0.3661  0.5477 -0.6417
  197fsi     O1 2268   3.177   0.149   0.223 -0.3955 -0.2168 -0.1890
  197fsi     O2 2269   3.061   0.276   0.401 -0.0567  0.3922  0.0631
  197fsi     S2 2270   2.890   0.076   0.114 -0.2546  0.2380 -0.0438
  197fsi     O3 2271   2.993   0.055   0.016  0.1247 -0.5725 -0.3821
  197fsi     O4 2272   2.754   0.091   0.083 -0.1278 -0.1103  0.0857
  197fsi     F2 2273   2.895  -0.058   0.200  0.3583 -0.3770 -0.3350
  198fsi     F1 2274   1.409   1.812   2.516 -0.1751  0.0818 -0.1781
  198fsi     S1 2275   1.341   1.673   2.550 -0.0205 -0.0432 -0.3010
  198fsi      N 2276   1.456   1.570   2.568  0.3303 -0.5163  0.8979
  198fsi     O1 2277   1.264   1.699   2.667 -0.4560  0.2550 -0.0245
  198fsi     O2 2278   1.276   1.649   2.426 -0.0166  0.2023  0.3207
  198fsi     S2 2279   1.540   1.527   2.685 -0.3415 -0.2398  0.4316
  198fsi     O3 2280   1.546   1.627   2.789 -0.5846  0.1609  0.7881
  198fsi     O4 2281   1.659   1.459   2.646  0.5195  0.2711 -0.0839
  198fsi     F2 2282   1.454   1.410   2.742  0.0805 -0.3605  0.0960
  199fsi     F1 2283   0.246   0.910   1.051  0.3101 -0.2192  0.1056
  199fsi     S1 2284   0.375   0.851   0.972 -0.0750 -0.0717  0.3373
  199fsi      N 2285   0.389   0.940   0.842  0.1552 -0.2990 -0.1992
  199fsi     O1 2286   0.480   0.880   1.065 -0.3462 -0.7987  0.5066
  199fsi     O2 2287   0.340   0.714   0.940  0.0077 -0.2165  0.1513
  199fsi     S2 2288   0.518   1.003   0.786  0.0955 -0.1452 -0.0725
  199fsi     O3 2289   0.592   1.071   0.883 -0.4358 -0.2319 -0.4886
  199fsi     O4 2290   0.491   1.076   0.665 -0.4777  0.4867  0.7088
  199fsi     F2 2291   0.610   0.883   0.734 -0.2847  0.3789  0.0393
  200fsi     F1 2292   2.277   2.387   2.067  0.4783 -0.1772 -0.2611
  200fsi     S1 2293   2.340   2.526   2.103 -0.2681 -0.7316  0.2351
  200fsi      N 2294   2.214   2.618   2.116  0.3471 -0.1801  0.2386
  200fsi     O1 2295   2.399   2.506   2.230 -0.3492  0.4050  0.5645
  200fsi     O2 2296   2.427   2.558   1.992  0.2719 -0.3958 -0.2925
  200fsi     S2 2297   2.145   2.702   2.004 -0.3027 -0.2517  0.4755
  200fsi     O3 2298   2.021   2.755   2.055  0.0684 -0.7765  0.7434
  200fsi     O4 2299   2.140   2.641   1.873 -0.0349 -0.2423  0.0864
  200fsi     F2 2300   2.242   2.826   1.989 -0.3092  0.1278  0.0144
   3.24840   3.24840   3.24840
