L1P3 short trajectory practice
 2950
    1Li+     Li    1   3.511   6.257   0.126 -0.6637 -0.3013 -0.4308
    2Li+     Li    2   3.638   5.849   6.190  0.9875  0.7498  0.0449
    3Li+     Li    3   3.180   4.153   3.617 -0.1161  0.0108 -0.5368
    4Li+     Li    4   3.258   4.438   3.169 -0.2669 -0.0849  0.3376
    5Li+     Li    5   4.912   6.085   0.561 -0.5726 -0.1142  0.5441
    6Li+     Li    6   2.877   0.656   5.762 -1.1027  1.2249  0.2811
    7Li+     Li    7   3.227   6.689   0.432 -0.1794 -1.3221  0.7851
    8Li+     Li    8   4.389   5.528   7.051  0.2834  0.1759 -0.2056
    9Li+     Li    9   3.213   1.483   6.777  0.2929  0.2393  0.4215
   10Li+     Li   10   4.113   5.378   0.114 -0.1370  1.1932  0.8650
   11Li+     Li   11   4.354   6.917   0.400 -0.3171  0.0803 -0.4504
   12Li+     Li   12   5.230   1.243   6.048  0.1401 -0.5115  0.4447
   13Li+     Li   13   3.701   6.947   5.861  0.4930  0.9619  0.0784
   14Li+     Li   14   3.506   3.514   3.316  0.1541 -0.9354 -0.4630
   15Li+     Li   15   3.745   0.193   6.102 -0.6989  0.6484  1.1730
   16Li+     Li   16   3.904   6.462   0.420  0.3400  0.3988  0.8121
   17Li+     Li   17   4.426   1.099   5.894  0.9545 -1.3185  0.8095
   18Li+     Li   18   4.583   6.486   0.461  0.8588 -0.3332  0.6126
   19Li+     Li   19   3.162   4.282   1.774  0.1959 -0.4300 -0.2036
   20Li+     Li   20   2.897   3.741   3.451 -0.0527 -0.3168  0.3227
   21Li+     Li   21   3.489   6.200   6.841 -0.1193 -0.0721 -0.5169
   22Li+     Li   22   4.531   5.768   0.211  0.7222 -0.2896  0.4654
   23Li+     Li   23   3.525   4.125   3.127 -0.2470 -0.3754 -0.3620
   24Li+     Li   24   4.071   5.833   0.566 -1.1703 -0.5003 -0.4983
   25Li+     Li   25   4.294   0.531   6.976  0.0876  0.9023  0.4464
   26c3c     N4   26   2.768   4.271   3.928  0.6469 -0.4293  0.5074
   26c3c     C1   27   2.876   4.283   3.830 -0.8026  0.2201 -0.1742
   26c3c     C1   28   2.756   4.402   3.992 -0.7104 -0.1071 -0.1472
   26c3c     C2   29   2.868   4.428   3.782 -0.6384 -0.9854 -0.0571
   26c3c     C2   30   2.780   4.504   3.879 -0.2702  0.1652  0.3527
   26c3c     C1   31   2.645   4.242   3.850 -0.2958 -0.3258  0.8730
   26c3c     C1   32   2.784   4.158   4.024 -0.4768  0.7393 -0.0388
   26c3c     H1   33   2.871   4.217   3.742 -0.6166  0.1500 -0.1319
   26c3c     H1   34   2.972   4.263   3.876  0.2055  0.4485 -2.1124
   26c3c     H1   35   2.657   4.428   4.030 -1.0510 -0.3463 -0.8650
   26c3c     H1   36   2.821   4.414   4.078 -1.3548  2.1176  0.0643
   26c3c     HC   37   2.829   4.436   3.681  0.1438 -0.2367 -0.2995
   26c3c     HC   38   2.964   4.478   3.799 -2.0140  1.8104 -0.2664
   26c3c     HC   39   2.687   4.531   3.829 -1.1812 -3.2311  0.0874
   26c3c     HC   40   2.820   4.598   3.917 -0.2905  0.3919 -0.1886
   26c3c     H1   41   2.646   4.145   3.800 -0.8296 -0.3845  0.9693
   26c3c     H1   42   2.558   4.250   3.916 -1.8536  0.9978 -1.2657
   26c3c     H1   43   2.622   4.312   3.770  2.4576  0.3430  0.6357
   26c3c     H1   44   2.698   4.147   4.090  0.8173 -1.1345  1.3666
   26c3c     H1   45   2.794   4.075   3.954 -0.4273  1.3180 -0.7231
   26c3c     C2   46   2.909   4.165   4.109 -0.5113 -0.3499  0.1092
   26c3c     HC   47   2.939   4.259   4.154 -2.7291 -0.1801  1.2700
   26c3c     HC   48   2.992   4.138   4.044 -1.2804 -1.9513 -0.2340
   26c3c     CT   49   2.913   4.047   4.212 -0.4285  0.3845  0.0960
   26c3c     HC   50   2.826   4.044   4.278  0.1889 -2.7335  0.8698
   26c3c     HC   51   3.005   4.037   4.270 -1.0170 -0.8124  0.8555
   26c3c     HC   52   2.916   3.955   4.154  1.1862  0.3004  0.2786
   27c3c     N4   53   2.954   4.567   7.205 -0.2908  0.5604  0.1558
   27c3c     C1   54   3.085   4.535   7.142  0.6098  0.3460 -0.1760
   27c3c     C1   55   2.920   4.446   7.280 -0.2490 -0.4345  0.0577
   27c3c     C2   56   3.160   4.470   7.257 -0.0736  0.3165  0.3457
   27c3c     C2   57   3.053   4.414   7.351 -0.5390 -0.3953 -0.1355
   27c3c     C1   58   2.955   4.686   7.296  0.2271  0.1659 -0.1688
   27c3c     C1   59   2.850   4.603   7.108  0.6719 -0.2951  0.1047
   27c3c     H1   60   3.131   4.629   7.111  0.5222  0.7072  0.7499
   27c3c     H1   61   3.075   4.457   7.068 -0.0560  1.3667 -1.1740
   27c3c     H1   62   2.847   4.448   7.362  0.8765 -1.5173  1.1182
   27c3c     H1   63   2.898   4.366   7.210  0.9762 -0.0896 -0.7162
   27c3c     HC   64   3.223   4.534   7.319 -0.5828  2.3289 -1.1496
   27c3c     HC   65   3.220   4.388   7.218 -0.1761  1.1014 -1.4956
   27c3c     HC   66   3.054   4.468   7.446  0.2585 -0.4831 -0.0939
   27c3c     HC   67   3.072   4.310   7.377  0.7654  0.2198  1.4943
   27c3c     H1   68   2.988   4.774   7.240  0.7560  0.2258  0.2338
   27c3c     H1   69   2.860   4.715   7.340  1.1180  1.8658  0.6762
   27c3c     H1   70   3.016   4.665   7.384  1.8639 -3.1346 -1.9998
   27c3c     H1   71   2.758   4.625   7.163  0.4055 -2.2770  0.5012
   27c3c     H1   72   2.873   4.700   7.064 -1.2694 -0.2454 -0.8209
   27c3c     C2   73   2.800   4.500   7.001 -0.4513 -0.2500 -0.9942
   27c3c     HC   74   2.738   4.425   7.049 -0.4973 -0.0294 -0.7072
   27c3c     HC   75   2.891   4.466   6.950  1.0691  1.0458  0.7753
   27c3c     CT   76   2.704   4.580   6.914  0.7714 -0.0385 -0.1572
   27c3c     HC   77   2.616   4.622   6.963  0.5767 -0.5276 -0.0779
   27c3c     HC   78   2.670   4.512   6.836 -0.4230  1.7474 -1.2235
   27c3c     HC   79   2.755   4.660   6.861 -0.9279 -0.0544 -1.8512
   28c3c     N4   80   4.811   0.547   6.089  0.1432 -0.2487 -0.1105
   28c3c     C1   81   4.723   0.429   6.105  0.1843 -0.7179 -0.9317
   28c3c     C1   82   4.744   0.625   5.986 -0.4168 -0.3413 -0.0657
   28c3c     C2   83   4.583   0.476   6.073 -0.2394  0.1115 -0.2432
   28c3c     C2   84   4.594   0.612   6.009 -0.0464 -0.0246  0.1442
   28c3c     C1   85   4.809   0.618   6.219 -0.0594  0.7889  0.0966
   28c3c     C1   86   4.955   0.520   6.059 -0.2170  0.3495 -0.1655
   28c3c     H1   87   4.741   0.379   6.199 -1.0167  1.2154  0.3689
   28c3c     H1   88   4.754   0.353   6.033 -0.1484 -0.8338 -0.9532
   28c3c     H1   89   4.785   0.726   5.995  1.6262 -1.1041 -0.6877
   28c3c     H1   90   4.772   0.594   5.885  2.3835 -0.7994  0.8112
   28c3c     HC   91   4.534   0.485   6.170  0.6116 -0.1004  0.2068
   28c3c     HC   92   4.542   0.408   5.999 -0.7956 -0.0065  0.1751
   28c3c     HC   93   4.557   0.693   6.073 -0.8836  0.0498 -0.4159
   28c3c     HC   94   4.544   0.620   5.912  1.6521  1.4587 -0.6438
   28c3c     H1   95   4.865   0.559   6.291  1.3209 -0.0614 -1.6337
   28c3c     H1   96   4.874   0.705   6.212 -0.1297  1.1445  3.2623
   28c3c     H1   97   4.709   0.649   6.251  0.1284  1.3357  0.1578
   28c3c     H1   98   5.003   0.617   6.068  3.3112 -1.2541 -0.8965
   28c3c     H1   99   5.005   0.464   6.138 -1.7079 -0.4253  0.2484
   28c3c     C2  100   4.985   0.436   5.923 -0.6493  0.3806 -0.5446
   28c3c     HC  101   4.947   0.487   5.835 -0.8924  0.1672 -0.5645
   28c3c     HC  102   4.929   0.342   5.923  2.8052 -1.7633 -0.3748
   28c3c     CT  103   5.135   0.407   5.917  0.8981 -0.1062  0.1729
   28c3c     HC  104   5.189   0.502   5.925 -3.0097  2.2335  0.5555
   28c3c     HC  105   5.160   0.355   5.825  1.5983  1.3831 -0.4951
   28c3c     HC  106   5.163   0.339   5.998 -0.0887 -0.4160  0.2587
   29c3c     N4  107   3.704   4.113   1.276 -0.2707 -0.4902 -0.2899
   29c3c     C1  108   3.785   3.992   1.297 -0.3710 -0.0363 -0.8965
   29c3c     C1  109   3.771   4.189   1.170  0.0200  0.0864 -0.4162
   29c3c     C2  110   3.837   3.963   1.161  0.1266  0.1696  0.6480
   29c3c     C2  111   3.832   4.090   1.076 -0.1519  0.6896 -0.0390
   29c3c     C1  112   3.574   4.069   1.226 -0.4162 -0.2015  0.3324
   29c3c     C1  113   3.687   4.184   1.405 -0.3372 -0.2746 -0.4749
   29c3c     H1  114   3.733   3.907   1.341 -2.1050  1.9021  0.9037
   29c3c     H1  115   3.870   4.015   1.362  0.1341 -1.7184 -0.9286
   29c3c     H1  116   3.718   4.275   1.129  0.3571  0.7623  0.5479
   29c3c     H1  117   3.853   4.236   1.223 -2.1679  0.0064  3.2159
   29c3c     HC  118   3.784   3.877   1.120  2.1073 -0.2574 -1.1217
   29c3c     HC  119   3.938   3.929   1.187  0.5141 -1.0150 -2.2024
   29c3c     HC  120   3.758   4.082   0.996 -0.1370 -0.0123  0.0161
   29c3c     HC  121   3.924   4.119   1.027  0.2303 -0.1326  0.1825
   29c3c     H1  122   3.523   4.000   1.293  0.9590 -1.4218  0.1465
   29c3c     H1  123   3.512   4.159   1.225  0.1285  0.2671 -4.4078
   29c3c     H1  124   3.578   4.040   1.121  1.6669  0.5360  0.1858
   29c3c     H1  125   3.626   4.270   1.376 -0.2759 -0.1518 -0.2390
   29c3c     H1  126   3.619   4.129   1.469 -1.5516  0.9769 -0.6708
   29c3c     C2  127   3.815   4.242   1.486  0.2873 -0.0589 -0.2168
   29c3c     HC  128   3.887   4.297   1.425  0.5631  0.2836  0.4087
   29c3c     HC  129   3.857   4.151   1.529 -3.5665 -1.3177  1.0650
   29c3c     CT  130   3.787   4.348   1.596 -0.3441 -0.2129  0.5409
   29c3c     HC  131   3.881   4.372   1.647 -0.9876 -0.1875  1.7334
   29c3c     HC  132   3.736   4.304   1.682  0.0505 -2.4524 -0.3401
   29c3c     HC  133   3.724   4.419   1.544 -0.4556 -0.5990  0.1426
   30c3c     N4  134   5.510   1.382   6.523 -1.0535 -0.1680 -0.3123
   30c3c     C1  135   5.401   1.297   6.484  0.0539 -0.0074 -0.2824
   30c3c     C1  136   5.453   1.463   6.626 -0.2940  0.2325 -0.5163
   30c3c     C2  137   5.332   1.261   6.617  0.2949 -0.2155  0.5293
   30c3c     C2  138   5.370   1.370   6.712 -0.1363 -0.5338 -0.1075
   30c3c     C1  139   5.630   1.313   6.575 -0.3813  0.2945 -0.1777
   30c3c     C1  140   5.546   1.471   6.411 -0.4474  0.5501 -0.2894
   30c3c     H1  141   5.424   1.218   6.412  2.6139  1.4404 -1.1077
   30c3c     H1  142   5.318   1.353   6.440 -1.4498 -1.6007  0.4406
   30c3c     H1  143   5.527   1.517   6.685  0.0797 -0.4325 -0.3652
   30c3c     H1  144   5.377   1.536   6.597  0.0073  1.7218  2.2393
   30c3c     HC  145   5.369   1.171   6.667  1.4277  0.0890  0.2530
   30c3c     HC  146   5.223   1.261   6.606  0.4837 -1.8162 -1.7791
   30c3c     HC  147   5.440   1.331   6.785  0.6933  0.2437 -0.4752
   30c3c     HC  148   5.285   1.419   6.759  0.8182 -2.1382  3.4010
   30c3c     H1  149   5.668   1.238   6.505 -1.6096  0.4623 -1.0458
   30c3c     H1  150   5.708   1.381   6.608  0.7495 -1.4108  0.7564
   30c3c     H1  151   5.613   1.254   6.665 -1.0098 -0.1825 -0.6032
   30c3c     H1  152   5.628   1.532   6.448 -2.0467  1.8577  1.2033
   30c3c     H1  153   5.585   1.402   6.336 -1.4873 -1.0013  0.5470
   30c3c     C2  154   5.444   1.563   6.336  0.4611 -0.0465  0.3622
   30c3c     HC  155   5.430   1.653   6.395  0.8574 -1.0981  2.1196
   30c3c     HC  156   5.348   1.511   6.330 -0.1241  1.2251 -1.5605
   30c3c     CT  157   5.492   1.595   6.197  0.4647  0.1780 -1.1804
   30c3c     HC  158   5.586   1.647   6.220  0.3970  0.0460 -0.5872
   30c3c     HC  159   5.418   1.659   6.149 -0.0859  1.1525  0.8704
   30c3c     HC  160   5.511   1.501   6.146  1.0706  1.3074 -3.0945
   31c3c     N4  161   4.619   1.488   5.632  0.1479 -0.2477 -0.0325
   31c3c     C1  162   4.690   1.401   5.724  0.0981  1.6589 -0.3421
   31c3c     C1  163   4.713   1.519   5.523 -0.2761  0.1597  0.2073
   31c3c     C2  164   4.805   1.332   5.651  0.4140 -0.1316 -0.0169
   31c3c     C2  165   4.795   1.391   5.510 -0.7287  0.1199  0.2699
   31c3c     C1  166   4.503   1.426   5.570 -0.1219  0.6246 -0.3530
   31c3c     C1  167   4.572   1.617   5.698  0.1657  0.2991  0.7469
   31c3c     H1  168   4.628   1.322   5.765  0.5553  0.6489 -1.5696
   31c3c     H1  169   4.730   1.445   5.816 -2.4689  1.8569  0.7140
   31c3c     H1  170   4.657   1.551   5.435  0.4416  0.2632 -0.2106
   31c3c     H1  171   4.788   1.596   5.541  0.0387  0.3962 -2.0333
   31c3c     HC  172   4.797   1.223   5.646 -1.8530  0.0038 -0.0885
   31c3c     HC  173   4.902   1.356   5.693 -0.0178  1.3992  0.1282
   31c3c     HC  174   4.751   1.315   5.446  1.9911 -0.6532 -0.7630
   31c3c     HC  175   4.896   1.414   5.477 -0.2231  0.0247  1.7128
   31c3c     H1  176   4.427   1.411   5.647  0.7333 -0.4069  0.3020
   31c3c     H1  177   4.459   1.484   5.488  0.7262  1.2936 -0.3364
   31c3c     H1  178   4.530   1.325   5.541 -0.6379 -0.1093  1.6661
   31c3c     H1  179   4.509   1.670   5.628  0.3160 -2.3609 -1.4734
   31c3c     H1  180   4.515   1.586   5.786 -0.8388  2.8406  1.0396
   31c3c     C2  181   4.674   1.720   5.759 -0.1608  0.7694 -1.2993
   31c3c     HC  182   4.736   1.761   5.679 -0.3822  3.9860  0.0956
   31c3c     HC  183   4.747   1.662   5.816  1.4625  3.9889  0.0192
   31c3c     CT  184   4.624   1.824   5.858  0.1108 -0.4547 -0.1309
   31c3c     HC  185   4.547   1.888   5.816  1.4067  1.6484  0.5717
   31c3c     HC  186   4.716   1.880   5.879 -0.5449 -0.4724  3.0694
   31c3c     HC  187   4.601   1.783   5.956  0.5218 -2.6434 -0.9239
   32c3c     N4  188   4.510   0.019   7.034 -0.1744  0.6086 -0.1203
   32c3c     C1  189   4.413  -0.054   7.120 -0.1821 -0.3198 -0.0540
   32c3c     C1  190   4.414   0.121   6.977 -0.3274  0.4587 -0.0746
   32c3c     C2  191   4.315   0.050   7.175  0.2638  0.3921 -0.5465
   32c3c     C2  192   4.330   0.171   7.095  0.6043 -0.0614  0.0695
   32c3c     C1  193   4.620   0.076   7.118  0.8318  0.2000  0.4565
   32c3c     C1  194   4.579  -0.062   6.930  0.0885  0.7850 -0.3065
   32c3c     H1  195   4.454  -0.132   7.184 -1.6523 -1.2872 -0.2544
   32c3c     H1  196   4.347  -0.108   7.052 -0.5404  1.1210 -0.8693
   32c3c     H1  197   4.472   0.203   6.934  1.0201 -0.5878 -0.2908
   32c3c     H1  198   4.348   0.086   6.898 -0.9894 -1.8992  1.4642
   32c3c     HC  199   4.313   0.061   7.284 -1.3513  0.1064 -0.5334
   32c3c     HC  200   4.215   0.017   7.148 -0.8400  3.3698 -0.2209
   32c3c     HC  201   4.407   0.230   7.145  1.5020 -0.2300 -1.0879
   32c3c     HC  202   4.235   0.221   7.074  1.1086  0.6008 -0.6691
   32c3c     H1  203   4.668  -0.002   7.177 -0.0453 -0.1135  0.7631
   32c3c     H1  204   4.689   0.135   7.058 -1.3713  1.3798 -0.9853
   32c3c     H1  205   4.579   0.143   7.194 -0.7174  0.1274 -0.2924
   32c3c     H1  206   4.644  -0.007   6.861  0.2947  2.2057  0.9888
   32c3c     H1  207   4.646  -0.129   6.984 -0.6439 -1.6480 -2.3427
   32c3c     C2  208   4.512  -0.185   6.842  0.3653 -0.2358  0.3426
   32c3c     HC  209   4.424  -0.159   6.782  2.1624  2.2155 -1.3050
   32c3c     HC  210   4.462  -0.252   6.911  0.5038 -0.8004 -0.1024
   32c3c     CT  211   4.603  -0.251   6.737  0.0832  0.2683  0.4035
   32c3c     HC  212   4.541  -0.310   6.670  0.2520  0.4955  0.0472
   32c3c     HC  213   4.702  -0.292   6.756 -0.2316 -1.7014 -1.9949
   32c3c     HC  214   4.629  -0.177   6.662  1.8806  0.2241  0.9522
   33c3c     N4  215   2.546   3.952   0.639 -0.3582 -0.0138 -0.4136
   33c3c     C1  216   2.424   3.883   0.687 -0.4615  0.3240  0.8233
   33c3c     C1  217   2.489   4.076   0.584 -0.2356 -0.2491  0.1293
   33c3c     C2  218   2.330   3.982   0.749  0.3916 -0.2716  0.1887
   33c3c     C2  219   2.374   4.113   0.680  0.2047 -0.0312 -0.7699
   33c3c     C1  220   2.639   3.975   0.751 -0.1847  0.3813  0.0210
   33c3c     C1  221   2.616   3.867   0.544  0.0128  0.0537  0.1344
   33c3c     H1  222   2.440   3.802   0.758 -1.1681  0.0615  0.6854
   33c3c     H1  223   2.366   3.838   0.606  0.6903  2.2610 -1.1595
   33c3c     H1  224   2.564   4.154   0.572  0.6619 -1.2027 -0.4403
   33c3c     H1  225   2.444   4.063   0.486 -1.9055 -1.6672  1.0431
   33c3c     HC  226   2.333   3.981   0.858  2.7033  0.4130  0.1454
   33c3c     HC  227   2.225   3.962   0.725  0.2988 -0.1356  0.4808
   33c3c     HC  228   2.417   4.177   0.757  1.5152 -1.7614 -0.0195
   33c3c     HC  229   2.290   4.164   0.633  1.5654 -0.0814 -3.3363
   33c3c     H1  230   2.676   3.885   0.800 -0.2530  0.5913  0.4576
   33c3c     H1  231   2.726   4.027   0.710  0.0337  2.0062  2.4533
   33c3c     H1  232   2.593   4.037   0.828 -1.4050 -1.0376  0.4549
   33c3c     H1  233   2.708   3.918   0.519 -1.5200  3.5621  1.3539
   33c3c     H1  234   2.644   3.772   0.590 -0.6425 -0.3870 -0.3596
   33c3c     C2  235   2.536   3.825   0.417 -0.5160 -0.0094 -0.4194
   33c3c     HC  236   2.482   3.903   0.363  2.6024  1.1785 -2.0001
   33c3c     HC  237   2.464   3.748   0.441 -1.9943  1.4277 -0.1508
   33c3c     CT  238   2.633   3.777   0.308 -0.9261 -0.3667  0.4006
   33c3c     HC  239   2.670   3.679   0.337  1.0268 -0.2026 -1.4206
   33c3c     HC  240   2.714   3.849   0.295  1.6519 -3.1128  0.7992
   33c3c     HC  241   2.580   3.767   0.213  2.3332 -2.7589 -1.2762
   34c3c     N4  242   3.197   4.186   2.298 -0.1661 -0.0431  0.1011
   34c3c     C1  243   3.074   4.238   2.363  0.4425  0.3229 -0.4444
   34c3c     C1  244   3.234   4.284   2.196  0.2256  0.3962  0.0479
   34c3c     C2  245   3.089   4.396   2.365 -0.7555 -0.6197 -0.5520
   34c3c     C2  246   3.176   4.421   2.241 -0.6970  0.4139  0.3503
   34c3c     C1  247   3.303   4.181   2.398  0.0303  0.3446 -0.0335
   34c3c     C1  248   3.185   4.054   2.233 -0.0843 -0.1533 -0.0066
   34c3c     H1  249   3.052   4.202   2.463 -0.0421 -0.9011 -0.9860
   34c3c     H1  250   2.988   4.223   2.297  0.0162  2.0832 -0.3249
   34c3c     H1  251   3.341   4.284   2.180  0.5117 -0.7900  1.8338
   34c3c     H1  252   3.177   4.275   2.104  0.4289  3.5546 -0.4544
   34c3c     HC  253   3.146   4.425   2.453  1.2627  0.1955 -2.0851
   34c3c     HC  254   3.003   4.461   2.380 -1.4005 -1.6518  0.3037
   34c3c     HC  255   3.253   4.490   2.278 -0.1257  0.5549 -1.0665
   34c3c     HC  256   3.119   4.469   2.161  0.0183 -0.0003 -0.4104
   34c3c     H1  257   3.294   4.111   2.482  0.8344  0.4585  0.1562
   34c3c     H1  258   3.401   4.161   2.354  0.5686  3.4974 -0.3745
   34c3c     H1  259   3.336   4.275   2.441 -0.7701 -0.6820  2.9674
   34c3c     H1  260   3.281   4.036   2.185  0.4355  2.8667 -0.1605
   34c3c     H1  261   3.166   3.980   2.312  2.0371 -0.9482 -0.2077
   34c3c     C2  262   3.079   4.026   2.121 -0.4359 -0.0379  0.1135
   34c3c     HC  263   3.068   4.108   2.050 -1.0041 -1.9732 -2.0842
   34c3c     HC  264   2.977   4.020   2.158 -1.0955 -0.6057 -1.7646
   34c3c     CT  265   3.094   3.877   2.063  0.4704  0.7378 -0.3863
   34c3c     HC  266   3.192   3.856   2.020  1.4763 -0.1051  2.2284
   34c3c     HC  267   3.026   3.856   1.981  0.6888 -0.6865 -0.2195
   34c3c     HC  268   3.083   3.808   2.147  0.9035  1.0859 -0.0400
   35c3c     N4  269   2.752   6.188   6.786  0.2120 -0.1038  0.1779
   35c3c     C1  270   2.743   6.300   6.885 -0.1676  0.4093 -0.2801
   35c3c     C1  271   2.730   6.070   6.858 -0.4402 -0.1497  0.4647
   35c3c     C2  272   2.627   6.253   6.981  0.1272  0.0455 -0.7021
   35c3c     C2  273   2.635   6.102   6.977 -0.4456  0.3002 -0.0778
   35c3c     C1  274   2.632   6.203   6.692  0.0878 -0.5251 -0.3688
   35c3c     C1  275   2.869   6.180   6.695  0.2580  0.2761  0.1078
   35c3c     H1  276   2.720   6.399   6.845 -0.0427  0.3561 -0.4855
   35c3c     H1  277   2.845   6.315   6.922  0.4311  3.1461 -2.8222
   35c3c     H1  278   2.688   5.987   6.802 -1.0566 -1.6241  3.0517
   35c3c     H1  279   2.813   6.016   6.905 -1.6833 -2.5180 -0.0011
   35c3c     HC  280   2.526   6.279   6.947  0.4216  2.4064  0.0925
   35c3c     HC  281   2.634   6.293   7.082 -1.4799 -1.3506 -0.0218
   35c3c     HC  282   2.537   6.055   6.966 -0.6712  0.6580  0.3802
   35c3c     HC  283   2.675   6.076   7.075 -1.8509  1.8004  0.9177
   35c3c     H1  284   2.634   6.292   6.629 -1.6883  0.8677  1.4748
   35c3c     H1  285   2.626   6.122   6.620 -0.9392  0.0811 -0.9683
   35c3c     H1  286   2.534   6.204   6.739  0.5081  1.1507  0.5529
   35c3c     H1  287   2.853   6.100   6.623  1.8752 -0.5201  0.6115
   35c3c     H1  288   2.877   6.274   6.640 -3.0859  0.9366  0.6447
   35c3c     C2  289   3.003   6.157   6.760  0.2241 -0.7172  0.0598
   35c3c     HC  290   3.016   6.067   6.821  1.2697  0.0143  0.9310
   35c3c     HC  291   3.029   6.246   6.816  1.2158 -1.1984  0.3770
   35c3c     CT  292   3.116   6.151   6.656 -0.2120 -0.4768  0.1504
   35c3c     HC  293   3.206   6.174   6.714 -0.4827  3.3913 -0.8190
   35c3c     HC  294   3.111   6.218   6.570  1.7452 -3.4824 -2.4390
   35c3c     HC  295   3.119   6.056   6.603  2.2904 -0.3846  0.0484
   36c3c     N4  296   3.449   6.405   6.293 -0.0392  0.3533 -0.9901
   36c3c     C1  297   3.329   6.335   6.353 -0.8673 -0.0491 -0.0979
   36c3c     C1  298   3.385   6.533   6.248 -0.2192 -0.3461 -0.4827
   36c3c     C2  299   3.251   6.439   6.428  0.8139  0.3242  0.1626
   36c3c     C2  300   3.266   6.571   6.341  0.2121 -0.1776 -0.4326
   36c3c     C1  301   3.548   6.427   6.400  0.4166 -0.2045 -0.3992
   36c3c     C1  302   3.514   6.337   6.181  1.0217  1.2702 -0.0555
   36c3c     H1  303   3.350   6.251   6.419 -0.8517  0.7916  0.9657
   36c3c     H1  304   3.264   6.294   6.275 -0.6682  0.7564 -0.6986
   36c3c     H1  305   3.451   6.619   6.239  1.5925 -1.1826  3.5861
   36c3c     H1  306   3.336   6.522   6.152 -0.6926  1.2812 -0.4371
   36c3c     HC  307   3.301   6.447   6.525  1.2477 -2.8287  0.2445
   36c3c     HC  308   3.145   6.415   6.437  0.8253 -0.0634 -0.7385
   36c3c     HC  309   3.280   6.665   6.393 -1.7858  0.5575 -1.1560
   36c3c     HC  310   3.175   6.582   6.282  0.1312 -0.6203 -0.3919
   36c3c     H1  311   3.572   6.342   6.464  0.3867  0.5667  0.6620
   36c3c     H1  312   3.636   6.472   6.355  0.3483 -0.6739 -0.9963
   36c3c     H1  313   3.512   6.492   6.481 -0.0811  0.0575 -0.8210
   36c3c     H1  314   3.592   6.402   6.140 -1.2693  4.2269  0.0497
   36c3c     H1  315   3.573   6.251   6.213  0.5120  0.7089 -0.6108
   36c3c     C2  316   3.420   6.304   6.061 -1.1664 -0.4991  0.4560
   36c3c     HC  317   3.401   6.395   6.005 -0.7131 -0.3176  0.5921
   36c3c     HC  318   3.328   6.251   6.086 -1.6557  0.3051  0.3656
   36c3c     CT  319   3.499   6.207   5.964  0.1372  0.3331 -0.2435
   36c3c     HC  320   3.529   6.116   6.016 -0.0630  0.8791  0.8417
   36c3c     HC  321   3.589   6.251   5.919 -1.0442  1.2463 -1.7679
   36c3c     HC  322   3.438   6.177   5.879 -1.7624  1.8132  0.5625
   37c3c     N4  323   4.777   1.688   6.443  0.6781  0.2417 -0.2389
   37c3c     C1  324   4.819   1.578   6.356  0.0432  0.3309 -0.0220
   37c3c     C1  325   4.662   1.625   6.509  0.0102 -0.0640  0.2432
   37c3c     C2  326   4.779   1.447   6.435  0.3798  0.0680  0.9235
   37c3c     C2  327   4.695   1.485   6.552  0.3340 -0.3919 -0.3498
   37c3c     C1  328   4.886   1.712   6.533  0.6373  0.1836 -0.4588
   37c3c     C1  329   4.737   1.809   6.376 -0.2348 -0.7296  0.0889
   37c3c     H1  330   4.924   1.578   6.326 -0.5385  3.0271 -2.2450
   37c3c     H1  331   4.761   1.584   6.264 -2.4922  0.0192  1.5167
   37c3c     H1  332   4.634   1.668   6.605  0.4534 -2.1024  1.3173
   37c3c     H1  333   4.570   1.622   6.451 -0.2906  2.4407  0.5118
   37c3c     HC  334   4.870   1.401   6.471  0.3226 -0.5240  0.3278
   37c3c     HC  335   4.721   1.373   6.379  0.3807  0.7649 -0.0019
   37c3c     HC  336   4.763   1.499   6.636 -1.6524  2.1486  0.9089
   37c3c     HC  337   4.607   1.426   6.578  0.7076 -0.3116  1.1231
   37c3c     H1  338   4.956   1.781   6.484  1.2764 -0.0640  0.1045
   37c3c     H1  339   4.859   1.774   6.618  1.1088  0.4082 -0.4698
   37c3c     H1  340   4.932   1.619   6.564 -0.4203 -0.0165  0.5298
   37c3c     H1  341   4.715   1.893   6.441  0.3277 -0.9187  0.5249
   37c3c     H1  342   4.820   1.854   6.321 -0.4096 -0.3665  0.1201
   37c3c     C2  343   4.613   1.798   6.286 -0.2197  0.7881  0.6607
   37c3c     HC  344   4.522   1.769   6.339 -0.8321 -0.0887 -0.8332
   37c3c     HC  345   4.625   1.719   6.211 -1.3854  2.1824 -1.0187
   37c3c     CT  346   4.585   1.930   6.209  0.8338  0.3370  0.2947
   37c3c     HC  347   4.549   2.011   6.272  1.2935  0.6794  0.1186
   37c3c     HC  348   4.508   1.921   6.133  2.6466  1.4214 -1.7397
   37c3c     HC  349   4.675   1.965   6.158  0.0409  0.6034 -0.9347
   38c3c     N4  350   5.038   0.877   5.589 -0.2894 -0.2993 -0.2768
   38c3c     C1  351   5.134   0.769   5.633  0.1105  0.1603 -0.1364
   38c3c     C1  352   5.036   0.852   5.450 -0.0183 -0.5495  0.0962
   38c3c     C2  353   5.082   0.650   5.561 -0.0576  0.2650 -0.4708
   38c3c     C2  354   5.021   0.706   5.431  0.4952  0.1994  0.0973
   38c3c     C1  355   4.901   0.867   5.642 -0.3725 -1.0511 -0.0730
   38c3c     C1  356   5.078   1.016   5.635 -0.2539 -0.5947  0.2435
   38c3c     H1  357   5.142   0.760   5.741  0.0824  2.4219  0.0887
   38c3c     H1  358   5.236   0.783   5.599  0.6798 -0.8630  1.1158
   38c3c     H1  359   4.953   0.906   5.405 -0.3271  1.8196  3.3211
   38c3c     H1  360   5.129   0.882   5.402 -0.5807  0.9054 -0.0870
   38c3c     HC  361   5.011   0.583   5.609 -1.1427  0.1175 -2.2376
   38c3c     HC  362   5.170   0.590   5.539 -0.2297 -0.5319  0.9651
   38c3c     HC  363   4.917   0.673   5.428  0.9398 -1.2449  0.2797
   38c3c     HC  364   5.085   0.671   5.350 -0.5808 -0.5959 -0.4237
   38c3c     H1  365   4.890   0.850   5.749  2.0034  1.1914  0.5804
   38c3c     H1  366   4.850   0.961   5.618 -0.7470 -1.5070 -1.0913
   38c3c     H1  367   4.846   0.781   5.604  0.8471 -1.5010 -0.8658
   38c3c     H1  368   5.006   1.090   5.601 -3.0143 -2.3174  2.1458
   38c3c     H1  369   5.089   1.017   5.743 -0.1704 -1.8354  0.2588
   38c3c     C2  370   5.214   1.066   5.581  0.2221  0.0583  0.6360
   38c3c     HC  371   5.201   1.085   5.475 -1.7400  1.0646  1.0179
   38c3c     HC  372   5.295   0.997   5.602  2.5584  3.0853  2.0142
   38c3c     CT  373   5.257   1.202   5.641  0.1656  0.5147  0.4403
   38c3c     HC  374   5.261   1.196   5.750  1.2247  1.5347  0.4703
   38c3c     HC  375   5.189   1.285   5.618 -0.5786 -0.3894 -0.6921
   38c3c     HC  376   5.357   1.239   5.618  0.3719 -0.9127 -1.0491
   39c3c     N4  377   3.665   6.730   0.788 -0.5295 -0.2746  0.5584
   39c3c     C1  378   3.765   6.689   0.889 -0.7745 -0.5910  0.2948
   39c3c     C1  379   3.628   6.870   0.835 -0.3217  0.0991  0.6191
   39c3c     C2  380   3.838   6.815   0.926  0.3422 -0.0845  0.7085
   39c3c     C2  381   3.756   6.938   0.881  0.1857  0.0979 -0.0215
   39c3c     C1  382   3.737   6.734   0.657 -0.0616  0.4753  0.0037
   39c3c     C1  383   3.546   6.643   0.770  0.2974 -0.1051 -0.6716
   39c3c     H1  384   3.825   6.605   0.856 -1.6348 -0.8383 -0.6869
   39c3c     H1  385   3.714   6.653   0.978  1.0567 -1.3063  1.0840
   39c3c     H1  386   3.584   6.925   0.752  0.4629 -0.5058 -0.2078
   39c3c     H1  387   3.563   6.855   0.922  0.8377  0.6890  1.6017
   39c3c     HC  388   3.937   6.831   0.883 -0.4041 -3.1461 -2.3566
   39c3c     HC  389   3.855   6.815   1.034 -0.5866  0.1437  0.8572
   39c3c     HC  390   3.804   6.991   0.799 -0.5074 -0.1417 -0.5842
   39c3c     HC  391   3.753   7.010   0.963 -1.0017  0.7735 -0.6474
   39c3c     H1  392   3.751   6.635   0.613 -3.0572 -0.3472  0.7688
   39c3c     H1  393   3.678   6.790   0.585 -0.1975  0.5387  0.1647
   39c3c     H1  394   3.840   6.769   0.667  1.4093 -3.5121 -0.0031
   39c3c     H1  395   3.486   6.698   0.698  1.2712  1.8419 -0.0364
   39c3c     H1  396   3.580   6.552   0.721 -0.4609  0.4751 -2.3054
   39c3c     C2  397   3.453   6.629   0.895 -0.0237  0.2643 -0.6011
   39c3c     HC  398   3.406   6.721   0.931  1.3886  0.1849  1.5450
   39c3c     HC  399   3.514   6.577   0.969 -3.3929 -1.7124  0.9451
   39c3c     CT  400   3.337   6.525   0.884  0.6352  0.3106 -0.2683
   39c3c     HC  401   3.274   6.529   0.973  0.0282 -2.3107 -0.5472
   39c3c     HC  402   3.367   6.424   0.855 -0.0981  0.3349 -1.1120
   39c3c     HC  403   3.280   6.565   0.800  0.0967  1.0672  0.4487
   40c3c     N4  404   2.462   4.009   1.897 -0.2766  0.3579 -0.2423
   40c3c     C1  405   2.603   3.988   1.930 -0.0607 -0.6621 -0.1361
   40c3c     C1  406   2.463   4.080   1.768  0.2502  0.4166 -0.2929
   40c3c     C2  407   2.668   3.965   1.788  0.3488 -0.2317 -0.3128
   40c3c     C2  408   2.566   4.009   1.687 -0.4775  0.2036  0.1706
   40c3c     C1  409   2.406   3.876   1.885 -0.0354 -0.3930 -0.0895
   40c3c     C1  410   2.391   4.080   2.000  0.1425 -0.4466 -1.0922
   40c3c     H1  411   2.614   3.909   2.005  1.2240 -1.4737 -1.1550
   40c3c     H1  412   2.637   4.080   1.978 -1.3825 -1.8054  3.1763
   40c3c     H1  413   2.367   4.082   1.717  0.3668  1.2991 -0.4790
   40c3c     H1  414   2.490   4.185   1.781 -0.8402  0.5837  0.7934
   40c3c     HC  415   2.714   3.868   1.769  1.6088  0.8247 -2.8262
   40c3c     HC  416   2.755   4.031   1.792 -1.0193  1.5863  0.0391
   40c3c     HC  417   2.522   3.923   1.637  0.4927  0.7161 -1.5956
   40c3c     HC  418   2.613   4.074   1.613 -0.2575 -0.3519 -0.1809
   40c3c     H1  419   2.384   3.833   1.982  0.2528 -2.1173 -0.7703
   40c3c     H1  420   2.304   3.887   1.847  0.1200  0.2823 -0.3302
   40c3c     H1  421   2.466   3.807   1.825  1.8300  0.0740  1.2166
   40c3c     H1  422   2.285   4.056   1.991 -0.1663 -0.5015  2.1455
   40c3c     H1  423   2.427   4.041   2.094 -1.1739  0.9774  0.0302
   40c3c     C2  424   2.410   4.235   2.016  0.0255  0.2777 -0.0090
   40c3c     HC  425   2.367   4.288   1.931  3.5007  0.4063 -1.7806
   40c3c     HC  426   2.516   4.258   2.028 -0.1260  0.9319  0.0899
   40c3c     CT  427   2.348   4.299   2.143 -0.2812  0.7016 -0.1320
   40c3c     HC  428   2.417   4.294   2.227  0.7669  2.1101 -0.8662
   40c3c     HC  429   2.266   4.234   2.172  0.0229 -0.0947 -1.0228
   40c3c     HC  430   2.320   4.402   2.122  0.0017  1.4763  3.0552
   41c3c     N4  431   3.735   0.901   5.676  0.7788 -0.2039 -0.6611
   41c3c     C1  432   3.702   0.779   5.604 -0.0471  0.2450 -0.2228
   41c3c     C1  433   3.874   0.869   5.728 -0.8758 -0.5934 -0.1930
   41c3c     C2  434   3.828   0.729   5.539  0.0002  0.1684  0.1016
   41c3c     C2  435   3.944   0.808   5.603 -0.1480 -0.4786 -0.1921
   41c3c     C1  436   3.739   1.016   5.585  0.2043 -0.6897  0.7375
   41c3c     C1  437   3.640   0.946   5.780 -0.1707  0.9064 -0.1036
   41c3c     H1  438   3.623   0.790   5.530  0.4242  0.6119 -0.6714
   41c3c     H1  439   3.665   0.711   5.682  1.0435  0.3095  0.3524
   41c3c     H1  440   3.930   0.956   5.763 -1.8874  0.9171 -2.2208
   41c3c     H1  441   3.865   0.803   5.814 -2.6240  1.6760  1.4322
   41c3c     HC  442   3.829   0.756   5.434  0.9767 -2.8103 -0.7238
   41c3c     HC  443   3.824   0.621   5.558 -2.4526 -0.0672 -1.4139
   41c3c     HC  444   3.987   0.879   5.533 -1.0875 -0.7692 -1.0801
   41c3c     HC  445   4.028   0.745   5.631  1.1314  0.2272 -2.3253
   41c3c     H1  446   3.640   1.052   5.558 -0.5448 -3.2621 -0.1420
   41c3c     H1  447   3.793   1.100   5.627  0.3263 -1.5851  2.4153
   41c3c     H1  448   3.777   0.982   5.488  1.4171  0.9880  0.6103
   41c3c     H1  449   3.676   1.040   5.821  1.6582  0.1165  0.1542
   41c3c     H1  450   3.544   0.961   5.731 -0.4365  0.1909  0.1883
   41c3c     C2  451   3.614   0.857   5.901 -0.0172 -0.3718 -0.1432
   41c3c     HC  452   3.708   0.835   5.952 -0.3079  0.1769  0.6511
   41c3c     HC  453   3.569   0.764   5.866  0.5581 -0.5208 -0.5009
   41c3c     CT  454   3.530   0.938   6.000  0.1177 -0.1734  0.1426
   41c3c     HC  455   3.480   0.870   6.069  0.9399  0.7097  1.6302
   41c3c     HC  456   3.449   0.998   5.959  1.5547  0.7019 -1.4605
   41c3c     HC  457   3.595   1.002   6.059 -0.5103 -1.5957  2.4790
   42c3c     N4  458   3.818   5.077   6.597 -0.1597 -0.0142  0.5962
   42c3c     C1  459   3.724   4.995   6.512  0.0039  0.0870 -0.2999
   42c3c     C1  460   3.850   5.194   6.513  0.0796  0.0004 -0.2595
   42c3c     C2  461   3.632   5.097   6.449 -0.2340 -0.5449  0.2332
   42c3c     C2  462   3.715   5.226   6.443 -0.0310  0.4613 -0.8524
   42c3c     C1  463   3.753   5.123   6.717  0.3264 -0.4875 -0.3495
   42c3c     C1  464   3.940   5.001   6.639  0.2992  0.3687 -0.0013
   42c3c     H1  465   3.665   4.926   6.573  1.3888  1.1991  2.3715
   42c3c     H1  466   3.781   4.937   6.440 -0.1595 -0.6347  0.1421
   42c3c     H1  467   3.881   5.268   6.586  1.8846 -3.1777  2.3216
   42c3c     H1  468   3.934   5.186   6.444  0.1038  0.6796 -0.3123
   42c3c     HC  469   3.550   5.109   6.519 -1.8652 -0.9103 -1.5633
   42c3c     HC  470   3.592   5.062   6.354  2.8114 -1.4931 -0.7750
   42c3c     HC  471   3.671   5.301   6.509  0.1373 -1.2038  1.2023
   42c3c     HC  472   3.728   5.273   6.345 -0.5310  1.1390 -0.6043
   42c3c     H1  473   3.723   5.040   6.782  0.2480 -0.9605 -0.9828
   42c3c     H1  474   3.819   5.191   6.771 -2.9237  1.4315  1.3986
   42c3c     H1  475   3.670   5.191   6.698  1.1746  1.3242  2.0892
   42c3c     H1  476   4.002   5.071   6.695  0.3836 -1.0787  1.7595
   42c3c     H1  477   3.916   4.920   6.708  0.4301  0.0843 -0.2871
   42c3c     C2  478   4.022   4.933   6.524  0.1954 -0.9162  0.3717
   42c3c     HC  479   4.045   4.991   6.434  0.2710 -1.0411  0.3101
   42c3c     HC  480   3.963   4.847   6.491  0.0645 -0.4466 -0.6284
   42c3c     CT  481   4.158   4.877   6.574  0.1950 -0.1458  0.6403
   42c3c     HC  482   4.198   4.817   6.492 -1.7644 -0.8348  0.1535
   42c3c     HC  483   4.156   4.802   6.653  0.8881 -0.4702  0.3574
   42c3c     HC  484   4.228   4.950   6.614  1.6339 -0.5385 -1.0948
   43c3c     N4  485   3.910   3.389   1.508  0.0831 -0.3968  0.3974
   43c3c     C1  486   4.051   3.414   1.540  0.2076 -0.4246 -0.4790
   43c3c     C1  487   3.897   3.242   1.493  0.4242 -0.6414  0.1697
   43c3c     C2  488   4.086   3.295   1.628  0.2706  0.4028  0.4583
   43c3c     C2  489   3.999   3.176   1.591 -0.9717 -0.3173  0.0634
   43c3c     C1  490   3.831   3.433   1.620 -0.0410 -0.1506  0.7208
   43c3c     C1  491   3.858   3.456   1.388  0.2250 -0.4914 -0.5985
   43c3c     H1  492   4.059   3.513   1.586 -1.2888  0.2188 -1.5816
   43c3c     H1  493   4.118   3.405   1.455  1.6883  0.1303  0.6014
   43c3c     H1  494   3.794   3.206   1.501  0.3038 -0.3864 -0.2253
   43c3c     H1  495   3.927   3.208   1.394 -0.0451  0.1542 -0.2513
   43c3c     HC  496   4.069   3.315   1.734 -2.2424  2.3052 -0.2555
   43c3c     HC  497   4.192   3.277   1.607  1.1609  0.0310  4.7774
   43c3c     HC  498   3.953   3.125   1.676 -0.0161  2.5751  2.3608
   43c3c     HC  499   4.052   3.099   1.535  0.3454  1.1903 -0.7793
   43c3c     H1  500   3.826   3.542   1.622 -1.1357 -0.2037  1.2228
   43c3c     H1  501   3.729   3.401   1.602  0.3708 -1.6887  1.0849
   43c3c     H1  502   3.863   3.400   1.719  0.0069  0.9074  1.0631
   43c3c     H1  503   3.752   3.441   1.367 -0.0237  1.3103 -0.7470
   43c3c     H1  504   3.864   3.561   1.416  1.4560 -0.1524 -2.0080
   43c3c     C2  505   3.926   3.422   1.257  0.5481 -0.4677 -0.2770
   43c3c     HC  506   3.897   3.329   1.209  2.9381 -0.8892 -0.9962
   43c3c     HC  507   4.035   3.419   1.262  0.5308 -1.0028 -0.2052
   43c3c     CT  508   3.911   3.541   1.159  0.3019  0.3214 -0.0523
   43c3c     HC  509   3.920   3.638   1.208 -2.5547 -0.1754  1.5578
   43c3c     HC  510   3.815   3.548   1.109  0.9487  1.0556 -1.2270
   43c3c     HC  511   3.993   3.544   1.087  0.8281 -0.3679  0.5150
   44c3c     N4  512   3.633   5.226   0.770 -0.1044 -0.2000  0.3468
   44c3c     C1  513   3.609   5.300   0.649  0.1392 -0.6227  0.5569
   44c3c     C1  514   3.583   5.312   0.880 -0.1537 -0.2868 -0.2494
   44c3c     C2  515   3.484   5.392   0.679  0.0270 -0.1357  0.1866
   44c3c     C2  516   3.464   5.390   0.831 -0.6740  0.3028 -0.1570
   44c3c     C1  517   3.561   5.098   0.759 -0.9037  0.2977 -0.7076
   44c3c     C1  518   3.778   5.196   0.783 -0.5579 -0.7363  0.6652
   44c3c     H1  519   3.590   5.246   0.556 -0.8823 -0.2850  0.5653
   44c3c     H1  520   3.687   5.370   0.622  0.7179 -0.1708  3.2853
   44c3c     H1  521   3.560   5.243   0.961 -1.1447 -1.7693 -1.7641
   44c3c     H1  522   3.639   5.402   0.908 -1.2277  0.2929  0.0574
   44c3c     HC  523   3.385   5.366   0.641  0.9807 -2.0630 -1.1199
   44c3c     HC  524   3.518   5.494   0.660  2.6814 -0.8920  0.6650
   44c3c     HC  525   3.367   5.343   0.849 -1.8463  1.8083 -2.2474
   44c3c     HC  526   3.467   5.495   0.860 -1.7056  0.0435  0.9282
   44c3c     H1  527   3.602   5.045   0.674 -0.3562 -2.0646  0.9837
   44c3c     H1  528   3.580   5.039   0.849  1.4666  1.6874 -0.2690
   44c3c     H1  529   3.452   5.105   0.749 -0.8118  3.0138 -0.2160
   44c3c     H1  530   3.798   5.135   0.871 -3.2301 -0.1854  1.7066
   44c3c     H1  531   3.806   5.126   0.704 -2.4676  0.0265 -0.7295
   44c3c     C2  532   3.889   5.304   0.793 -0.2179  0.1364  0.6405
   44c3c     HC  533   3.877   5.358   0.886  0.5040  1.0279  0.2242
   44c3c     HC  534   3.883   5.375   0.710  0.6201 -1.8041 -1.1448
   44c3c     CT  535   4.035   5.253   0.793  0.3357  0.2702 -0.0848
   44c3c     HC  536   4.113   5.326   0.772 -0.0923  1.0327  0.9727
   44c3c     HC  537   4.053   5.169   0.726  5.0610  1.4727 -0.4911
   44c3c     HC  538   4.054   5.213   0.893  0.5819  2.4148  0.7445
   45c3c     N4  539   4.451   0.868   5.077  0.0853 -0.0168 -0.5811
   45c3c     C1  540   4.374   0.991   5.042 -0.2797  0.1141  1.2436
   45c3c     C1  541   4.448   0.793   4.956 -0.3112 -0.1884  0.3816
   45c3c     C2  542   4.426   1.034   4.906 -0.5545 -0.1141  0.6720
   45c3c     C2  543   4.463   0.897   4.840  0.2037 -0.2959  0.0562
   45c3c     C1  544   4.592   0.901   5.108  0.1068 -0.1684 -0.4469
   45c3c     C1  545   4.407   0.803   5.204  0.1716  0.1387  0.1038
   45c3c     H1  546   4.388   1.066   5.120  5.2870  0.5995  0.0397
   45c3c     H1  547   4.269   0.966   5.031  0.5181 -1.9802 -2.8737
   45c3c     H1  548   4.532   0.723   4.959 -1.8967 -2.0712  1.9280
   45c3c     H1  549   4.356   0.737   4.946  0.9914 -2.7907  2.3654
   45c3c     HC  550   4.514   1.097   4.920  0.4039 -1.0512 -0.8729
   45c3c     HC  551   4.352   1.085   4.845 -1.0624  0.8420  2.0807
   45c3c     HC  552   4.566   0.899   4.803  0.3056 -1.1665  0.2847
   45c3c     HC  553   4.388   0.874   4.764 -0.5836  0.2269  0.6668
   45c3c     H1  554   4.600   0.968   5.193 -0.0550 -1.4505  0.6046
   45c3c     H1  555   4.647   0.809   5.128  0.5347 -0.1319 -1.4563
   45c3c     H1  556   4.645   0.936   5.020 -0.0016 -1.5122 -1.0551
   45c3c     H1  557   4.452   0.705   5.217 -0.2558 -0.1145 -0.3286
   45c3c     H1  558   4.444   0.855   5.292 -1.4547  0.0731  0.8617
   45c3c     C2  559   4.259   0.784   5.228  0.3500  0.4400  0.2236
   45c3c     HC  560   4.226   0.720   5.146 -0.0757  1.0574 -0.0875
   45c3c     HC  561   4.211   0.881   5.222 -0.4903  0.0106 -0.1292
   45c3c     CT  562   4.215   0.716   5.361  0.4100  0.1685  0.2700
   45c3c     HC  563   4.268   0.622   5.372  0.8923  0.4501  0.4008
   45c3c     HC  564   4.107   0.705   5.367  0.3858  0.6924  0.8508
   45c3c     HC  565   4.248   0.786   5.438 -0.8542  2.4183 -1.1552
   46c3c     N4  566   3.323   0.244   5.643  0.5587  0.5556 -0.1824
   46c3c     C1  567   3.448   0.302   5.703  0.0735 -0.9071 -0.2505
   46c3c     C1  568   3.275   0.142   5.746 -0.0278  0.0792  0.4162
   46c3c     C2  569   3.437   0.285   5.858  0.2507  0.0635 -0.0036
   46c3c     C2  570   3.310   0.202   5.881  0.0640 -0.1153 -0.1248
   46c3c     C1  571   3.234   0.359   5.651  0.6786  0.4097  0.0761
   46c3c     C1  572   3.336   0.189   5.503  0.4458 -0.4117  0.5905
   46c3c     H1  573   3.471   0.404   5.673 -1.1101 -1.2419 -2.4271
   46c3c     H1  574   3.534   0.240   5.677  0.0513 -2.1293  2.4005
   46c3c     H1  575   3.172   0.108   5.734 -0.0134 -0.1320  0.8850
   46c3c     H1  576   3.335   0.052   5.733  0.3923  0.1866  1.5681
   46c3c     HC  577   3.429   0.377   5.916  2.2308  0.6282 -0.5924
   46c3c     HC  578   3.523   0.228   5.895 -0.6891 -1.5859 -0.3003
   46c3c     HC  579   3.226   0.254   5.927  1.6577  1.1845  1.3929
   46c3c     HC  580   3.326   0.117   5.947 -0.6401  0.5029  0.8635
   46c3c     H1  581   3.267   0.443   5.589  1.4938 -0.7273 -1.0522
   46c3c     H1  582   3.137   0.328   5.612  1.4485  0.9868 -2.4204
   46c3c     H1  583   3.213   0.388   5.754  2.8285  0.7675  0.4253
   46c3c     H1  584   3.237   0.155   5.473 -1.9779  3.0802  4.1980
   46c3c     H1  585   3.354   0.261   5.423  0.1208 -0.2235  0.6879
   46c3c     C2  586   3.433   0.063   5.489  0.1227  0.4419 -0.3427
   46c3c     HC  587   3.413  -0.023   5.552 -1.3315  0.0929 -1.2489
   46c3c     HC  588   3.534   0.091   5.519  1.3199 -1.5351 -2.3018
   46c3c     CT  589   3.451   0.017   5.342 -0.2298 -1.1260  0.8467
   46c3c     HC  590   3.502   0.088   5.277 -0.8853  0.5064  2.0809
   46c3c     HC  591   3.357  -0.008   5.292  0.3145 -0.1827 -0.7123
   46c3c     HC  592   3.523  -0.065   5.342 -0.4735 -1.3700 -1.1581
   47c3c     N4  593   3.676   5.661   0.240 -0.3835 -0.3189  0.4408
   47c3c     C1  594   3.599   5.540   0.227  0.3390  0.1741  0.3007
   47c3c     C1  595   3.587   5.755   0.314  0.0569 -0.1030 -0.9564
   47c3c     C2  596   3.518   5.520   0.357 -0.2111  0.0387 -0.5822
   47c3c     C2  597   3.523   5.661   0.424 -0.4410  0.1137 -0.0754
   47c3c     C1  598   3.804   5.635   0.310  0.4340 -0.5814  0.0254
   47c3c     C1  599   3.714   5.716   0.106 -0.7007 -0.1276  0.3657
   47c3c     H1  600   3.657   5.457   0.188  1.3981  0.7019  0.7166
   47c3c     H1  601   3.541   5.546   0.135  3.3580 -0.7599 -1.7586
   47c3c     H1  602   3.638   5.841   0.357 -0.5811 -0.2412  0.0929
   47c3c     H1  603   3.507   5.792   0.249 -0.9132 -4.1871 -2.2240
   47c3c     HC  604   3.558   5.442   0.422  0.1081  0.6694 -0.0226
   47c3c     HC  605   3.414   5.492   0.338 -0.8857  2.5212 -0.6502
   47c3c     HC  606   3.585   5.645   0.512 -1.2940  0.0252  0.5152
   47c3c     HC  607   3.431   5.709   0.456 -1.1802 -1.1562 -0.2845
   47c3c     H1  608   3.862   5.554   0.265  2.5830  1.0708 -0.2664
   47c3c     H1  609   3.857   5.730   0.307 -1.9417  0.7655 -0.6939
   47c3c     H1  610   3.775   5.600   0.409 -0.8373 -2.3418 -0.9392
   47c3c     H1  611   3.797   5.785   0.118 -0.5131 -0.2140 -0.4135
   47c3c     H1  612   3.761   5.633   0.053  0.3549  0.6830  0.0145
   47c3c     C2  613   3.601   5.777   0.014 -0.0810 -0.2492  0.6528
   47c3c     HC  614   3.547   5.859   0.061 -1.2391  0.0543 -1.1353
   47c3c     HC  615   3.529   5.698  -0.009  1.3770 -0.9025 -1.9415
   47c3c     CT  616   3.657   5.840  -0.107 -0.5504  0.1080 -0.1856
   47c3c     HC  617   3.735   5.785  -0.161  1.2408  1.9780  0.4230
   47c3c     HC  618   3.705   5.925  -0.060  1.8917 -2.1001  1.4628
   47c3c     HC  619   3.576   5.880  -0.168  0.0692  0.2195 -0.9472
   48c3c     N4  620   3.300   4.699   0.664 -0.1039  0.1023  0.0686
   48c3c     C1  621   3.261   4.833   0.621  0.2292  0.3191  0.1542
   48c3c     C1  622   3.209   4.669   0.776  0.7579  0.2973  0.3728
   48c3c     C2  623   3.111   4.827   0.619 -0.3055 -0.2584  0.5535
   48c3c     C2  624   3.075   4.724   0.729  0.2552 -0.6177 -0.0354
   48c3c     C1  625   3.285   4.607   0.551 -1.0298  0.5068 -0.6403
   48c3c     C1  626   3.445   4.689   0.704 -0.1288  0.2448  0.5378
   48c3c     H1  627   3.295   4.863   0.522  0.5561  3.1982  1.0973
   48c3c     H1  628   3.279   4.911   0.695 -1.3219  0.6145  0.2506
   48c3c     H1  629   3.199   4.567   0.812  1.9378  0.9041  2.5167
   48c3c     H1  630   3.230   4.728   0.866  1.1373  0.6194  0.0790
   48c3c     HC  631   3.069   4.795   0.523 -0.7613 -2.4128  1.4562
   48c3c     HC  632   3.079   4.927   0.648  2.5180  0.3868  1.5559
   48c3c     HC  633   3.001   4.657   0.684 -1.0185  2.0492 -2.0497
   48c3c     HC  634   3.021   4.770   0.811  2.1686 -1.5286  1.7809
   48c3c     H1  635   3.350   4.632   0.467 -1.3986 -0.6307 -1.2786
   48c3c     H1  636   3.298   4.503   0.579  0.2288  0.5351 -1.0879
   48c3c     H1  637   3.182   4.607   0.514 -1.6439 -0.8959  0.9999
   48c3c     H1  638   3.474   4.584   0.715 -1.6235 -0.0664  1.7548
   48c3c     H1  639   3.498   4.744   0.626 -0.5810  0.5485  0.4442
   48c3c     C2  640   3.488   4.755   0.841  0.4917 -0.2734  0.3620
   48c3c     HC  641   3.439   4.693   0.916 -0.3356  1.3828  1.2167
   48c3c     HC  642   3.441   4.853   0.850  0.7926 -0.0890 -0.0712
   48c3c     CT  643   3.646   4.755   0.854  0.1272 -0.2125  0.8470
   48c3c     HC  644   3.668   4.812   0.945 -1.0095 -0.7652  1.4847
   48c3c     HC  645   3.699   4.813   0.778 -0.1849  0.6081  1.2442
   48c3c     HC  646   3.686   4.655   0.870 -1.4040 -1.1215 -0.8701
   49c3c     N4  647   2.649   4.908   0.564 -0.0861 -0.5401  0.1131
   49c3c     C1  648   2.619   4.909   0.710 -0.1295  0.1950 -0.1405
   49c3c     C1  649   2.684   5.050   0.548 -1.4006 -0.2342  0.1928
   49c3c     C2  650   2.729   4.990   0.781  0.2542 -0.3638 -0.3044
   49c3c     C2  651   2.761   5.090   0.670 -0.3065 -0.0547 -0.2366
   49c3c     C1  652   2.744   4.805   0.530 -0.1197 -0.5497  0.0189
   49c3c     C1  653   2.531   4.861   0.484 -0.4840  0.2385 -0.4341
   49c3c     H1  654   2.599   4.812   0.755 -0.3125 -0.1730 -1.0006
   49c3c     H1  655   2.528   4.962   0.737 -0.5383 -0.2313 -0.6876
   49c3c     H1  656   2.740   5.061   0.455 -0.8310 -2.0413  0.3080
   49c3c     H1  657   2.600   5.119   0.543 -0.6175  1.0062  2.8730
   49c3c     HC  658   2.805   4.920   0.814 -0.9360 -1.1094  0.9232
   49c3c     HC  659   2.693   5.046   0.868 -0.3970  0.7576 -1.2663
   49c3c     HC  660   2.869   5.083   0.657 -0.1494  0.7254  0.6055
   49c3c     HC  661   2.738   5.191   0.703  1.0897  0.0666  0.4411
   49c3c     H1  662   2.700   4.705   0.534 -0.8517 -0.1824  1.0401
   49c3c     H1  663   2.781   4.812   0.427 -0.9456  2.4551 -0.1102
   49c3c     H1  664   2.828   4.817   0.599  0.8396  1.1329 -1.3840
   49c3c     H1  665   2.549   4.845   0.378  1.2352  2.7809 -0.5712
   49c3c     H1  666   2.505   4.762   0.521  0.9952  0.6403  1.7955
   49c3c     C2  667   2.395   4.940   0.487 -0.4478  0.0070 -0.5467
   49c3c     HC  668   2.413   5.046   0.470  0.6956 -0.0674  0.0966
   49c3c     HC  669   2.364   4.940   0.591 -2.7641  0.4779 -1.2085
   49c3c     CT  670   2.290   4.886   0.388  0.6358  0.2790 -0.1737
   49c3c     HC  671   2.297   4.777   0.377  0.5170  0.3819 -1.3362
   49c3c     HC  672   2.310   4.926   0.288 -1.9925  2.8485  0.2694
   49c3c     HC  673   2.188   4.908   0.420  1.1917  1.8757  0.4979
   50c3c     N4  674   3.648   3.981   3.599 -0.4334 -0.4101  0.0494
   50c3c     C1  675   3.633   4.128   3.571 -0.3216  0.1128  0.2546
   50c3c     C1  676   3.671   3.959   3.736  0.7653 -0.3180 -0.1954
   50c3c     C2  677   3.673   4.197   3.699  0.1751 -0.0672 -0.9707
   50c3c     C2  678   3.723   4.090   3.802  0.0132 -0.0847  0.1637
   50c3c     C1  679   3.522   3.912   3.572 -0.2866  0.1540 -0.4476
   50c3c     C1  680   3.753   3.923   3.518 -1.2769 -0.0967 -0.1129
   50c3c     H1  681   3.531   4.148   3.541  0.0111  2.2448  0.4755
   50c3c     H1  682   3.688   4.163   3.483 -0.8822 -0.7355 -0.4452
   50c3c     H1  683   3.583   3.926   3.790  1.3815 -0.3475  0.8060
   50c3c     H1  684   3.736   3.875   3.758  1.5280  1.0047  2.8760
   50c3c     HC  685   3.587   4.251   3.739  1.6737  0.9399  0.9527
   50c3c     HC  686   3.741   4.281   3.683 -0.2253  0.5680  0.5517
   50c3c     HC  687   3.674   4.105   3.898  1.1945  2.0466  0.4718
   50c3c     HC  688   3.831   4.101   3.811  0.2947 -3.3955  1.2431
   50c3c     H1  689   3.499   3.913   3.465 -1.2119  1.7122 -0.2555
   50c3c     H1  690   3.530   3.807   3.600 -1.6819 -0.5289 -2.4131
   50c3c     H1  691   3.432   3.960   3.610 -1.5499 -1.5254 -1.2366
   50c3c     H1  692   3.756   3.815   3.529 -1.6615 -0.0735  0.2164
   50c3c     H1  693   3.741   3.946   3.412  0.5957 -0.6146 -0.4474
   50c3c     C2  694   3.904   3.978   3.532  0.5816  0.3204  0.1014
   50c3c     HC  695   3.938   3.964   3.635  0.2886 -0.9553  0.0416
   50c3c     HC  696   3.900   4.087   3.530 -0.0324  0.3374  1.6989
   50c3c     CT  697   4.006   3.915   3.434 -0.0319 -0.4443  0.3931
   50c3c     HC  698   4.000   3.947   3.330  0.7121 -0.6078  0.2963
   50c3c     HC  699   3.995   3.807   3.430  0.3429 -0.4933  0.6841
   50c3c     HC  700   4.105   3.940   3.473 -1.4226 -0.4131  4.0987
   51c3c     N4  701   2.964   5.491   6.294 -0.0685  0.2493  0.1951
   51c3c     C1  702   3.080   5.522   6.198 -0.3942 -0.1672 -0.5010
   51c3c     C1  703   2.874   5.404   6.214 -0.0686  0.8110  0.8016
   51c3c     C2  704   3.108   5.392   6.123  0.4212 -0.0983  0.4476
   51c3c     C2  705   2.976   5.322   6.133 -0.5242  0.3357 -0.6048
   51c3c     C1  706   3.021   5.433   6.411  0.2599 -0.6181 -0.6913
   51c3c     C1  707   2.900   5.609   6.349 -0.8069 -0.1994  0.2225
   51c3c     H1  708   3.170   5.554   6.250 -1.1979  1.4303 -0.0462
   51c3c     H1  709   3.064   5.589   6.114 -0.9582  1.6610  1.0209
   51c3c     H1  710   2.806   5.350   6.280 -0.2239  0.3019  0.2287
   51c3c     H1  711   2.815   5.466   6.147  1.9558 -0.5665 -2.3705
   51c3c     HC  712   3.181   5.322   6.164  0.3719 -0.7921 -0.6363
   51c3c     HC  713   3.129   5.404   6.017  1.4896 -2.6708  0.3232
   51c3c     HC  714   2.980   5.225   6.183 -0.7308  0.6023 -0.0658
   51c3c     HC  715   2.931   5.307   6.035  1.4567  0.2104 -1.5181
   51c3c     H1  716   3.083   5.504   6.467  2.1921 -2.9439  0.1888
   51c3c     H1  717   2.950   5.393   6.484  0.5526  1.5732  0.8483
   51c3c     H1  718   3.097   5.359   6.388  0.9089 -0.6850  1.5347
   51c3c     H1  719   2.823   5.576   6.419 -2.2675 -1.8161 -2.0900
   51c3c     H1  720   2.969   5.670   6.407 -0.0945  0.2718 -1.1099
   51c3c     C2  721   2.841   5.714   6.260  0.0199  0.0703 -0.8695
   51c3c     HC  722   2.753   5.665   6.217 -0.6005 -1.2024  1.7384
   51c3c     HC  723   2.903   5.752   6.179  1.4906 -1.7278 -0.6217
   51c3c     CT  724   2.788   5.839   6.345  0.1293  0.3231  0.2413
   51c3c     HC  725   2.736   5.916   6.288  1.6096  1.6720  0.6848
   51c3c     HC  726   2.855   5.893   6.412 -1.5255  0.3945  1.8731
   51c3c     HC  727   2.718   5.805   6.420  1.5066 -1.9479  0.5546
   52c3c     N4  728   2.113   6.285   6.829  0.3953 -0.5206  0.3013
   52c3c     C1  729   2.098   6.329   6.690  1.0514  0.1471 -0.4380
   52c3c     C1  730   2.259   6.292   6.840 -0.1921 -0.0992  0.0359
   52c3c     C2  731   2.200   6.441   6.657 -0.0438  0.9852 -0.4625
   52c3c     C2  732   2.308   6.413   6.765 -0.9577  0.2657  0.0789
   52c3c     C1  733   2.046   6.378   6.928 -0.9329 -0.6032 -0.3736
   52c3c     C1  734   2.050   6.155   6.854  0.4079  0.4287 -0.8415
   52c3c     H1  735   1.998   6.370   6.676  1.3188  0.6963 -0.7645
   52c3c     H1  736   2.111   6.243   6.625  1.6621 -1.0397  1.2150
   52c3c     H1  737   2.303   6.285   6.940 -2.0692 -1.7433  0.7676
   52c3c     H1  738   2.307   6.209   6.789 -1.2159 -0.1901 -0.7876
   52c3c     HC  739   2.158   6.536   6.690  0.2941  0.5854  1.1986
   52c3c     HC  740   2.238   6.447   6.555 -1.2350  0.5723 -0.9336
   52c3c     HC  741   2.308   6.496   6.836 -0.6252  0.3807 -0.0546
   52c3c     HC  742   2.406   6.394   6.723  0.1707  1.3896  2.1500
   52c3c     H1  743   1.940   6.396   6.906 -0.1569  1.5136 -2.5256
   52c3c     H1  744   2.051   6.335   7.028 -1.1307  2.6763  1.1159
   52c3c     H1  745   2.096   6.474   6.926 -1.5862 -0.1825  1.8061
   52c3c     H1  746   2.057   6.134   6.960 -0.9074 -0.1503 -0.8590
   52c3c     H1  747   1.948   6.169   6.817  0.4246  0.6392 -0.8018
   52c3c     C2  748   2.118   6.031   6.786  0.1663 -0.4404  0.0445
   52c3c     HC  749   2.207   5.999   6.840  1.9699 -0.4769 -2.8410
   52c3c     HC  750   2.143   6.042   6.681  1.5281 -1.7545  0.2188
   52c3c     CT  751   2.024   5.915   6.801 -0.3588  0.4107 -0.4013
   52c3c     HC  752   2.004   5.888   6.904 -0.8579  0.2466 -0.5388
   52c3c     HC  753   2.055   5.822   6.754  1.4281  0.1272  1.2733
   52c3c     HC  754   1.930   5.944   6.754 -0.7280 -0.4865 -0.2083
   53c3c     N4  755   1.606   5.859   6.936  0.1040  0.0769 -0.8056
   53c3c     C1  756   1.504   5.893   6.834 -0.4550  0.4158  0.3872
   53c3c     C1  757   1.530   5.788   7.045  0.6218  1.1689  0.0612
   53c3c     C2  758   1.407   5.775   6.840 -0.5539  0.1326  0.4446
   53c3c     C2  759   1.436   5.696   6.970  0.0143 -0.0915  1.0150
   53c3c     C1  760   1.707   5.773   6.875 -0.0004  0.0661 -0.6265
   53c3c     C1  761   1.678   5.975   6.985 -0.7799  0.2529 -0.2078
   53c3c     H1  762   1.552   5.904   6.737  2.3621 -0.4079  1.6531
   53c3c     H1  763   1.460   5.991   6.852 -0.8996  0.8246 -2.6463
   53c3c     H1  764   1.599   5.744   7.116 -0.9481 -1.3706  0.0619
   53c3c     H1  765   1.474   5.848   7.117  2.1644  2.4846  0.2143
   53c3c     HC  766   1.425   5.708   6.756  0.7216  0.7490  0.2232
   53c3c     HC  767   1.306   5.815   6.840 -0.4510  0.4087 -1.0567
   53c3c     HC  768   1.495   5.604   6.966  1.2710  0.6463  2.1189
   53c3c     HC  769   1.348   5.673   7.030 -0.4227 -2.0973 -0.3243
   53c3c     H1  770   1.772   5.831   6.810 -0.2164  1.0492  0.0162
   53c3c     H1  771   1.764   5.731   6.957  0.2900  0.8791 -0.4065
   53c3c     H1  772   1.670   5.689   6.816 -0.2145  1.6898 -2.8512
   53c3c     H1  773   1.762   5.942   7.046 -0.9619  0.2683  0.0503
   53c3c     H1  774   1.710   6.027   6.895 -0.0206  1.2711  0.6415
   53c3c     C2  775   1.599   6.082   7.062  0.2209  0.0541 -0.3991
   53c3c     HC  776   1.564   6.032   7.153  1.8708  0.1421  0.3078
   53c3c     HC  777   1.507   6.107   7.009  0.0313 -0.1844 -0.1869
   53c3c     CT  778   1.676   6.205   7.108 -0.0652 -0.2684 -0.3603
   53c3c     HC  779   1.743   6.177   7.189  0.4779  1.5323 -0.1836
   53c3c     HC  780   1.622   6.287   7.154  0.8496  0.6835 -0.9783
   53c3c     HC  781   1.736   6.253   7.031  0.5055  0.8471  0.7602
   54c3c     N4  782   2.332   0.866   6.229  0.2210 -0.7238  0.3275
   54c3c     C1  783   2.191   0.850   6.248 -0.0936 -0.0038 -0.6151
   54c3c     C1  784   2.378   0.740   6.169  0.0657  0.2371 -0.1340
   54c3c     C2  785   2.143   0.770   6.124  0.3396 -0.3120 -0.5338
   54c3c     C2  786   2.277   0.720   6.058  0.2407 -0.5584 -0.7514
   54c3c     C1  787   2.357   0.981   6.140  0.3915 -1.1584 -0.0582
   54c3c     C1  788   2.412   0.893   6.352 -0.2375 -0.9209  0.1897
   54c3c     H1  789   2.134   0.941   6.263 -2.4426 -1.2477 -1.6425
   54c3c     H1  790   2.170   0.788   6.335 -0.9220  0.0947 -0.7421
   54c3c     H1  791   2.485   0.738   6.148  0.2873 -0.0413  1.0066
   54c3c     H1  792   2.385   0.649   6.228 -3.2991 -0.1932 -0.2868
   54c3c     HC  793   2.094   0.842   6.059 -1.5065 -1.3039 -0.2621
   54c3c     HC  794   2.065   0.698   6.149 -0.4825  0.1752 -1.6257
   54c3c     HC  795   2.297   0.770   5.963  0.4374  0.2665 -0.2844
   54c3c     HC  796   2.262   0.614   6.038 -0.7015 -1.2230  3.1328
   54c3c     H1  797   2.324   1.079   6.176  0.5523 -0.3495 -2.0372
   54c3c     H1  798   2.464   0.982   6.118  0.8100 -0.1814  1.9056
   54c3c     H1  799   2.313   0.962   6.042 -0.4337 -1.2260  0.3245
   54c3c     H1  800   2.514   0.916   6.321 -1.4136  0.6036 -2.6950
   54c3c     H1  801   2.377   0.977   6.412 -0.8266 -1.0710  0.0624
   54c3c     C2  802   2.415   0.779   6.460  0.5950 -0.4092 -0.0007
   54c3c     HC  803   2.458   0.687   6.422 -1.7802 -1.5709 -0.0250
   54c3c     HC  804   2.319   0.729   6.478 -0.5548  1.2981 -1.2924
   54c3c     CT  805   2.505   0.810   6.573  0.5151 -0.1262 -0.0031
   54c3c     HC  806   2.612   0.828   6.567  0.4027 -0.1735 -3.0505
   54c3c     HC  807   2.503   0.726   6.642 -0.5882  1.3960  1.8729
   54c3c     HC  808   2.456   0.886   6.634 -0.0810  0.4842 -1.2204
   55c3c     N4  809   2.716   5.090   6.791 -0.6961  0.2106  0.0438
   55c3c     C1  810   2.754   5.056   6.932  0.5703 -0.6107  0.4507
   55c3c     C1  811   2.650   5.222   6.802  0.6304 -0.2448 -0.3000
   55c3c     C2  812   2.803   5.188   6.987  0.3306  0.2746 -0.3369
   55c3c     C2  813   2.718   5.291   6.915  0.9512  0.1495 -0.0059
   55c3c     C1  814   2.831   5.102   6.699  0.0253  0.2097 -0.6328
   55c3c     C1  815   2.626   4.987   6.735 -0.4388 -0.1465 -0.1641
   55c3c     H1  816   2.831   4.981   6.949  0.9885  0.2188  2.4126
   55c3c     H1  817   2.673   5.025   6.998 -1.6263  1.6966 -1.0633
   55c3c     H1  818   2.660   5.285   6.713 -0.1105  1.6361  0.9146
   55c3c     H1  819   2.542   5.213   6.810  0.4873  0.4197 -1.3731
   55c3c     HC  820   2.903   5.195   6.943 -0.0817 -0.4703 -1.4380
   55c3c     HC  821   2.812   5.187   7.095  0.9495 -0.6881 -0.3886
   55c3c     HC  822   2.755   5.386   6.877 -0.4456  0.1404 -1.4313
   55c3c     HC  823   2.628   5.306   6.974  1.0852 -1.8962  0.7725
   55c3c     H1  824   2.879   5.006   6.682 -0.8598 -0.5123  0.8547
   55c3c     H1  825   2.797   5.142   6.604  0.7001  2.6941  0.1439
   55c3c     H1  826   2.921   5.155   6.728  0.7157 -1.3458  0.1093
   55c3c     H1  827   2.565   5.025   6.654  2.5889  1.3394 -1.8453
   55c3c     H1  828   2.696   4.912   6.697  0.0182 -0.5393  1.4257
   55c3c     C2  829   2.517   4.918   6.824  0.0898 -0.7952  0.2039
   55c3c     HC  830   2.454   4.985   6.881  0.3948  0.6697 -1.1519
   55c3c     HC  831   2.564   4.846   6.892 -1.3893 -2.4416 -0.4620
   55c3c     CT  832   2.418   4.834   6.746  0.4670 -0.3012  0.2065
   55c3c     HC  833   2.469   4.785   6.663  0.2598  0.1607 -0.1972
   55c3c     HC  834   2.339   4.896   6.704  0.1036 -0.6485  0.3655
   55c3c     HC  835   2.382   4.748   6.803  0.9670 -0.0653  0.8798
   56c3c     N4  836   4.135   5.841   6.435 -0.1555  0.1747  0.1008
   56c3c     C1  837   4.135   5.820   6.289 -0.6784  0.5373  0.2026
   56c3c     C1  838   4.040   5.743   6.489  0.5659  0.8100 -0.5490
   56c3c     C2  839   4.126   5.672   6.270 -0.0651 -0.4087 -0.1871
   56c3c     C2  840   4.060   5.619   6.396 -0.0679  0.4643  0.0850
   56c3c     C1  841   4.265   5.813   6.500  1.0911 -0.3168  0.3748
   56c3c     C1  842   4.101   5.976   6.481  0.7850  0.0087  0.6838
   56c3c     H1  843   4.216   5.873   6.238  0.7671 -0.0959  1.7982
   56c3c     H1  844   4.037   5.858   6.260  0.3011  3.2648  0.2504
   56c3c     H1  845   4.059   5.719   6.594  0.0293  0.9785 -0.4146
   56c3c     H1  846   3.937   5.780   6.492  0.0080 -0.8260  1.7247
   56c3c     HC  847   4.222   5.622   6.258  1.4362  2.3661 -0.0449
   56c3c     HC  848   4.072   5.649   6.178  3.1396 -2.5404 -1.6389
   56c3c     HC  849   4.132   5.543   6.429  0.7664  2.6253  3.4088
   56c3c     HC  850   3.970   5.564   6.369  0.7039 -0.8834  0.1679
   56c3c     H1  851   4.332   5.889   6.459  0.4746  0.7139  1.2716
   56c3c     H1  852   4.271   5.817   6.609 -1.3908  2.6450  0.4716
   56c3c     H1  853   4.281   5.707   6.478  0.3587 -0.2119 -0.6977
   56c3c     H1  854   4.101   5.981   6.590  1.6747  0.1904  0.6781
   56c3c     H1  855   4.180   6.044   6.449 -0.8694  2.2944  1.3292
   56c3c     C2  856   3.970   6.050   6.441 -0.5232 -0.3196 -0.0157
   56c3c     HC  857   3.877   6.006   6.478 -0.6950 -0.5175 -0.6769
   56c3c     HC  858   3.954   6.068   6.335 -0.0982 -2.1411 -0.4032
   56c3c     CT  859   3.974   6.190   6.503  0.1998 -0.3169 -0.2231
   56c3c     HC  860   3.887   6.247   6.471  0.4127 -0.5686 -1.2911
   56c3c     HC  861   4.066   6.239   6.469  0.0585 -1.9863 -3.1942
   56c3c     HC  862   3.977   6.184   6.612  2.7793  0.7025 -0.2128
   57c3c     N4  863   3.926   0.220   0.257 -0.2769  0.6743 -0.4389
   57c3c     C1  864   3.942   0.140   0.378  0.1344 -0.1514  0.2450
   57c3c     C1  865   3.901   0.354   0.311 -0.3112  0.0228 -0.0688
   57c3c     C2  866   4.019   0.227   0.475  0.1088 -0.2584  0.1299
   57c3c     C2  867   3.994   0.369   0.428 -0.6287  0.0436 -0.0291
   57c3c     C1  868   4.054   0.209   0.189 -0.3860  0.6506 -0.3089
   57c3c     C1  869   3.830   0.175   0.156 -0.8763  0.8309  0.5162
   57c3c     H1  870   3.993   0.050   0.346  2.3230  1.7416 -1.8236
   57c3c     H1  871   3.849   0.113   0.427  0.7005  0.0113  1.4186
   57c3c     H1  872   3.922   0.438   0.245  4.2263 -0.1567  0.9574
   57c3c     H1  873   3.798   0.371   0.340  0.1657  4.2807 -0.5012
   57c3c     HC  874   4.128   0.225   0.471  0.0726 -0.6279 -0.8093
   57c3c     HC  875   4.002   0.222   0.583 -2.2650 -0.8471 -0.2669
   57c3c     HC  876   4.087   0.422   0.407 -0.6491  0.7378  1.5119
   57c3c     HC  877   3.947   0.432   0.504  1.6492  0.2753  1.2414
   57c3c     H1  878   4.078   0.115   0.140 -2.5609  0.4175 -0.9640
   57c3c     H1  879   4.052   0.286   0.112 -1.0501  0.7254 -0.2237
   57c3c     H1  880   4.147   0.231   0.241 -0.2646 -1.1044  0.2439
   57c3c     H1  881   3.840   0.229   0.062  1.6304 -0.5483 -0.0625
   57c3c     H1  882   3.858   0.073   0.129 -1.7131  0.1265  2.2183
   57c3c     C2  883   3.678   0.188   0.181 -0.4922  0.0691  0.2095
   57c3c     HC  884   3.645   0.292   0.193  1.3067  0.4922  1.6505
   57c3c     HC  885   3.653   0.115   0.257  1.8792 -2.3426 -1.2711
   57c3c     CT  886   3.602   0.144   0.059 -0.1640 -0.7386  0.0518
   57c3c     HC  887   3.613   0.037   0.042 -1.8172 -1.0184  0.6774
   57c3c     HC  888   3.630   0.207  -0.026 -0.4404 -1.6332 -0.7053
   57c3c     HC  889   3.495   0.166   0.064 -0.4060 -1.8867  0.0337
   58c3c     N4  890   4.225   0.349   5.684 -0.3080  0.0241 -0.6241
   58c3c     C1  891   4.236   0.437   5.803 -0.0165  0.1268  0.3420
   58c3c     C1  892   4.101   0.277   5.696 -0.0715 -0.6861 -0.4195
   58c3c     C2  893   4.096   0.480   5.843  0.1432  0.1700  0.0263
   58c3c     C2  894   4.004   0.388   5.754 -0.0967 -0.7518  0.2583
   58c3c     C1  895   4.218   0.428   5.566  0.3066 -0.1287 -0.5825
   58c3c     C1  896   4.338   0.254   5.664 -0.1461  0.6993 -0.5591
   58c3c     H1  897   4.309   0.517   5.790  1.1078 -0.7772  0.9924
   58c3c     H1  898   4.280   0.378   5.884 -0.3040  0.0513  0.4443
   58c3c     H1  899   4.060   0.236   5.604 -1.2401 -1.2711  0.3446
   58c3c     H1  900   4.121   0.194   5.764  0.4721  0.9883  1.5016
   58c3c     HC  901   4.084   0.588   5.835  1.6359  0.5041  1.8369
   58c3c     HC  902   4.083   0.461   5.950  1.0765 -3.6615 -0.4774
   58c3c     HC  903   3.971   0.440   5.664 -0.1036  0.8578  1.1611
   58c3c     HC  904   3.914   0.362   5.810 -0.1113 -1.0697  0.0885
   58c3c     H1  905   4.318   0.466   5.549  0.2030  1.5368  2.1691
   58c3c     H1  906   4.192   0.369   5.478 -0.1376 -1.7177  0.6028
   58c3c     H1  907   4.146   0.510   5.567  0.0002 -0.3840 -1.1294
   58c3c     H1  908   4.322   0.212   5.564 -0.3062  1.3882 -0.8256
   58c3c     H1  909   4.420   0.325   5.660 -1.1967  1.9506 -0.3716
   58c3c     C2  910   4.382   0.155   5.775  0.8844 -0.1118 -0.0327
   58c3c     HC  911   4.290   0.100   5.799  0.2796  0.6936 -0.4771
   58c3c     HC  912   4.420   0.209   5.862  1.8888  0.0900 -0.5948
   58c3c     CT  913   4.481   0.046   5.728 -0.4623  0.0226  0.5071
   58c3c     HC  914   4.572   0.095   5.691 -1.6825  1.2105 -0.9546
   58c3c     HC  915   4.435  -0.022   5.658 -0.5893  1.4037 -0.7677
   58c3c     HC  916   4.514  -0.011   5.815  1.3831  0.6197  0.2258
   59c3c     N4  917   3.108   4.693   1.391  0.0066 -0.1199  0.1733
   59c3c     C1  918   3.158   4.623   1.271  0.4734  0.0864 -0.5194
   59c3c     C1  919   3.025   4.800   1.340  0.5876 -0.2184  0.6839
   59c3c     C2  920   3.053   4.632   1.162 -0.2396  1.2603  0.2010
   59c3c     C2  921   2.959   4.740   1.212 -0.4127  0.6490  0.6485
   59c3c     C1  922   3.021   4.604   1.472 -0.0847 -0.3836 -0.1951
   59c3c     C1  923   3.208   4.733   1.483 -0.5641 -0.0425 -0.0264
   59c3c     H1  924   3.182   4.519   1.293 -1.5388 -0.9135 -2.9132
   59c3c     H1  925   3.243   4.677   1.231  0.1547  0.9252 -0.0728
   59c3c     H1  926   2.944   4.832   1.405 -0.6680 -0.7425 -0.5856
   59c3c     H1  927   3.082   4.889   1.314 -0.9068  1.4322  2.8977
   59c3c     HC  928   3.004   4.536   1.152  1.6513  0.4231 -1.3083
   59c3c     HC  929   3.105   4.659   1.070 -0.5508  0.9596 -0.0648
   59c3c     HC  930   2.859   4.715   1.246 -0.0704 -2.2494 -0.3753
   59c3c     HC  931   2.959   4.822   1.140 -0.8397  1.3060  1.3878
   59c3c     H1  932   3.070   4.514   1.508  2.1902  1.1081  0.5281
   59c3c     H1  933   2.978   4.649   1.561 -0.3197  1.1417 -1.0607
   59c3c     H1  934   2.933   4.565   1.420 -0.5178 -0.5940  0.6818
   59c3c     H1  935   3.157   4.801   1.550 -0.4724 -0.9360  0.9561
   59c3c     H1  936   3.245   4.655   1.549 -0.6313 -0.3585 -0.3579
   59c3c     C2  937   3.330   4.804   1.416 -0.3239  0.3778  0.5202
   59c3c     HC  938   3.305   4.884   1.346  0.0106  1.3977  1.5461
   59c3c     HC  939   3.388   4.736   1.354  1.9128  3.1309 -0.5030
   59c3c     CT  940   3.421   4.863   1.528 -0.1371  0.1426  0.8431
   59c3c     HC  941   3.444   4.791   1.607 -0.4550  0.1905  0.9789
   59c3c     HC  942   3.365   4.944   1.575  0.5038  2.1378 -1.7253
   59c3c     HC  943   3.516   4.899   1.488 -0.0310 -0.3759  0.6304
   60c3c     N4  944   2.951   1.206   5.613 -0.1197  0.1654  0.2690
   60c3c     C1  945   2.951   1.180   5.467 -0.2497 -0.4817 -0.2399
   60c3c     C1  946   2.803   1.218   5.629 -0.0484 -0.1039  0.1094
   60c3c     C2  947   2.837   1.078   5.440  0.3716  0.3326  0.2244
   60c3c     C2  948   2.740   1.111   5.546  0.2915  0.3814 -0.1256
   60c3c     C1  949   3.000   1.085   5.684  0.6504 -0.6174  0.4473
   60c3c     C1  950   3.026   1.323   5.661  0.3214  0.1176  0.5827
   60c3c     H1  951   3.042   1.136   5.426  0.1743 -0.7030  0.9262
   60c3c     H1  952   2.944   1.275   5.414  1.0228  1.2883  2.6871
   60c3c     H1  953   2.769   1.224   5.733  0.2184 -0.8800  0.2454
   60c3c     H1  954   2.767   1.310   5.583 -1.1454  0.2088  1.5333
   60c3c     HC  955   2.866   0.974   5.456  2.4047  0.4304 -2.4869
   60c3c     HC  956   2.786   1.074   5.344  0.8823 -1.6116  0.0082
   60c3c     HC  957   2.724   1.027   5.614 -1.0593 -0.9019 -1.9730
   60c3c     HC  958   2.643   1.142   5.508  0.2364  0.5589  0.1570
   60c3c     H1  959   3.107   1.068   5.672  1.1385  3.0309 -1.2178
   60c3c     H1  960   2.963   1.088   5.787 -0.8830  0.2526 -0.1147
   60c3c     H1  961   2.958   0.995   5.639 -1.2763  0.5260 -0.0732
   60c3c     H1  962   3.019   1.320   5.769  0.7703 -0.2174  0.6014
   60c3c     H1  963   3.130   1.317   5.629 -0.7229 -1.1719 -2.8743
   60c3c     C2  964   2.983   1.464   5.608  0.1990  0.8666  1.1381
   60c3c     HC  965   2.880   1.490   5.632 -0.1115  1.1235 -0.4754
   60c3c     HC  966   2.991   1.474   5.500  0.5069  0.7711  1.1522
   60c3c     CT  967   3.064   1.570   5.675 -0.1974  0.6390 -0.2785
   60c3c     HC  968   3.168   1.568   5.643 -0.2050 -1.5488 -0.2004
   60c3c     HC  969   3.068   1.548   5.782 -2.0623 -2.0836 -0.7317
   60c3c     HC  970   3.031   1.673   5.660  3.1239  1.9355  0.9300
   61c3c     N4  971   3.288   5.898   0.824  0.5303  1.3589 -0.3891
   61c3c     C1  972   3.274   6.001   0.926  0.0829  0.2765 -0.6857
   61c3c     C1  973   3.175   5.926   0.736 -0.8851  0.0384  0.2133
   61c3c     C2  974   3.225   6.127   0.848  0.6330  0.1962  0.5356
   61c3c     C2  975   3.184   6.068   0.710 -0.8760 -0.1232  0.5047
   61c3c     C1  976   3.411   5.916   0.753 -1.1211 -0.4607 -0.2846
   61c3c     C1  977   3.300   5.755   0.866  1.3484  0.9246  0.0393
   61c3c     H1  978   3.370   6.015   0.976 -0.2734 -0.3254  0.1906
   61c3c     H1  979   3.193   5.973   0.995 -0.0321 -2.5234 -1.8662
   61c3c     H1  980   3.184   5.865   0.647  2.8768 -0.3999  0.7808
   61c3c     H1  981   3.080   5.897   0.781 -1.2205 -2.1211 -1.7871
   61c3c     HC  982   3.303   6.202   0.835  0.2781  0.0418 -2.6812
   61c3c     HC  983   3.151   6.174   0.913 -0.4558 -0.3227 -0.3301
   61c3c     HC  984   3.265   6.091   0.641 -0.7830  3.5622  1.7038
   61c3c     HC  985   3.090   6.112   0.676  0.7976  2.0714 -1.4687
   61c3c     H1  986   3.495   5.888   0.817 -0.0943 -0.0449 -1.4340
   61c3c     H1  987   3.405   5.851   0.665  1.4501  1.9363 -2.3106
   61c3c     H1  988   3.439   6.016   0.719  1.5047 -1.3086 -0.7243
   61c3c     H1  989   3.313   5.690   0.780  3.3072  2.5970 -0.9722
   61c3c     H1  990   3.381   5.745   0.938 -0.5108  1.7550  2.3175
   61c3c     C2  991   3.179   5.711   0.948 -0.0748 -0.1640  0.7856
   61c3c     HC  992   3.084   5.734   0.902  0.2244 -0.5066 -0.0041
   61c3c     HC  993   3.181   5.770   1.040 -2.8907  1.2205  0.0012
   61c3c     CT  994   3.183   5.558   0.977  0.1064 -0.4279 -0.5458
   61c3c     HC  995   3.277   5.536   1.030 -1.5030  0.5181  2.8649
   61c3c     HC  996   3.178   5.509   0.880 -0.7397 -0.0378 -0.6985
   61c3c     HC  997   3.092   5.531   1.031 -0.6946  0.7510 -1.3072
   62c3c     N4  998   3.751   3.478   2.737  0.3696  0.1071  0.1821
   62c3c     C1  999   3.605   3.448   2.727 -0.0291  0.4643  0.4640
   62c3c     C1 1000   3.764   3.602   2.659  0.0500  0.4060 -0.5189
   62c3c     C2 1001   3.533   3.581   2.742 -0.0820 -0.0670  0.2371
   62c3c     C2 1002   3.644   3.683   2.696 -0.4100  0.9360 -0.1931
   62c3c     C1 1003   3.781   3.489   2.880  0.5186 -0.3273 -0.1631
   62c3c     C1 1004   3.835   3.373   2.679  0.1096  0.2110  0.1694
   62c3c     H1 1005   3.569   3.383   2.807  1.0056 -0.5837  0.1087
   62c3c     H1 1006   3.575   3.408   2.631 -0.0965  1.7893 -0.0601
   62c3c     H1 1007   3.860   3.643   2.690 -0.8882  1.3876  1.1698
   62c3c     H1 1008   3.770   3.596   2.550 -1.6175  1.4578 -0.6815
   62c3c     HC 1009   3.506   3.604   2.844 -1.1423  1.5872 -0.4020
   62c3c     HC 1010   3.448   3.584   2.674  0.0383 -0.8678  0.0492
   62c3c     HC 1011   3.662   3.744   2.785  0.5779  2.1785 -1.2242
   62c3c     HC 1012   3.616   3.743   2.609  1.5083  1.9915 -0.1092
   62c3c     H1 1013   3.787   3.394   2.933  0.1128 -0.7796 -0.9187
   62c3c     H1 1014   3.882   3.528   2.893 -0.0089  1.1330 -0.3224
   62c3c     H1 1015   3.714   3.557   2.934  0.5781 -0.3107 -0.1097
   62c3c     H1 1016   3.934   3.415   2.664  0.1720 -0.2058 -0.5732
   62c3c     H1 1017   3.844   3.285   2.742  0.3127 -0.0190 -0.1822
   62c3c     C2 1018   3.799   3.310   2.543 -0.4662  0.0729  0.0784
   62c3c     HC 1019   3.771   3.382   2.465  0.4104 -2.4194 -2.6407
   62c3c     HC 1020   3.709   3.250   2.554  0.3424 -0.9886  0.9519
   62c3c     CT 1021   3.915   3.229   2.486 -0.1651 -0.2619 -0.1292
   62c3c     HC 1022   3.918   3.136   2.542  0.8504  0.6634  1.3699
   62c3c     HC 1023   4.009   3.283   2.495 -0.7245  0.5571  0.8586
   62c3c     HC 1024   3.900   3.198   2.382  2.5503 -2.1734  0.0039
   63c3c     N4 1025   3.774   3.788   2.058  0.3423  0.3393 -0.3317
   63c3c     C1 1026   3.810   3.740   1.922  0.3688  0.6442 -0.4560
   63c3c     C1 1027   3.845   3.918   2.059 -0.2662 -0.3257 -0.3570
   63c3c     C2 1028   3.799   3.868   1.831 -0.3103  0.1094 -0.2776
   63c3c     C2 1029   3.819   3.984   1.925 -0.1302 -0.1899  0.2453
   63c3c     C1 1030   3.624   3.809   2.059 -0.2141  0.3781 -0.3128
   63c3c     C1 1031   3.810   3.687   2.158  0.2360 -0.3031 -0.2058
   63c3c     H1 1032   3.746   3.661   1.884  1.4419 -0.7028  0.4533
   63c3c     H1 1033   3.913   3.705   1.914  0.2840 -0.1437  1.4601
   63c3c     H1 1034   3.816   3.982   2.142 -1.3172 -0.8442 -0.3175
   63c3c     H1 1035   3.953   3.899   2.064 -0.3642 -1.0707 -0.8732
   63c3c     HC 1036   3.701   3.865   1.783 -1.3509  1.8512  1.6418
   63c3c     HC 1037   3.885   3.863   1.763  0.8772 -1.2788  1.2968
   63c3c     HC 1038   3.736   4.054   1.920 -0.2126 -0.2976  0.0801
   63c3c     HC 1039   3.909   4.039   1.896  1.9106 -3.4441  0.0761
   63c3c     H1 1040   3.567   3.717   2.062  2.0719 -1.2157 -2.9258
   63c3c     H1 1041   3.599   3.877   2.141 -0.9075  0.7549 -0.8333
   63c3c     H1 1042   3.588   3.862   1.970 -1.1982  1.8064  0.9103
   63c3c     H1 1043   3.774   3.719   2.256 -0.3303  3.0403 -1.4112
   63c3c     H1 1044   3.765   3.589   2.145 -0.2246 -0.3637  1.6174
   63c3c     C2 1045   3.962   3.654   2.171 -0.0411  0.0353 -0.1614
   63c3c     HC 1046   4.011   3.749   2.192 -1.9255  0.6908  1.4396
   63c3c     HC 1047   3.994   3.608   2.078  1.6083 -1.4030  1.0753
   63c3c     CT 1048   3.992   3.554   2.291  0.0697 -0.3334 -0.5557
   63c3c     HC 1049   4.086   3.499   2.295  0.0870 -0.1379  2.8818
   63c3c     HC 1050   3.914   3.478   2.292  2.0025 -2.3710  0.6718
   63c3c     HC 1051   3.990   3.613   2.383  2.2353  1.4406 -1.5955
   64c3c     N4 1052   2.298   5.572   6.944 -0.1263  0.4360  0.0624
   64c3c     C1 1053   2.420   5.557   6.875 -0.5693  0.1687  0.5278
   64c3c     C1 1054   2.337   5.612   7.079  0.0740 -0.8931  1.1165
   64c3c     C2 1055   2.511   5.666   6.945  0.3425  0.4247  0.9083
   64c3c     C2 1056   2.449   5.708   7.073 -0.3533  0.0198  0.3432
   64c3c     C1 1057   2.217   5.674   6.879  0.1785 -0.3882 -0.2574
   64c3c     C1 1058   2.220   5.444   6.927  0.1026  0.9747 -0.3309
   64c3c     H1 1059   2.419   5.576   6.767 -1.1116  1.8480  0.8051
   64c3c     H1 1060   2.457   5.456   6.889  1.6817  0.7596 -0.8089
   64c3c     H1 1061   2.254   5.651   7.138  0.7672  0.0419  1.4891
   64c3c     H1 1062   2.380   5.524   7.126  1.1672 -0.1675  1.4870
   64c3c     HC 1063   2.529   5.752   6.879  0.8451 -0.3589  0.0002
   64c3c     HC 1064   2.606   5.617   6.970  0.2348  0.0121  0.5115
   64c3c     HC 1065   2.423   5.813   7.062  3.0344  0.7935 -0.8153
   64c3c     HC 1066   2.523   5.708   7.153  1.3269  0.7740 -1.1829
   64c3c     H1 1067   2.193   5.653   6.774 -2.7936  2.9455 -0.3329
   64c3c     H1 1068   2.124   5.678   6.935  2.0512 -1.6762  3.0581
   64c3c     H1 1069   2.263   5.773   6.874  1.9680 -1.2041 -0.1825
   64c3c     H1 1070   2.119   5.459   6.965  0.6463  3.2061  0.3002
   64c3c     H1 1071   2.208   5.428   6.820 -0.1421 -0.1335 -0.1404
   64c3c     C2 1072   2.264   5.312   6.989 -0.8623  0.6650  0.4212
   64c3c     HC 1073   2.273   5.333   7.096 -1.0340 -1.6348  0.8947
   64c3c     HC 1074   2.356   5.273   6.946 -0.6535  0.3839  1.1121
   64c3c     CT 1075   2.163   5.198   6.983  0.5836 -0.0762  0.0227
   64c3c     HC 1076   2.141   5.174   6.878 -0.1288 -0.2714  0.2104
   64c3c     HC 1077   2.071   5.235   7.029 -0.3074  0.9292 -2.4709
   64c3c     HC 1078   2.186   5.103   7.031 -2.0220 -0.6271  0.3022
   65c3c     N4 1079   3.043   4.027   1.076  0.1481 -0.0305 -0.0639
   65c3c     C1 1080   3.021   4.166   1.124  0.3439  0.8885 -0.3447
   65c3c     C1 1081   2.944   4.009   0.973 -0.4190 -0.3300  1.1809
   65c3c     C2 1082   2.981   4.242   0.998 -0.0537 -0.3721  0.0475
   65c3c     C2 1083   2.956   4.135   0.884  0.4266  0.1506 -0.0069
   65c3c     C1 1084   3.175   4.021   1.019 -0.1073  0.8106 -0.3618
   65c3c     C1 1085   3.030   3.918   1.178 -0.1279 -0.9933 -0.1716
   65c3c     H1 1086   3.114   4.201   1.168 -0.0369  0.4988  0.7884
   65c3c     H1 1087   2.940   4.167   1.197  0.0703 -0.3170 -0.6074
   65c3c     H1 1088   2.957   3.917   0.917  1.4637 -0.0703  1.1880
   65c3c     H1 1089   2.840   4.009   1.007  0.3258 -0.6873  3.6050
   65c3c     HC 1090   3.060   4.308   0.962  0.1538 -0.5961  0.0958
   65c3c     HC 1091   2.890   4.301   1.015  0.2294  0.7634 -2.1502
   65c3c     HC 1092   3.039   4.128   0.814  0.2966 -1.3635 -0.0160
   65c3c     HC 1093   2.868   4.164   0.827  1.5919 -0.3816 -2.1247
   65c3c     H1 1094   3.259   4.034   1.087  0.0302 -1.0716 -0.1641
   65c3c     H1 1095   3.203   3.927   0.971  2.4755  1.7597 -0.8153
   65c3c     H1 1096   3.197   4.105   0.953 -0.9135  1.4479  0.1718
   65c3c     H1 1097   3.052   3.820   1.136 -3.5525 -1.8944 -0.0294
   65c3c     H1 1098   3.106   3.932   1.255 -0.3685  1.7689 -0.3566
   65c3c     C2 1099   2.908   3.913   1.267 -0.0873  0.2936 -0.2545
   65c3c     HC 1100   2.824   3.894   1.200 -0.8765  1.0192  0.5104
   65c3c     HC 1101   2.893   4.003   1.327 -0.8148 -0.5531  0.8408
   65c3c     CT 1102   2.907   3.810   1.378  0.1301  0.3483 -0.0214
   65c3c     HC 1103   2.999   3.804   1.436  0.1323 -0.4217 -0.0992
   65c3c     HC 1104   2.893   3.715   1.328  1.9358  0.2284 -0.3357
   65c3c     HC 1105   2.836   3.826   1.459 -0.4478 -1.0301 -0.2469
   66c3c     N4 1106   3.366   5.578   6.868  0.9229 -0.2641  0.0596
   66c3c     C1 1107   3.368   5.567   6.725 -0.3524 -0.6261  0.5478
   66c3c     C1 1108   3.373   5.723   6.886 -0.2471  0.8575 -0.2964
   66c3c     C2 1109   3.285   5.681   6.675 -1.0218 -0.6211 -0.0334
   66c3c     C2 1110   3.289   5.784   6.778  0.5616 -0.5192  0.0856
   66c3c     C1 1111   3.244   5.514   6.919 -0.4112  0.5086 -0.5938
   66c3c     C1 1112   3.468   5.505   6.935 -0.2322  0.0117 -0.3903
   66c3c     H1 1113   3.328   5.471   6.693 -0.3975 -0.6958  0.8144
   66c3c     H1 1114   3.467   5.578   6.681 -1.2879 -1.3588 -1.8077
   66c3c     H1 1115   3.338   5.754   6.984  2.9700  1.3799  0.7606
   66c3c     H1 1116   3.481   5.736   6.879 -0.3458  1.3971 -0.9845
   66c3c     HC 1117   3.183   5.649   6.656 -0.3127 -2.4866 -0.8287
   66c3c     HC 1118   3.318   5.711   6.575  0.3442 -0.6866  0.3798
   66c3c     HC 1119   3.188   5.809   6.811  0.8805 -1.6249  1.9556
   66c3c     HC 1120   3.327   5.881   6.744  2.7390 -0.5749  2.2159
   66c3c     H1 1121   3.222   5.413   6.884  1.6105  0.2699 -1.2276
   66c3c     H1 1122   3.244   5.504   7.027  1.9961  2.8815 -0.3250
   66c3c     H1 1123   3.143   5.552   6.898 -1.3966 -0.1021  2.7566
   66c3c     H1 1124   3.473   5.525   7.042  3.3968 -1.2371 -0.2556
   66c3c     H1 1125   3.450   5.398   6.939 -2.8922  0.4471  0.7111
   66c3c     C2 1126   3.610   5.516   6.882  0.3951  0.2288 -0.7478
   66c3c     HC 1127   3.630   5.606   6.825  1.7280 -0.1534 -0.9055
   66c3c     HC 1128   3.615   5.452   6.794 -1.0079  1.6423 -1.8827
   66c3c     CT 1129   3.721   5.475   6.982  0.6763 -0.3562  0.3123
   66c3c     HC 1130   3.690   5.499   7.084 -0.1385 -1.7898  0.4265
   66c3c     HC 1131   3.814   5.529   6.965 -0.1801  1.1752  0.4388
   66c3c     HC 1132   3.756   5.371   6.982  0.6805 -0.3661 -1.3270
   67c3c     N4 1133   4.575   0.990   6.548  0.8658  0.1349 -0.0252
   67c3c     C1 1134   4.465   0.897   6.534  0.1659 -0.4104  0.4385
   67c3c     C1 1135   4.576   1.053   6.418 -0.2713 -0.3858 -0.1150
   67c3c     C2 1136   4.351   0.969   6.456  0.3246  0.0081 -0.3655
   67c3c     C2 1137   4.431   1.063   6.365 -0.0771 -0.4042 -0.5114
   67c3c     C1 1138   4.539   1.094   6.644 -0.5628 -0.6681  0.3075
   67c3c     C1 1139   4.704   0.924   6.593 -0.4168 -0.0118 -0.3162
   67c3c     H1 1140   4.420   0.859   6.627 -2.7491  2.3135  0.2298
   67c3c     H1 1141   4.486   0.804   6.481 -2.7584 -0.2631 -1.0816
   67c3c     H1 1142   4.630   1.148   6.411 -1.5530  0.4367  1.0028
   67c3c     H1 1143   4.626   0.979   6.355 -0.5742  0.2474 -1.1250
   67c3c     HC 1144   4.282   1.022   6.521 -0.1691 -0.3259 -0.6180
   67c3c     HC 1145   4.288   0.895   6.407  0.7043 -1.6282  1.5421
   67c3c     HC 1146   4.388   1.163   6.367  3.2223  1.0619 -1.0003
   67c3c     HC 1147   4.419   1.023   6.265  1.5844  0.6061 -1.1246
   67c3c     H1 1148   4.539   1.064   6.749  2.4579 -1.8449  0.0156
   67c3c     H1 1149   4.604   1.181   6.636 -1.3333  0.0856  2.0543
   67c3c     H1 1150   4.436   1.127   6.629  0.2019  1.5884 -0.0709
   67c3c     H1 1151   4.781   1.002   6.598 -2.1465  1.6700  0.5482
   67c3c     H1 1152   4.692   0.882   6.693  0.8578 -1.6201 -0.8195
   67c3c     C2 1153   4.752   0.815   6.503 -0.3458  0.5585  0.8968
   67c3c     HC 1154   4.789   0.852   6.407 -0.9420 -0.0086  0.4456
   67c3c     HC 1155   4.677   0.738   6.483 -1.1511  1.6266 -0.2546
   67c3c     CT 1156   4.869   0.731   6.546 -0.5306 -0.2854  0.2625
   67c3c     HC 1157   4.946   0.801   6.580  1.1009 -1.6838 -0.4845
   67c3c     HC 1158   4.902   0.672   6.461 -0.5552  0.7692 -0.5004
   67c3c     HC 1159   4.850   0.661   6.627  1.3923  0.2113  1.1677
   68c3c     N4 1160   4.141   0.253   6.509  0.1476 -0.3150 -0.4198
   68c3c     C1 1161   4.036   0.154   6.528 -0.0445  0.5620 -0.1945
   68c3c     C1 1162   4.062   0.367   6.461  0.5827 -0.2850  0.3841
   68c3c     C2 1163   3.912   0.218   6.585 -0.1540 -0.9041 -0.2844
   68c3c     C2 1164   3.922   0.362   6.531 -0.3063 -0.5278  0.0868
   68c3c     C1 1165   4.195   0.279   6.644  0.5345  0.6595 -0.4183
   68c3c     C1 1166   4.257   0.215   6.414  0.2488  0.4234 -0.1383
   68c3c     H1 1167   4.060   0.072   6.596 -1.8585  0.8039  0.7653
   68c3c     H1 1168   4.002   0.117   6.431  1.7866  0.7660 -0.9313
   68c3c     H1 1169   4.111   0.463   6.476 -0.3501  0.1880  0.4607
   68c3c     H1 1170   4.042   0.376   6.355 -1.3582  2.4979  0.9428
   68c3c     HC 1171   3.909   0.208   6.694 -1.6298 -0.2742 -0.2497
   68c3c     HC 1172   3.819   0.180   6.542  0.1677  0.3239 -2.1191
   68c3c     HC 1173   3.912   0.434   6.611  1.5285  0.0918 -0.2158
   68c3c     HC 1174   3.846   0.378   6.454  2.4171 -3.9889 -3.5311
   68c3c     H1 1175   4.226   0.184   6.687 -0.7538 -0.1262 -1.2065
   68c3c     H1 1176   4.279   0.349   6.635 -0.5117  1.9944 -0.0788
   68c3c     H1 1177   4.122   0.329   6.707  0.6795  2.3703 -1.5724
   68c3c     H1 1178   4.313   0.305   6.392  1.3273 -0.3557 -0.6607
   68c3c     H1 1179   4.315   0.143   6.472  1.1482 -0.2602 -1.8384
   68c3c     C2 1180   4.208   0.147   6.277 -0.5143 -0.1310 -0.5168
   68c3c     HC 1181   4.128   0.203   6.228  0.3654  1.5750 -0.0232
   68c3c     HC 1182   4.175   0.044   6.293  0.5769 -0.5776 -1.0720
   68c3c     CT 1183   4.317   0.132   6.173 -0.2747 -0.6199  1.0010
   68c3c     HC 1184   4.263   0.089   6.089 -2.1603  0.4455  1.6505
   68c3c     HC 1185   4.406   0.076   6.204 -0.7287 -0.0975  3.3238
   68c3c     HC 1186   4.355   0.228   6.139  1.1831 -0.9675  1.5919
   69c3c     N4 1187   2.606   0.187   6.279  0.2130 -0.8601 -0.3268
   69c3c     C1 1188   2.593   0.260   6.151  0.7458 -0.9197 -0.2202
   69c3c     C1 1189   2.675   0.285   6.367 -0.4128  0.0082 -0.2544
   69c3c     C2 1190   2.567   0.415   6.194  0.6223 -0.1793 -0.8048
   69c3c     C2 1191   2.630   0.433   6.333  0.3030 -0.0858 -0.2757
   69c3c     C1 1192   2.468   0.174   6.338  0.8128  0.0570 -0.2735
   69c3c     C1 1193   2.677   0.055   6.258  0.8455  0.1059 -0.0584
   69c3c     H1 1194   2.517   0.217   6.086  0.3839 -2.5758  1.2515
   69c3c     H1 1195   2.692   0.264   6.104  0.4771  0.2814 -0.6808
   69c3c     H1 1196   2.661   0.263   6.472  0.8880 -0.9295 -0.2623
   69c3c     H1 1197   2.781   0.288   6.342 -0.3510  0.7679  0.1046
   69c3c     HC 1198   2.458   0.422   6.202  0.6938  0.9395 -0.7343
   69c3c     HC 1199   2.609   0.480   6.117  0.0184  0.4033 -0.6521
   69c3c     HC 1200   2.557   0.473   6.403 -0.0289  0.6819 -1.0519
   69c3c     HC 1201   2.714   0.502   6.344 -0.2974  0.7425 -0.9095
   69c3c     H1 1202   2.415   0.100   6.278 -1.0523  0.7754  0.4463
   69c3c     H1 1203   2.475   0.124   6.435  1.2227 -0.8860 -0.7816
   69c3c     H1 1204   2.407   0.262   6.356  0.7837 -0.0379  0.1050
   69c3c     H1 1205   2.674  -0.011   6.345 -0.1986 -0.5272 -0.5645
   69c3c     H1 1206   2.618   0.002   6.184  0.0889 -0.7385  1.1246
   69c3c     C2 1207   2.825   0.059   6.220 -0.3390 -0.3324 -1.0527
   69c3c     HC 1208   2.886   0.100   6.301 -0.7319 -1.7968 -0.0045
   69c3c     HC 1209   2.841   0.119   6.130  0.3289  0.7882 -0.2020
   69c3c     CT 1210   2.872  -0.079   6.166  0.2948  0.0494  0.6271
   69c3c     HC 1211   2.817  -0.121   6.082  0.0593  1.0365  0.2910
   69c3c     HC 1212   2.854  -0.159   6.239 -1.5929  0.1221  0.2674
   69c3c     HC 1213   2.976  -0.073   6.135  0.1915  0.6790  0.4107
   70c3c     N4 1214   3.928   6.732   6.456  0.4213  0.7661 -0.5024
   70c3c     C1 1215   3.966   6.654   6.578 -0.8162 -0.1544  0.0103
   70c3c     C1 1216   4.011   6.854   6.461  0.8248  0.5577  0.4660
   70c3c     C2 1217   4.114   6.692   6.605  0.9462  0.1695 -0.8908
   70c3c     C2 1218   4.146   6.818   6.518 -0.2186  0.2082  0.2831
   70c3c     C1 1219   3.982   6.662   6.338 -0.7037  1.2180  0.2097
   70c3c     C1 1220   3.784   6.752   6.441  0.0282  0.1069  0.1604
   70c3c     H1 1221   3.945   6.547   6.584  0.8782 -0.4495  0.9096
   70c3c     H1 1222   3.911   6.699   6.660  0.5703  0.3597  0.6682
   70c3c     H1 1223   4.008   6.918   6.373 -2.0156  0.3983  0.4167
   70c3c     H1 1224   3.961   6.924   6.528 -2.6586 -1.9530  0.6521
   70c3c     HC 1225   4.176   6.608   6.573  1.6127 -0.5365  2.1075
   70c3c     HC 1226   4.147   6.712   6.706  1.2472  0.0975 -0.9743
   70c3c     HC 1227   4.222   6.785   6.446  1.4781 -1.6572  2.8361
   70c3c     HC 1228   4.191   6.894   6.582 -0.8338  0.9567 -0.1687
   70c3c     H1 1229   3.937   6.562   6.340 -0.7700  1.2687  1.4942
   70c3c     H1 1230   3.961   6.716   6.246 -3.4541  2.1589  1.3294
   70c3c     H1 1231   4.087   6.635   6.345 -1.1790 -0.4738  1.0965
   70c3c     H1 1232   3.755   6.811   6.354  0.4386  0.4536  0.2534
   70c3c     H1 1233   3.747   6.651   6.423  0.7001  0.0595 -1.0466
   70c3c     C2 1234   3.704   6.815   6.563 -0.3928 -0.0082 -0.0155
   70c3c     HC 1235   3.718   6.918   6.595 -1.6925  0.4945 -0.9780
   70c3c     HC 1236   3.706   6.751   6.651  0.2499  2.3343  1.7103
   70c3c     CT 1237   3.561   6.818   6.521  0.5950  0.4509  0.1804
   70c3c     HC 1238   3.517   6.719   6.530  0.2112  0.7967  2.4643
   70c3c     HC 1239   3.555   6.852   6.418 -0.3593 -2.4091 -0.7470
   70c3c     HC 1240   3.502   6.882   6.587  0.4124  1.6787 -1.1621
   71c3c     N4 1241   3.407   3.105   2.373  0.3808 -0.4684 -0.2331
   71c3c     C1 1242   3.320   3.141   2.262 -0.3215  0.1388  0.2423
   71c3c     C1 1243   3.366   2.965   2.406  0.1131 -0.8508  0.0621
   71c3c     C2 1244   3.307   3.011   2.179  0.0324 -0.1650 -0.2174
   71c3c     C2 1245   3.348   2.893   2.272  0.0372  0.1439  0.1025
   71c3c     C1 1246   3.547   3.103   2.333  0.1310  0.1537  0.6254
   71c3c     C1 1247   3.400   3.201   2.485 -0.0362  0.6516 -0.2974
   71c3c     H1 1248   3.342   3.236   2.213 -0.8939  0.4397  0.5522
   71c3c     H1 1249   3.221   3.157   2.306 -0.2849 -0.9161  0.7203
   71c3c     H1 1250   3.422   2.906   2.479 -2.2335 -1.1684  1.6741
   71c3c     H1 1251   3.268   2.976   2.454  0.3596 -0.5542  0.5070
   71c3c     HC 1252   3.374   3.019   2.094  0.1269  3.0923  0.0952
   71c3c     HC 1253   3.208   2.989   2.140  0.7212 -0.3739 -1.8530
   71c3c     HC 1254   3.437   2.841   2.238 -0.9279 -1.2539 -0.3435
   71c3c     HC 1255   3.270   2.817   2.282  0.6708 -0.5804 -0.3297
   71c3c     H1 1256   3.578   3.201   2.297 -1.6975  0.4991 -0.0774
   71c3c     H1 1257   3.615   3.082   2.416 -0.7677  0.3541  1.4290
   71c3c     H1 1258   3.581   3.032   2.257  1.1675 -0.1870  1.3963
   71c3c     H1 1259   3.470   3.179   2.566 -0.8383  2.1882  0.8368
   71c3c     H1 1260   3.433   3.301   2.457 -0.5239  0.9483  0.1665
   71c3c     C2 1261   3.258   3.235   2.544 -0.3400  0.2478 -1.2217
   71c3c     HC 1262   3.199   3.149   2.575 -1.7089  0.6249 -2.6735
   71c3c     HC 1263   3.194   3.285   2.471 -0.4678  1.4265 -0.3259
   71c3c     CT 1264   3.269   3.323   2.667 -0.9530  0.0051  0.0555
   71c3c     HC 1265   3.175   3.334   2.721 -1.6344 -0.0718 -1.0815
   71c3c     HC 1266   3.280   3.429   2.643  1.4529  0.0259  1.1401
   71c3c     HC 1267   3.347   3.294   2.737 -1.3367  2.6799  1.6306
   72c3c     N4 1268   4.389   6.355   7.227 -0.1195  0.6575  0.0581
   72c3c     C1 1269   4.264   6.406   7.289 -0.5464  0.2227  0.0387
   72c3c     C1 1270   4.425   6.452   7.125 -0.7164  0.1993  0.2629
   72c3c     C2 1271   4.293   6.559   7.315  0.0542  1.4187 -0.5025
   72c3c     C2 1272   4.395   6.586   7.200  0.4457  0.5403  0.1207
   72c3c     C1 1273   4.504   6.332   7.331  0.4727  0.4907  0.1317
   72c3c     C1 1274   4.381   6.225   7.145  0.7140 -0.2889  0.1112
   72c3c     H1 1275   4.237   6.345   7.376  3.4398  0.2835  1.4643
   72c3c     H1 1276   4.183   6.413   7.217  0.5836  1.6489 -1.1210
   72c3c     H1 1277   4.530   6.441   7.100 -0.5581  0.2672  0.8886
   72c3c     H1 1278   4.362   6.448   7.036  1.8706  0.0931 -1.6247
   72c3c     HC 1279   4.325   6.574   7.418  0.6262 -2.0645 -0.0886
   72c3c     HC 1280   4.196   6.604   7.293 -2.9763 -3.2171  2.3427
   72c3c     HC 1281   4.480   6.644   7.237  0.3104  0.4021  0.6576
   72c3c     HC 1282   4.353   6.659   7.132  0.6555 -0.8076 -1.4781
   72c3c     H1 1283   4.475   6.242   7.385 -1.3825  0.4696 -0.8865
   72c3c     H1 1284   4.607   6.317   7.298  0.3548  0.2631 -0.1397
   72c3c     H1 1285   4.510   6.407   7.410 -2.0434  0.5637  0.2878
   72c3c     H1 1286   4.467   6.215   7.079 -0.3504 -1.8783 -1.0823
   72c3c     H1 1287   4.396   6.140   7.211  2.7784  0.5553  0.7736
   72c3c     C2 1288   4.248   6.194   7.065  0.8356 -0.7680  0.0496
   72c3c     HC 1289   4.266   6.229   6.964  0.4874 -0.8639 -0.0449
   72c3c     HC 1290   4.160   6.237   7.114  0.2049 -0.8035 -1.0514
   72c3c     CT 1291   4.212   6.047   7.053 -0.2816 -0.0625  0.0756
   72c3c     HC 1292   4.116   6.051   7.000 -0.0761  1.6326 -0.1895
   72c3c     HC 1293   4.196   6.007   7.153  1.0558 -1.4571 -0.2472
   72c3c     HC 1294   4.282   5.980   7.004 -2.2661 -1.9808 -0.2429
   73c3c     N4 1295   3.751   4.839   3.495  0.0760 -0.5968 -0.2319
   73c3c     C1 1296   3.878   4.877   3.554 -0.7831 -0.1556 -0.2785
   73c3c     C1 1297   3.749   4.933   3.379 -0.4561 -0.1016 -0.1579
   73c3c     C2 1298   3.979   4.890   3.439 -0.8383  0.0404 -0.0886
   73c3c     C2 1299   3.892   4.923   3.322  0.4050 -0.2175  0.1869
   73c3c     C1 1300   3.746   4.701   3.448 -0.2269  0.1762 -0.3607
   73c3c     C1 1301   3.631   4.852   3.581 -0.4533  0.3149  0.4404
   73c3c     H1 1302   3.902   4.806   3.633 -0.8456  0.6134  0.4395
   73c3c     H1 1303   3.880   4.976   3.601  2.7105 -0.6886  0.8551
   73c3c     H1 1304   3.667   4.919   3.309 -0.5774  3.8638 -0.9224
   73c3c     H1 1305   3.727   5.035   3.411 -0.2423  0.3251 -1.3502
   73c3c     HC 1306   4.025   4.793   3.418 -0.5721  0.2003 -0.2510
   73c3c     HC 1307   4.054   4.966   3.459 -1.0853  0.2863 -0.1063
   73c3c     HC 1308   3.873   4.862   3.233 -0.2108  0.3880 -0.1046
   73c3c     HC 1309   3.930   5.018   3.283  3.8334 -1.6690 -0.1510
   73c3c     H1 1310   3.763   4.622   3.521 -1.1036  1.9708  1.8349
   73c3c     H1 1311   3.653   4.675   3.398  0.4767 -1.4660 -0.8476
   73c3c     H1 1312   3.824   4.679   3.374 -0.6504 -0.5225 -0.6051
   73c3c     H1 1313   3.545   4.820   3.522  0.7632 -1.4247 -0.4360
   73c3c     H1 1314   3.631   4.773   3.655 -4.0184  0.3248  0.5211
   73c3c     C2 1315   3.591   4.992   3.644 -0.3177  0.3024  0.1290
   73c3c     HC 1316   3.599   5.070   3.568 -1.4036 -0.2642 -0.5759
   73c3c     HC 1317   3.661   5.023   3.721  0.1406 -1.1167  0.3017
   73c3c     CT 1318   3.450   4.996   3.712 -0.1379 -0.7298  0.3230
   73c3c     HC 1319   3.378   4.943   3.649 -0.9588  0.2854  0.3970
   73c3c     HC 1320   3.417   5.098   3.725 -0.7924 -0.6372 -1.8161
   73c3c     HC 1321   3.450   4.942   3.807 -1.3053 -2.7618 -0.7790
   74c3c     N4 1322   2.939   5.353   0.238 -0.5175  0.2542  0.3004
   74c3c     C1 1323   2.847   5.387   0.133 -0.5867  0.1918  0.3488
   74c3c     C1 1324   2.963   5.477   0.304  0.4142  0.3437  0.2893
   74c3c     C2 1325   2.755   5.492   0.184  0.4841  0.1083  0.9752
   74c3c     C2 1326   2.841   5.568   0.284 -0.4688  0.0156 -0.1489
   74c3c     C1 1327   2.867   5.274   0.342 -0.6475 -0.2655  0.7390
   74c3c     C1 1328   3.056   5.276   0.195 -0.5573 -0.8337 -0.5393
   74c3c     H1 1329   2.800   5.297   0.094 -1.3596  1.8723 -2.8242
   74c3c     H1 1330   2.893   5.429   0.043 -0.6384  3.0542  1.6194
   74c3c     H1 1331   2.999   5.474   0.407  1.1189  0.7013  0.0613
   74c3c     H1 1332   3.041   5.526   0.244 -1.0830 -1.2030 -3.0402
   74c3c     HC 1333   2.668   5.452   0.237  0.4815 -3.2242 -1.4229
   74c3c     HC 1334   2.716   5.559   0.107  0.1324  1.0673  1.9569
   74c3c     HC 1335   2.776   5.584   0.370 -2.5374  1.0996 -1.8618
   74c3c     HC 1336   2.877   5.664   0.248  0.4124  0.1843  1.1951
   74c3c     H1 1337   2.830   5.178   0.304 -0.3365 -0.6337  1.3460
   74c3c     H1 1338   2.933   5.258   0.428  1.2204  1.6699 -0.2960
   74c3c     H1 1339   2.783   5.328   0.385 -0.4366  0.3863  0.3260
   74c3c     H1 1340   3.116   5.228   0.272  1.5284  0.0434 -1.5832
   74c3c     H1 1341   3.017   5.193   0.137  1.2795 -0.9010 -1.7230
   74c3c     C2 1342   3.146   5.363   0.096  0.1929 -0.1458  0.5092
   74c3c     HC 1343   3.190   5.444   0.153 -0.7109  0.4275  0.4070
   74c3c     HC 1344   3.087   5.414   0.020 -0.0595  1.2560  1.6129
   74c3c     CT 1345   3.262   5.284   0.037  0.2106  0.6466 -0.3664
   74c3c     HC 1346   3.302   5.331  -0.053 -0.2919 -0.9222 -1.4284
   74c3c     HC 1347   3.234   5.183   0.007  1.0103  0.5026 -0.6458
   74c3c     HC 1348   3.342   5.284   0.111 -0.3375  0.8652  0.2254
   75c3c     N4 1349   3.821   1.730   4.815 -0.0273  0.2592 -0.0375
   75c3c     C1 1350   3.801   1.695   4.957  0.4513  0.1475 -0.1583
   75c3c     C1 1351   3.718   1.647   4.749  0.5280  0.4116  0.3891
   75c3c     C2 1352   3.651   1.667   4.975 -0.3263 -0.0258 -0.1068
   75c3c     C2 1353   3.592   1.650   4.837  0.3103  0.0618 -0.1428
   75c3c     C1 1354   3.786   1.875   4.798  0.4721 -0.0178  0.4951
   75c3c     C1 1355   3.959   1.698   4.772  0.3744 -0.0250 -0.0125
   75c3c     H1 1356   3.832   1.780   5.017  0.1222  1.1418 -1.3989
   75c3c     H1 1357   3.865   1.610   4.983  1.8308  1.4347  0.7264
   75c3c     H1 1358   3.696   1.677   4.646 -3.0534  1.4561  1.3911
   75c3c     H1 1359   3.753   1.544   4.743 -0.2295 -0.0802  3.5806
   75c3c     HC 1360   3.610   1.753   5.029  0.4521 -0.0977  0.6031
   75c3c     HC 1361   3.637   1.581   5.040 -0.2544 -0.9189 -1.2652
   75c3c     HC 1362   3.532   1.737   4.808 -0.6259 -0.2730  0.7478
   75c3c     HC 1363   3.530   1.561   4.828 -1.3657  1.1432  0.4052
   75c3c     H1 1364   3.865   1.936   4.840 -2.0765  3.1700  0.9090
   75c3c     H1 1365   3.788   1.895   4.691 -1.5377  0.7555  0.5789
   75c3c     H1 1366   3.696   1.912   4.848  0.0536 -2.5799  1.7322
   75c3c     H1 1367   3.965   1.716   4.664  0.5846  1.0393  0.1705
   75c3c     H1 1368   4.037   1.760   4.817  2.3335 -2.4542  0.0808
   75c3c     C2 1369   4.023   1.557   4.793 -0.0512 -0.0931  0.5616
   75c3c     HC 1370   3.965   1.479   4.743  1.2140 -0.7765  0.1596
   75c3c     HC 1371   4.024   1.534   4.899  0.3882  0.6958  0.7316
   75c3c     CT 1372   4.171   1.541   4.756  0.0309  0.5000  0.3414
   75c3c     HC 1373   4.205   1.442   4.726  2.4450  1.4444 -0.1908
   75c3c     HC 1374   4.233   1.562   4.843 -1.3648  0.7314  1.2920
   75c3c     HC 1375   4.195   1.603   4.670  2.4203  0.9016  1.2332
   76c3c     N4 1376   4.561   5.447   0.678 -0.1633 -0.2820 -0.0304
   76c3c     C1 1377   4.584   5.556   0.778 -0.3520  0.7454 -0.0249
   76c3c     C1 1378   4.499   5.344   0.765 -0.2667 -0.2433 -0.2196
   76c3c     C2 1379   4.468   5.561   0.880 -0.6724 -0.1231 -0.0760
   76c3c     C2 1380   4.417   5.414   0.874  0.0702 -1.0383 -0.4137
   76c3c     C1 1381   4.464   5.492   0.576  0.1162  0.3506 -0.7631
   76c3c     C1 1382   4.679   5.406   0.596  0.3874  0.2902  0.4702
   76c3c     H1 1383   4.600   5.655   0.736 -0.4560  0.8627  0.2092
   76c3c     H1 1384   4.670   5.534   0.841 -0.1120 -1.7714 -1.1755
   76c3c     H1 1385   4.440   5.270   0.712 -2.2595  0.6962  0.6539
   76c3c     H1 1386   4.584   5.300   0.818 -0.9497 -0.6524  0.5419
   76c3c     HC 1387   4.389   5.630   0.850  0.9896  1.3807 -1.1203
   76c3c     HC 1388   4.498   5.576   0.984 -1.8569 -1.6701  0.5039
   76c3c     HC 1389   4.308   5.413   0.862  0.2092 -4.4487 -1.8663
   76c3c     HC 1390   4.455   5.357   0.959  1.7816  1.0636  0.2795
   76c3c     H1 1391   4.507   5.573   0.517 -0.1210  0.3053 -0.9998
   76c3c     H1 1392   4.423   5.409   0.519 -1.0645  0.1898  0.2894
   76c3c     H1 1393   4.379   5.533   0.631 -0.7632 -0.4665 -1.5020
   76c3c     H1 1394   4.662   5.337   0.514  1.3561 -1.5601  1.7693
   76c3c     H1 1395   4.699   5.499   0.542 -1.1272  1.1574  1.3701
   76c3c     C2 1396   4.798   5.365   0.676 -0.8524 -0.1062 -0.3974
   76c3c     HC 1397   4.771   5.315   0.769  0.6465  1.5954  0.9839
   76c3c     HC 1398   4.861   5.451   0.697  0.0595 -0.1991 -2.5473
   76c3c     CT 1399   4.896   5.279   0.587  0.4128  0.5656  0.4128
   76c3c     HC 1400   4.845   5.216   0.515  0.7645 -0.5767  1.1433
   76c3c     HC 1401   4.962   5.221   0.652 -0.1198 -3.5131 -2.4998
   76c3c     HC 1402   4.965   5.342   0.531 -0.5860  0.7204 -0.6449
   77c3c     N4 1403   4.317   6.204   1.018 -0.6702  0.1575  0.7207
   77c3c     C1 1404   4.171   6.174   1.016  0.9173 -0.8370  0.1979
   77c3c     C1 1405   4.373   6.094   1.086  0.3723  0.0121 -0.4544
   77c3c     C2 1406   4.157   6.028   1.010 -0.0723 -0.6191 -0.7010
   77c3c     C2 1407   4.299   5.969   1.035  0.3538  0.6964  0.0886
   77c3c     C1 1408   4.364   6.197   0.875  0.4670 -0.1607 -0.1395
   77c3c     C1 1409   4.359   6.337   1.068  0.3217  0.3246 -0.8153
   77c3c     H1 1410   4.119   6.218   0.931  2.2609 -0.3005 -0.3618
   77c3c     H1 1411   4.118   6.215   1.102  1.5073  0.6650 -0.1420
   77c3c     H1 1412   4.478   6.074   1.062  0.2052 -2.2984  0.5768
   77c3c     H1 1413   4.353   6.091   1.193 -0.8970  2.0243 -0.6059
   77c3c     HC 1414   4.123   5.998   0.911 -3.3051 -0.4018  0.2777
   77c3c     HC 1415   4.085   5.993   1.084 -0.2972  0.8640 -0.1989
   77c3c     HC 1416   4.350   5.917   0.955  0.8664  1.6845 -0.2334
   77c3c     HC 1417   4.284   5.900   1.118 -1.2691 -0.3376 -1.0329
   77c3c     H1 1418   4.339   6.283   0.814  0.3377 -0.5704 -0.6692
   77c3c     H1 1419   4.473   6.196   0.872  0.5162 -2.6866  1.0982
   77c3c     H1 1420   4.331   6.112   0.815  0.7477  0.0546 -0.6002
   77c3c     H1 1421   4.468   6.333   1.057  0.4945  1.3877  0.4790
   77c3c     H1 1422   4.318   6.414   1.003 -0.8546  2.3808  2.2780
   77c3c     C2 1423   4.317   6.370   1.209 -0.4411 -0.3295  0.8738
   77c3c     HC 1424   4.351   6.294   1.279 -0.1333  1.0448  2.2473
   77c3c     HC 1425   4.209   6.363   1.223 -0.4088 -1.9314  0.3622
   77c3c     CT 1426   4.367   6.508   1.255  0.7213  0.6287 -0.7131
   77c3c     HC 1427   4.317   6.536   1.348 -0.2333 -0.8734 -0.7611
   77c3c     HC 1428   4.335   6.586   1.185 -0.1519 -0.0755 -1.0994
   77c3c     HC 1429   4.476   6.509   1.256  0.7376  1.1123  1.9452
   78c3c     N4 1430   3.240   3.985   0.506  0.4133  0.0942 -0.1452
   78c3c     C1 1431   3.214   3.912   0.382  0.6149 -0.0287 -0.1924
   78c3c     C1 1432   3.364   4.059   0.490 -0.1130  0.2943  0.2318
   78c3c     C2 1433   3.346   3.906   0.305  0.3697  0.7008  0.7892
   78c3c     C2 1434   3.435   4.008   0.368 -0.0529  0.6293  0.1540
   78c3c     C1 1435   3.133   4.086   0.522  0.4711  0.1093 -1.0539
   78c3c     C1 1436   3.244   3.910   0.625  0.0518  0.2722  0.3046
   78c3c     H1 1437   3.135   3.958   0.322 -1.5071 -1.5262  1.4202
   78c3c     H1 1438   3.167   3.816   0.403  1.2619 -0.3890 -0.3808
   78c3c     H1 1439   3.354   4.167   0.481 -1.4646  0.0224 -1.8263
   78c3c     H1 1440   3.435   4.052   0.573  0.1909 -1.0340 -0.1215
   78c3c     HC 1441   3.322   3.922   0.200  0.6511 -1.4500  0.3693
   78c3c     HC 1442   3.388   3.805   0.310  0.2600  0.6731  1.1967
   78c3c     HC 1443   3.447   4.080   0.288 -0.9471  0.9461  0.3016
   78c3c     HC 1444   3.534   3.968   0.393  0.7070  2.2499 -0.2339
   78c3c     H1 1445   3.035   4.039   0.523  0.3892  0.3027 -0.1980
   78c3c     H1 1446   3.140   4.143   0.614 -1.2488 -0.0220 -0.8295
   78c3c     H1 1447   3.138   4.154   0.436  1.0768  0.7238 -0.5409
   78c3c     H1 1448   3.263   3.976   0.710 -2.0570  2.8000 -1.0853
   78c3c     H1 1449   3.146   3.869   0.648 -0.1322  0.8118  0.4894
   78c3c     C2 1450   3.339   3.790   0.623 -0.1487 -0.1990  0.1073
   78c3c     HC 1451   3.430   3.820   0.571  0.0094 -0.3081  0.3215
   78c3c     HC 1452   3.291   3.716   0.560 -0.1519 -0.9241  0.9489
   78c3c     CT 1453   3.373   3.733   0.759 -0.1963  0.4190 -0.0635
   78c3c     HC 1454   3.442   3.798   0.811  0.7522  0.5239 -1.4372
   78c3c     HC 1455   3.413   3.632   0.761  0.8075  0.8266  1.7404
   78c3c     HC 1456   3.282   3.730   0.820 -0.8394 -0.2759 -1.0297
   79c3c     N4 1457   2.687   3.472   2.340 -0.3722 -0.3432 -0.2873
   79c3c     C1 1458   2.675   3.585   2.425  0.6843  0.1840  0.1582
   79c3c     C1 1459   2.787   3.386   2.401  0.1670  0.2036 -0.0346
   79c3c     C2 1460   2.704   3.542   2.575 -0.1146  0.2809 -0.0315
   79c3c     C2 1461   2.777   3.413   2.557  0.1863  0.0942 -0.1417
   79c3c     C1 1462   2.556   3.404   2.349  0.3498 -0.2983  0.0299
   79c3c     C1 1463   2.711   3.515   2.199 -0.1167  0.0356 -0.5869
   79c3c     H1 1464   2.578   3.633   2.424 -0.1895 -1.4974  1.5379
   79c3c     H1 1465   2.746   3.663   2.397  0.7566 -0.1662 -0.6635
   79c3c     H1 1466   2.788   3.280   2.378 -0.9876  0.5745 -1.9014
   79c3c     H1 1467   2.885   3.422   2.368 -0.0713 -0.5345 -1.5915
   79c3c     HC 1468   2.618   3.528   2.640 -1.5173  0.9499 -1.7002
   79c3c     HC 1469   2.773   3.610   2.624 -0.1218  1.4206 -1.5618
   79c3c     HC 1470   2.710   3.340   2.604  1.7715 -1.0160  0.4318
   79c3c     HC 1471   2.875   3.402   2.603  0.5477  0.2872 -0.8573
   79c3c     H1 1472   2.481   3.473   2.313  0.3469  0.2003  0.9826
   79c3c     H1 1473   2.545   3.318   2.282  2.6636 -1.0978  0.6066
   79c3c     H1 1474   2.523   3.384   2.451 -0.5885  0.0772 -0.1977
   79c3c     H1 1475   2.701   3.423   2.141 -0.5217  0.1137 -0.6449
   79c3c     H1 1476   2.635   3.585   2.162 -0.4013  1.0144  1.7760
   79c3c     C2 1477   2.846   3.587   2.154 -0.6855  0.2044 -1.1381
   79c3c     HC 1478   2.937   3.536   2.184 -1.1062  0.0626 -0.0890
   79c3c     HC 1479   2.848   3.689   2.194  3.5457  0.0270 -0.7089
   79c3c     CT 1480   2.841   3.601   1.997 -0.0639 -0.2454 -0.3501
   79c3c     HC 1481   2.744   3.629   1.956  0.6972  0.8649 -1.4383
   79c3c     HC 1482   2.862   3.512   1.937  0.3161  0.1527 -0.8176
   79c3c     HC 1483   2.910   3.672   1.951 -1.2427  0.1284 -1.5763
   80c3c     N4 1484   2.837   4.030   2.921  0.0189 -0.1050  0.7439
   80c3c     C1 1485   2.893   4.003   2.789  0.1402  0.4495  0.4294
   80c3c     C1 1486   2.696   3.990   2.912 -0.6929  0.2583 -0.6574
   80c3c     C2 1487   2.834   3.865   2.751  0.0120  0.0393 -0.7534
   80c3c     C2 1488   2.706   3.860   2.826  0.2680 -0.1045  0.1388
   80c3c     C1 1489   2.907   3.960   3.020 -0.1528  0.2556 -0.2897
   80c3c     C1 1490   2.844   4.174   2.956 -0.0991 -0.6503 -0.2480
   80c3c     H1 1491   3.000   4.011   2.772  0.4609 -2.0279  1.1532
   80c3c     H1 1492   2.852   4.068   2.711  1.0160 -1.5869 -1.7973
   80c3c     H1 1493   2.639   3.974   3.003  0.3843  0.0260 -0.0152
   80c3c     H1 1494   2.628   4.049   2.850 -2.0328 -0.9374 -0.3665
   80c3c     HC 1495   2.908   3.788   2.772  2.5058  2.6232  0.2618
   80c3c     HC 1496   2.821   3.863   2.643  0.0118  0.5137 -0.7668
   80c3c     HC 1497   2.704   3.778   2.898 -1.1374 -0.7280 -0.5852
   80c3c     HC 1498   2.616   3.851   2.766  0.6222 -2.1809 -0.1190
   80c3c     H1 1499   3.008   4.000   3.020  0.4880 -1.3209  0.6075
   80c3c     H1 1500   2.865   3.967   3.120 -1.8999 -0.7739 -0.9295
   80c3c     H1 1501   2.922   3.853   3.008 -2.2417 -0.2472  1.2300
   80c3c     H1 1502   2.817   4.189   3.061 -1.2296  1.2099 -0.7965
   80c3c     H1 1503   2.948   4.206   2.950 -0.5117  0.7406 -0.0048
   80c3c     C2 1504   2.771   4.283   2.870  0.3878 -0.4991 -0.1199
   80c3c     HC 1505   2.662   4.275   2.880  0.3120 -0.3639 -0.7993
   80c3c     HC 1506   2.794   4.273   2.764  0.3042  1.7898 -0.3742
   80c3c     CT 1507   2.804   4.429   2.912  0.1160  0.1979  0.7915
   80c3c     HC 1508   2.907   4.455   2.891  0.5819 -0.6732  1.9026
   80c3c     HC 1509   2.788   4.442   3.020 -0.0484  1.4623  0.6277
   80c3c     HC 1510   2.731   4.501   2.876 -0.8853 -0.8750  0.6341
   81c3c     N4 1511   2.639   2.969   1.956  0.7668  0.1181 -0.1483
   81c3c     C1 1512   2.698   2.834   1.962 -0.8253 -0.3977  0.5027
   81c3c     C1 1513   2.635   3.005   1.813 -0.5129  0.9437 -0.5643
   81c3c     C2 1514   2.638   2.764   1.835  0.1410 -0.6317  0.7011
   81c3c     C2 1515   2.606   2.876   1.735  0.2290 -0.5867  0.2030
   81c3c     C1 1516   2.495   2.971   2.015 -0.1615  0.2996 -0.3055
   81c3c     C1 1517   2.715   3.071   2.021  0.2016 -0.0973 -0.0043
   81c3c     H1 1518   2.684   2.776   2.053 -1.2665 -3.1312 -1.2219
   81c3c     H1 1519   2.806   2.826   1.946 -0.7603  2.1632 -0.4211
   81c3c     H1 1520   2.572   3.091   1.794 -1.4418  0.4511  0.2120
   81c3c     H1 1521   2.737   3.030   1.784  0.6056 -2.4194  0.1837
   81c3c     HC 1522   2.553   2.703   1.866 -0.2156 -0.0567  0.8537
   81c3c     HC 1523   2.704   2.688   1.792 -1.5034 -1.3585 -0.5963
   81c3c     HC 1524   2.500   2.867   1.716  0.0069  0.9845  0.6703
   81c3c     HC 1525   2.672   2.863   1.649 -1.5423 -0.0279 -1.2697
   81c3c     H1 1526   2.481   2.936   2.117 -0.7230 -0.2882 -0.5810
   81c3c     H1 1527   2.446   3.067   1.999 -0.0697  0.1730 -1.4379
   81c3c     H1 1528   2.434   2.898   1.961 -2.6270  0.3123  2.3663
   81c3c     H1 1529   2.675   3.170   2.000 -0.1826 -0.0292  0.9908
   81c3c     H1 1530   2.694   3.056   2.127  0.1441  1.4378  0.2162
   81c3c     C2 1531   2.870   3.082   1.998 -0.2329  0.5092  0.3675
   81c3c     HC 1532   2.900   3.068   1.894 -0.7102 -2.3753  0.5756
   81c3c     HC 1533   2.909   2.996   2.052  2.2982  0.2413 -1.7894
   81c3c     CT 1534   2.929   3.213   2.059  0.3152  0.1543  0.1099
   81c3c     HC 1535   3.037   3.221   2.051  0.2105  1.4309 -0.1790
   81c3c     HC 1536   2.903   3.207   2.165  2.3811  1.5299  0.7385
   81c3c     HC 1537   2.883   3.305   2.022 -1.4176 -1.5453 -2.0599
   82c3c     N4 1538   2.013   5.668   6.307 -0.0085 -0.3997 -0.1741
   82c3c     C1 1539   2.149   5.626   6.321 -0.3088 -0.1266 -0.2138
   82c3c     C1 1540   2.015   5.812   6.326 -0.2166 -0.5760 -0.5313
   82c3c     C2 1541   2.238   5.726   6.254  0.0137 -0.5941 -0.4564
   82c3c     C2 1542   2.148   5.850   6.257  0.5046 -0.2903  0.4503
   82c3c     C1 1543   1.959   5.650   6.171  0.0277 -0.5028 -0.4384
   82c3c     C1 1544   1.932   5.586   6.401 -0.0529 -0.1716  0.1598
   82c3c     H1 1545   2.172   5.524   6.292  1.5046  0.2657 -0.2371
   82c3c     H1 1546   2.171   5.638   6.428 -0.1180  1.0419 -0.3727
   82c3c     H1 1547   1.923   5.859   6.293  1.2570  2.8293 -0.0091
   82c3c     H1 1548   2.039   5.835   6.430  0.1067 -3.1904  0.0060
   82c3c     HC 1549   2.267   5.701   6.153  1.3306  0.1687 -0.2799
   82c3c     HC 1550   2.327   5.740   6.316 -1.0627  1.7985  0.6427
   82c3c     HC 1551   2.123   5.879   6.155 -0.9802  3.7625  1.8625
   82c3c     HC 1552   2.190   5.940   6.303  0.1755  0.8955 -1.4865
   82c3c     H1 1553   1.956   5.544   6.145  0.6724 -0.3787 -1.0324
   82c3c     H1 1554   1.865   5.702   6.154 -1.4339 -2.2941  1.8804
   82c3c     H1 1555   2.025   5.689   6.094 -0.2332  0.5157 -0.1442
   82c3c     H1 1556   1.829   5.619   6.384 -0.7031 -1.3776  1.6062
   82c3c     H1 1557   1.935   5.481   6.373 -2.2453 -0.0901 -0.4773
   82c3c     C2 1558   1.962   5.598   6.556  0.1425  0.5258  0.0696
   82c3c     HC 1559   1.925   5.692   6.596  0.5370  0.5212  0.4494
   82c3c     HC 1560   2.066   5.585   6.584  0.0980  1.1409  0.5203
   82c3c     CT 1561   1.898   5.488   6.646  0.1475  0.1796  0.4932
   82c3c     HC 1562   1.794   5.515   6.663 -0.0173 -1.2210  1.8448
   82c3c     HC 1563   1.951   5.494   6.741  1.8577 -0.1914 -0.4255
   82c3c     HC 1564   1.900   5.388   6.602 -1.6655  0.3415  0.0063
   83c3c     N4 1565   3.824   1.493   5.414  0.1012  0.5748 -0.1413
   83c3c     C1 1566   3.833   1.579   5.526 -0.5147  0.1814 -0.1050
   83c3c     C1 1567   3.798   1.360   5.472  0.2161  0.3448  0.4463
   83c3c     C2 1568   3.740   1.528   5.633 -0.1608  0.0486 -0.0731
   83c3c     C2 1569   3.705   1.386   5.598 -1.0490 -0.0979 -0.0457
   83c3c     C1 1570   3.706   1.537   5.338  0.4703  0.4045  0.1594
   83c3c     C1 1571   3.933   1.501   5.317 -0.3352 -0.3433 -0.3173
   83c3c     H1 1572   3.812   1.681   5.497 -0.8449  0.7976  2.2093
   83c3c     H1 1573   3.933   1.582   5.569 -0.5996 -4.4625  0.7032
   83c3c     H1 1574   3.743   1.288   5.411 -1.2609  0.6466  1.3851
   83c3c     H1 1575   3.885   1.305   5.510  0.2502  0.4901  0.5774
   83c3c     HC 1576   3.651   1.590   5.624  0.5759  0.8218 -2.4112
   83c3c     HC 1577   3.787   1.525   5.731  1.5590 -0.3487 -0.8990
   83c3c     HC 1578   3.600   1.371   5.575 -1.4599  2.0373  0.3495
   83c3c     HC 1579   3.734   1.313   5.674 -0.5834 -0.9570 -1.0379
   83c3c     H1 1580   3.704   1.643   5.312  0.3240  0.2364 -0.5006
   83c3c     H1 1581   3.692   1.483   5.245 -0.6598  0.3699  0.3388
   83c3c     H1 1582   3.610   1.523   5.389  0.9037  0.2616  0.9481
   83c3c     H1 1583   3.914   1.417   5.251 -1.0864 -1.4346  1.2525
   83c3c     H1 1584   3.924   1.600   5.273 -1.0729 -0.0728  0.4272
   83c3c     C2 1585   4.083   1.486   5.369  0.0854  0.2058  0.1152
   83c3c     HC 1586   4.101   1.394   5.424 -2.8728 -0.0439  0.7820
   83c3c     HC 1587   4.113   1.570   5.432  1.2451 -0.0715 -0.0655
   83c3c     CT 1588   4.189   1.493   5.257  0.1778  0.2380 -0.1975
   83c3c     HC 1589   4.289   1.471   5.292  1.1678  1.9504 -1.8440
   83c3c     HC 1590   4.183   1.582   5.195 -1.7874  0.3670  0.1491
   83c3c     HC 1591   4.166   1.413   5.187 -0.5541  2.3668 -2.4581
   84c3c     N4 1592   3.539   0.784   5.087 -0.2831  0.7346 -0.5614
   84c3c     C1 1593   3.535   0.781   5.230  0.2357  0.2977  0.2216
   84c3c     C1 1594   3.409   0.846   5.057  0.0750 -0.6120  0.2407
   84c3c     C2 1595   3.481   0.916   5.273  0.3806 -0.2841 -0.1526
   84c3c     C2 1596   3.392   0.958   5.158  0.1035  0.3381 -0.7881
   84c3c     C1 1597   3.645   0.873   5.040  0.1834 -0.4495 -0.1152
   84c3c     C1 1598   3.546   0.652   5.018  0.2050  0.3351  0.2531
   84c3c     H1 1599   3.632   0.743   5.265 -0.9367 -1.5563  1.6050
   84c3c     H1 1600   3.467   0.707   5.272  0.5412 -0.5209 -0.7057
   84c3c     H1 1601   3.388   0.882   4.956 -1.7944 -0.8912  0.5075
   84c3c     H1 1602   3.320   0.789   5.084  0.4567 -0.2810  2.2546
   84c3c     HC 1603   3.564   0.984   5.295 -1.6263  2.3518 -0.4597
   84c3c     HC 1604   3.426   0.895   5.364  2.4877  1.4940  1.6073
   84c3c     HC 1605   3.429   1.054   5.122 -2.7467  1.4830 -0.7931
   84c3c     HC 1606   3.290   0.977   5.190 -0.7567 -2.1949 -1.8632
   84c3c     H1 1607   3.743   0.843   5.079 -0.4373  0.7070  2.4334
   84c3c     H1 1608   3.647   0.887   4.932  0.3722  0.0514 -0.0498
   84c3c     H1 1609   3.640   0.974   5.081 -0.4777 -0.7253  0.5030
   84c3c     H1 1610   3.529   0.653   4.910  0.8815 -1.0017  0.1295
   84c3c     H1 1611   3.650   0.619   5.023  0.1154  0.2540  1.9232
   84c3c     C2 1612   3.461   0.538   5.070  0.1367 -0.1025  0.6845
   84c3c     HC 1613   3.355   0.561   5.063  0.8178  2.5018 -1.6623
   84c3c     HC 1614   3.474   0.521   5.177 -0.9743 -0.5586  0.7596
   84c3c     CT 1615   3.478   0.404   4.997  0.1194 -0.3715  0.6753
   84c3c     HC 1616   3.472   0.420   4.889 -0.7036 -1.3108  0.5797
   84c3c     HC 1617   3.416   0.323   5.036  0.0665 -1.8010 -2.2598
   84c3c     HC 1618   3.583   0.373   5.006 -0.0892 -1.7156 -1.0797
   85c3c     N4 1619   2.866   6.607   0.056  0.3365  0.0878  0.1630
   85c3c     C1 1620   2.811   6.499  -0.027  0.1604 -0.2219  0.1418
   85c3c     C1 1621   2.878   6.557   0.192  0.2512 -0.6234 -0.4936
   85c3c     C2 1622   2.721   6.419   0.069 -0.4957 -0.3587 -0.1611
   85c3c     C2 1623   2.775   6.454   0.204 -0.3262  0.3490 -0.9388
   85c3c     C1 1624   2.993   6.646   0.004  0.4372 -0.5167 -0.0299
   85c3c     C1 1625   2.774   6.726   0.051  0.1220 -0.2417 -0.2498
   85c3c     H1 1626   2.884   6.431  -0.071  0.2975  0.5567 -0.8511
   85c3c     H1 1627   2.757   6.534  -0.114 -0.9578 -0.8014  0.5835
   85c3c     H1 1628   2.973   6.508   0.211  0.4326  0.1904  0.7932
   85c3c     H1 1629   2.869   6.634   0.270  0.8746 -0.5091 -0.5295
   85c3c     HC 1630   2.737   6.313   0.047 -0.9800 -0.4401 -0.1213
   85c3c     HC 1631   2.621   6.452   0.041  0.4760  0.4788 -2.8742
   85c3c     HC 1632   2.818   6.362   0.245 -0.6872  1.1750  1.3452
   85c3c     HC 1633   2.702   6.490   0.276  0.2300 -0.2860 -0.0461
   85c3c     H1 1634   2.990   6.681  -0.099  0.6876  3.2503  1.1987
   85c3c     H1 1635   3.036   6.713   0.078  1.5570 -3.1023  1.7608
   85c3c     H1 1636   3.076   6.577  -0.012  0.4970 -0.3468 -0.4402
   85c3c     H1 1637   2.835   6.812   0.079  1.1155 -0.1166 -2.6177
   85c3c     H1 1638   2.751   6.746  -0.054  0.7680  0.1052 -0.3282
   85c3c     C2 1639   2.642   6.735   0.139  0.3641  0.4503 -0.5567
   85c3c     HC 1640   2.667   6.732   0.245  0.3452  0.3219 -0.5553
   85c3c     HC 1641   2.578   6.647   0.126  1.4177 -0.0404 -2.7600
   85c3c     CT 1642   2.575   6.866   0.098 -0.4666  0.6408  0.5993
   85c3c     HC 1643   2.631   6.958   0.119 -0.5483  0.6394  0.8343
   85c3c     HC 1644   2.487   6.883   0.160 -1.4505 -0.1334 -0.5842
   85c3c     HC 1645   2.531   6.854  -0.001 -2.4174 -0.6174  1.5863
   86c3c     N4 1646   3.653   2.995   3.329  0.3145 -0.3677  0.0400
   86c3c     C1 1647   3.644   3.095   3.224  0.1292 -0.0045  0.1443
   86c3c     C1 1648   3.765   2.907   3.292  0.7124 -0.5143 -0.1116
   86c3c     C2 1649   3.788   3.127   3.190  0.6781  0.3980  0.2644
   86c3c     C2 1650   3.872   3.011   3.244  0.6589 -0.5852 -0.0448
   86c3c     C1 1651   3.686   3.060   3.459  0.0410  0.0452 -0.8403
   86c3c     C1 1652   3.526   2.921   3.346 -0.6250 -0.0078  0.1590
   86c3c     H1 1653   3.585   3.176   3.266 -2.5573 -1.9815  0.2373
   86c3c     H1 1654   3.587   3.060   3.138 -2.6711 -0.4803  2.1669
   86c3c     H1 1655   3.806   2.843   3.370 -0.5921 -1.3415 -0.0918
   86c3c     H1 1656   3.735   2.844   3.208 -2.5859 -2.4843  2.4066
   86c3c     HC 1657   3.831   3.219   3.229 -1.4812  1.5797 -0.0146
   86c3c     HC 1658   3.798   3.142   3.082  0.2079  1.6915  0.3887
   86c3c     HC 1659   3.947   3.050   3.313 -0.1514  0.3927  0.2965
   86c3c     HC 1660   3.926   2.961   3.163 -1.2273  0.3018 -1.8840
   86c3c     H1 1661   3.603   3.122   3.491  1.3976  1.3942  0.1372
   86c3c     H1 1662   3.707   2.994   3.543  1.0885  1.2548 -0.1401
   86c3c     H1 1663   3.769   3.130   3.450 -0.3530  0.7406  0.8602
   86c3c     H1 1664   3.527   2.870   3.442 -0.6336 -0.3762 -0.0339
   86c3c     H1 1665   3.443   2.991   3.358 -0.0952  0.9176 -1.4078
   86c3c     C2 1666   3.497   2.815   3.246  0.3510 -0.0856 -0.4762
   86c3c     HC 1667   3.566   2.731   3.240 -1.0090 -1.1802 -0.9975
   86c3c     HC 1668   3.497   2.865   3.149  1.9437 -0.1247 -0.5115
   86c3c     CT 1669   3.357   2.758   3.267 -0.6880 -0.0647 -0.1631
   86c3c     HC 1670   3.354   2.701   3.360  1.4445  0.3317  0.1704
   86c3c     HC 1671   3.308   2.694   3.193 -0.4347 -1.6000  0.9667
   86c3c     HC 1672   3.276   2.828   3.282  0.9823  2.0007 -0.6145
   87c3c     N4 1673   3.955   2.361   4.123 -0.8251  0.2004  0.5091
   87c3c     C1 1674   3.985   2.422   3.988 -0.6857 -0.1540 -0.3515
   87c3c     C1 1675   4.057   2.260   4.139  0.2642 -0.2159  0.2162
   87c3c     C2 1676   4.139   2.416   3.975  0.5981 -0.1981  0.7389
   87c3c     C2 1677   4.187   2.321   4.081 -0.6604 -0.0882 -0.2274
   87c3c     C1 1678   3.971   2.463   4.223 -0.9417  0.4995  0.5603
   87c3c     C1 1679   3.816   2.300   4.137 -0.5285  0.0542  0.6190
   87c3c     H1 1680   3.950   2.524   3.978  0.6581  0.2236 -1.2954
   87c3c     H1 1681   3.942   2.361   3.909 -1.4506 -0.9301  0.6309
   87c3c     H1 1682   4.071   2.226   4.241  0.2024 -0.9552 -0.0211
   87c3c     H1 1683   4.033   2.172   4.080  0.2108 -0.2284  0.2561
   87c3c     HC 1684   4.182   2.514   3.995  0.7707 -0.1575  0.1774
   87c3c     HC 1685   4.178   2.394   3.875 -1.8066  1.2853 -0.5877
   87c3c     HC 1686   4.241   2.381   4.154 -1.6875 -0.3625  0.7759
   87c3c     HC 1687   4.257   2.244   4.048  0.1299  0.6690 -0.3383
   87c3c     H1 1688   3.890   2.536   4.229 -2.2620 -0.9147  0.2895
   87c3c     H1 1689   3.986   2.429   4.325  1.3183  0.7931  0.3643
   87c3c     H1 1690   4.058   2.526   4.202 -0.1938 -0.4207  0.9072
   87c3c     H1 1691   3.814   2.242   4.230 -0.3212  0.1629  0.6935
   87c3c     H1 1692   3.743   2.378   4.159 -0.0474  0.4071  0.9900
   87c3c     C2 1693   3.763   2.208   4.023  0.0605 -0.0226 -0.3218
   87c3c     HC 1694   3.838   2.131   4.006 -1.6805 -2.0511  0.9027
   87c3c     HC 1695   3.746   2.265   3.932  1.5779 -0.1926 -0.7214
   87c3c     CT 1696   3.638   2.142   4.072 -0.1069 -0.2719 -0.2551
   87c3c     HC 1697   3.566   2.221   4.093  0.1225 -0.1011 -0.1125
   87c3c     HC 1698   3.650   2.094   4.169  0.8924  0.9622  0.2404
   87c3c     HC 1699   3.597   2.075   3.996  0.5673 -0.9286 -0.0422
   88c3c     N4 1700   4.616   1.771   4.982  0.4175  0.3467  0.6293
   88c3c     C1 1701   4.681   1.874   4.898  0.0461 -0.1554  0.3394
   88c3c     C1 1702   4.693   1.771   5.102 -0.4369  0.2897  0.3554
   88c3c     C2 1703   4.714   1.989   4.996 -0.2687 -0.2909 -0.1552
   88c3c     C2 1704   4.724   1.916   5.132 -0.3694  0.3235 -0.0114
   88c3c     C1 1705   4.479   1.813   5.018 -0.2451 -0.4244  0.3838
   88c3c     C1 1706   4.600   1.648   4.905 -0.1942  0.6455 -0.7017
   88c3c     H1 1707   4.612   1.909   4.821 -0.2637  0.3009  0.8176
   88c3c     H1 1708   4.770   1.846   4.842 -0.5548 -0.5152 -0.4384
   88c3c     H1 1709   4.654   1.731   5.195  1.5167  1.6848  1.8346
   88c3c     H1 1710   4.782   1.709   5.092 -0.9610 -0.6542  1.3916
   88c3c     HC 1711   4.633   2.062   5.005  2.1269  2.5785 -1.0707
   88c3c     HC 1712   4.805   2.041   4.968 -0.3006  1.4592  2.6517
   88c3c     HC 1713   4.652   1.965   5.198 -1.3274 -0.2074 -0.6771
   88c3c     HC 1714   4.826   1.921   5.172 -0.0516  1.9468 -0.9584
   88c3c     H1 1715   4.411   1.817   4.933  2.3013  0.8784 -1.6544
   88c3c     H1 1716   4.450   1.727   5.079 -0.6046 -0.6094 -0.0422
   88c3c     H1 1717   4.455   1.897   5.082 -0.4621  1.6212 -2.2777
   88c3c     H1 1718   4.546   1.570   4.959  1.0549  0.8228  0.8311
   88c3c     H1 1719   4.546   1.671   4.813 -0.5251  0.7984 -0.4700
   88c3c     C2 1720   4.731   1.577   4.857  0.2174  0.4482  0.0058
   88c3c     HC 1721   4.791   1.540   4.940 -0.7026 -1.5801 -0.2166
   88c3c     HC 1722   4.802   1.642   4.805  1.3361 -0.8774 -0.1591
   88c3c     CT 1723   4.712   1.461   4.755 -0.3243 -0.9469 -0.6703
   88c3c     HC 1724   4.667   1.505   4.666  0.3871 -0.3555 -0.7366
   88c3c     HC 1725   4.644   1.381   4.784 -0.0605 -0.4141  1.5011
   88c3c     HC 1726   4.805   1.411   4.729 -1.3620 -2.4181 -1.6192
   89c3c     N4 1727   3.104   3.419   1.616 -0.2628 -0.2392 -0.0286
   89c3c     C1 1728   3.024   3.538   1.574 -0.8577  0.6693 -0.2953
   89c3c     C1 1729   2.994   3.321   1.623  0.5218  0.1062  0.1881
   89c3c     C2 1730   2.923   3.495   1.469  0.0591 -0.2973 -0.2033
   89c3c     C2 1731   2.908   3.344   1.498  0.0408  0.1289 -0.1581
   89c3c     C1 1732   3.198   3.376   1.508 -0.1135 -0.5709 -0.3708
   89c3c     C1 1733   3.192   3.441   1.735  0.1136  0.2675 -0.0294
   89c3c     H1 1734   3.103   3.605   1.539 -1.2850  0.9317 -0.7777
   89c3c     H1 1735   2.969   3.585   1.655  2.0514  1.8885  1.0652
   89c3c     H1 1736   3.027   3.217   1.630 -0.0640 -0.0336  0.9779
   89c3c     H1 1737   2.931   3.346   1.709 -0.8704 -0.7545 -0.5772
   89c3c     HC 1738   2.949   3.505   1.364 -0.7994  1.7512 -0.2568
   89c3c     HC 1739   2.825   3.536   1.493 -0.2297  0.1618 -2.0595
   89c3c     HC 1740   2.948   3.277   1.421  0.7530 -2.0367  2.0056
   89c3c     HC 1741   2.807   3.309   1.521  0.0193 -0.4269 -1.0802
   89c3c     H1 1742   3.278   3.447   1.487 -1.3724  0.6578 -1.1138
   89c3c     H1 1743   3.250   3.284   1.534  1.9429  0.4611 -0.7243
   89c3c     H1 1744   3.163   3.342   1.410 -0.8674  1.0983 -0.7120
   89c3c     H1 1745   3.245   3.350   1.760 -0.1473  0.6435  1.9590
   89c3c     H1 1746   3.269   3.513   1.707  0.3406 -0.8496 -2.3722
   89c3c     C2 1747   3.127   3.494   1.865  0.1084 -0.0614  0.3017
   89c3c     HC 1748   3.047   3.422   1.882  0.0481 -0.0678 -0.0086
   89c3c     HC 1749   3.082   3.592   1.851 -0.8841 -0.5852 -0.1746
   89c3c     CT 1750   3.204   3.493   1.997 -0.2186  0.5778  0.5680
   89c3c     HC 1751   3.144   3.507   2.086 -0.7081  0.7499  0.2105
   89c3c     HC 1752   3.287   3.563   2.006  0.7952 -0.6569  0.9703
   89c3c     HC 1753   3.250   3.398   2.026  1.1954  1.1973  0.4253
   90c3c     N4 1754   4.089   1.684   6.022 -0.4832 -0.7961  0.3304
   90c3c     C1 1755   4.161   1.809   6.037 -0.0680  0.1985  0.3921
   90c3c     C1 1756   4.030   1.699   5.885 -0.7289  0.2795  0.4198
   90c3c     C2 1757   4.240   1.840   5.906 -0.1588 -0.4675 -0.0158
   90c3c     C2 1758   4.148   1.770   5.809 -0.6065 -0.3885 -0.4942
   90c3c     C1 1759   4.172   1.562   6.030  0.1045  0.2132 -0.1613
   90c3c     C1 1760   3.989   1.669   6.126 -0.0692 -0.3127  0.0512
   90c3c     H1 1761   4.225   1.803   6.125 -1.9106 -1.2496  1.6670
   90c3c     H1 1762   4.090   1.888   6.063  0.4398  0.9276 -0.3702
   90c3c     H1 1763   3.999   1.606   5.838  0.3077 -0.3001  0.8642
   90c3c     H1 1764   3.946   1.768   5.880  0.1455  1.3407 -0.0191
   90c3c     HC 1765   4.340   1.798   5.901 -0.6178 -2.3676  4.8019
   90c3c     HC 1766   4.251   1.947   5.887  0.1735 -0.4541  0.2408
   90c3c     HC 1767   4.210   1.717   5.737  0.6330 -0.4149  0.5787
   90c3c     HC 1768   4.093   1.845   5.751  2.4757  1.2627 -1.3942
   90c3c     H1 1769   4.197   1.548   6.135 -1.2300  2.3638  0.4853
   90c3c     H1 1770   4.124   1.466   6.014 -0.2646  0.6358 -1.6900
   90c3c     H1 1771   4.264   1.563   5.970 -0.0134  0.4923 -0.3392
   90c3c     H1 1772   3.944   1.570   6.134 -1.0917  0.3214  2.2990
   90c3c     H1 1773   4.041   1.675   6.221  0.3276  0.6282 -0.2261
   90c3c     C2 1774   3.877   1.776   6.140  0.2659  0.3866 -0.0396
   90c3c     HC 1775   3.814   1.768   6.051  2.3690 -0.0310 -1.5252
   90c3c     HC 1776   3.911   1.879   6.126 -1.0302  0.6161 -1.7716
   90c3c     CT 1777   3.791   1.755   6.260 -0.0655  0.3171 -0.0012
   90c3c     HC 1778   3.716   1.829   6.287 -0.9221 -0.3006 -0.6666
   90c3c     HC 1779   3.863   1.753   6.342  1.3660  3.0353 -1.0920
   90c3c     HC 1780   3.743   1.658   6.251 -1.1882  0.9651 -1.0726
   91c3c     N4 1781   3.729   4.796   0.058 -0.2890  0.3072 -0.0467
   91c3c     C1 1782   3.719   4.848   0.193 -0.1267  1.0537  0.1438
   91c3c     C1 1783   3.872   4.825   0.010  1.0157  0.6342  0.3822
   91c3c     C2 1784   3.864   4.863   0.242  0.2321  0.3181  0.0625
   91c3c     C2 1785   3.931   4.907   0.118  0.2935  0.4495  0.2094
   91c3c     C1 1786   3.705   4.647   0.061  0.0834  0.8435  0.4020
   91c3c     C1 1787   3.622   4.847  -0.027 -0.9346 -0.2971  0.4257
   91c3c     H1 1788   3.660   4.785   0.261 -0.9712  2.6064  0.8720
   91c3c     H1 1789   3.674   4.947   0.198 -1.0673  0.5876  1.1906
   91c3c     H1 1790   3.937   4.738   0.002 -0.2415 -0.2725 -0.1490
   91c3c     H1 1791   3.877   4.854  -0.095  3.1217  3.3310  1.1678
   91c3c     HC 1792   3.915   4.775   0.283  0.1057  0.3362  0.2578
   91c3c     HC 1793   3.853   4.935   0.323 -0.1510  1.6127 -1.1168
   91c3c     HC 1794   4.036   4.882   0.135  0.8556  0.3660 -2.9858
   91c3c     HC 1795   3.917   5.012   0.093  0.7412  0.6384  0.7383
   91c3c     H1 1796   3.603   4.618   0.089 -0.4549  2.2791 -0.0338
   91c3c     H1 1797   3.730   4.602  -0.035 -2.9225  1.3479 -0.6878
   91c3c     H1 1798   3.772   4.603   0.135  1.8675  3.8068  0.6300
   91c3c     H1 1799   3.638   4.802  -0.125  4.5617  1.7520  0.2485
   91c3c     H1 1800   3.520   4.829   0.007 -0.9599  3.1127  2.3865
   91c3c     C2 1801   3.641   4.994  -0.055 -0.1638  0.4172  0.5164
   91c3c     HC 1802   3.738   5.011  -0.101  1.0898 -2.2090  2.0867
   91c3c     HC 1803   3.637   5.062   0.030 -2.5190  1.2497 -0.1941
   91c3c     CT 1804   3.538   5.053  -0.157 -0.3762  0.4000 -0.3237
   91c3c     HC 1805   3.438   5.037  -0.116 -0.4007  0.9262 -0.1714
   91c3c     HC 1806   3.548   4.999  -0.252 -0.5304  1.5239 -0.9846
   91c3c     HC 1807   3.557   5.159  -0.173 -1.4499  0.7260  0.5491
   92c3c     N4 1808   3.063   1.692   6.232 -0.0236  0.4064  0.4342
   92c3c     C1 1809   3.073   1.608   6.350 -0.1444  0.3764  0.7363
   92c3c     C1 1810   3.142   1.612   6.138 -0.0982  0.0411 -0.0445
   92c3c     C2 1811   3.053   1.467   6.304  0.7475 -0.0764 -0.0159
   92c3c     C2 1812   3.123   1.461   6.168  0.3334 -0.1317  0.0906
   92c3c     C1 1813   2.926   1.706   6.179  0.5660 -0.5829  0.1054
   92c3c     C1 1814   3.110   1.828   6.262 -0.6053 -0.0511 -0.1893
   92c3c     H1 1815   3.003   1.629   6.431  0.4716 -0.0377  1.3733
   92c3c     H1 1816   3.169   1.613   6.401  0.5521 -0.4179 -0.4620
   92c3c     H1 1817   3.134   1.637   6.032  1.1219  0.6513  0.0028
   92c3c     H1 1818   3.248   1.632   6.157  0.1321 -0.7171 -0.5158
   92c3c     HC 1819   2.945   1.450   6.301  0.6411  0.7083 -0.6830
   92c3c     HC 1820   3.104   1.394   6.367 -0.2536 -0.6397  0.1532
   92c3c     HC 1821   3.074   1.400   6.092 -0.8283 -2.2734  2.4785
   92c3c     HC 1822   3.226   1.429   6.180 -0.5691 -1.8103  4.0393
   92c3c     H1 1823   2.856   1.749   6.252  0.0306  1.8438 -1.7776
   92c3c     H1 1824   2.926   1.771   6.092 -0.2309  0.8957  1.1897
   92c3c     H1 1825   2.886   1.611   6.144 -0.4449  0.5428 -1.8511
   92c3c     H1 1826   3.099   1.880   6.168 -0.0370 -0.2091 -0.3412
   92c3c     H1 1827   3.047   1.884   6.332  0.3422  2.0137 -0.9688
   92c3c     C2 1828   3.251   1.847   6.310 -0.7776 -0.0928  0.1348
   92c3c     HC 1829   3.328   1.801   6.249 -0.5472 -0.8129  0.9558
   92c3c     HC 1830   3.273   1.812   6.411 -0.6084  0.1521  0.1828
   92c3c     CT 1831   3.288   1.997   6.306  0.3579 -0.0585  0.0417
   92c3c     HC 1832   3.198   2.045   6.345 -0.9272 -1.6184 -0.9236
   92c3c     HC 1833   3.297   2.024   6.200 -2.1296  0.0936 -0.1763
   92c3c     HC 1834   3.380   2.028   6.355  0.0975 -0.0621  0.5297
   93c3c     N4 1835   3.849   0.998   6.429  0.1075  0.1527 -0.5122
   93c3c     C1 1836   3.713   1.043   6.393  0.1218 -0.5225  0.2966
   93c3c     C1 1837   3.869   0.872   6.351 -0.2384 -0.6376  0.3217
   93c3c     C2 1838   3.631   0.919   6.367 -0.0537 -0.5458 -0.2104
   93c3c     C2 1839   3.735   0.806   6.361 -0.0516  0.1975  0.6016
   93c3c     C1 1840   3.953   1.090   6.376 -0.0735  0.2102  0.2820
   93c3c     C1 1841   3.868   0.979   6.573 -0.2502  0.8112 -0.2684
   93c3c     H1 1842   3.708   1.105   6.304  0.1009  2.5653  2.3727
   93c3c     H1 1843   3.662   1.096   6.474  0.0115 -2.0292  1.2437
   93c3c     H1 1844   3.873   0.898   6.245 -0.2638 -0.3662  0.3862
   93c3c     H1 1845   3.952   0.805   6.375  0.3826  0.7709  2.2258
   93c3c     HC 1846   3.566   0.930   6.281 -1.4473  1.1463  1.0106
   93c3c     HC 1847   3.557   0.901   6.444 -2.2949  1.5771 -1.7978
   93c3c     HC 1848   3.733   0.742   6.273  0.8338  1.3195 -0.2519
   93c3c     HC 1849   3.730   0.737   6.445 -1.3451 -1.7189 -0.9801
   93c3c     H1 1850   3.927   1.185   6.423 -0.1799 -0.7194  2.1460
   93c3c     H1 1851   4.052   1.060   6.411 -0.1414 -0.0874  0.2215
   93c3c     H1 1852   3.972   1.096   6.269  2.4903 -0.7436  0.6533
   93c3c     H1 1853   3.964   0.934   6.595 -0.7070  1.1294  2.4749
   93c3c     H1 1854   3.886   1.075   6.621  1.0699 -0.5440  1.9976
   93c3c     C2 1855   3.757   0.922   6.661 -0.0660  0.1305 -0.1618
   93c3c     HC 1856   3.742   0.819   6.629  3.2042 -0.5241  0.2971
   93c3c     HC 1857   3.664   0.979   6.656 -1.2593 -1.8623 -1.9953
   93c3c     CT 1858   3.796   0.920   6.812 -0.7787  0.3691 -0.9371
   93c3c     HC 1859   3.794   1.023   6.847 -1.3955 -0.6042  2.0155
   93c3c     HC 1860   3.895   0.880   6.832 -0.8244  0.0996 -1.2444
   93c3c     HC 1861   3.725   0.868   6.877 -0.5442  3.1009  1.6005
   94c3c     N4 1862   2.736   6.001   0.366 -0.8498 -0.1613 -0.0104
   94c3c     C1 1863   2.779   6.093   0.268 -0.6770  0.6242  0.3689
   94c3c     C1 1864   2.640   5.907   0.307  0.3234  0.5562 -0.4454
   94c3c     C2 1865   2.776   6.009   0.136  0.2243  0.2306  0.4336
   94c3c     C2 1866   2.672   5.897   0.159 -0.8726 -0.2732  0.1653
   94c3c     C1 1867   2.860   5.924   0.408  0.1997 -0.3092 -0.6096
   94c3c     C1 1868   2.689   6.070   0.493 -0.8846  0.2812 -0.1333
   94c3c     H1 1869   2.869   6.152   0.285 -1.0119  1.5517 -0.9819
   94c3c     H1 1870   2.702   6.168   0.253  0.3189  2.2272  3.0505
   94c3c     H1 1871   2.657   5.810   0.354  0.3233  1.5856  1.7451
   94c3c     H1 1872   2.538   5.946   0.313 -0.1242 -0.6072 -0.2140
   94c3c     HC 1873   2.877   5.975   0.112  0.2074  0.5105 -0.0311
   94c3c     HC 1874   2.742   6.072   0.055 -0.7416  0.0036  0.6553
   94c3c     HC 1875   2.718   5.803   0.126  0.8045  0.3389  0.7105
   94c3c     HC 1876   2.587   5.906   0.092  2.0290  0.8387 -3.5525
   94c3c     H1 1877   2.934   5.976   0.469  1.1720 -0.8851 -1.2856
   94c3c     H1 1878   2.840   5.829   0.457  0.2146  0.4300  0.8442
   94c3c     H1 1879   2.912   5.882   0.321  0.6706  0.6308 -0.7924
   94c3c     H1 1880   2.657   5.989   0.559 -0.5263 -1.6606 -2.2456
   94c3c     H1 1881   2.778   6.119   0.533  0.4299 -0.4056 -2.1130
   94c3c     C2 1882   2.582   6.184   0.485  0.7545  0.2025 -0.6601
   94c3c     HC 1883   2.484   6.150   0.453 -0.1361 -0.0677  2.1712
   94c3c     HC 1884   2.606   6.266   0.418  1.4133  0.9391  0.4560
   94c3c     CT 1885   2.569   6.238   0.629  0.5748  0.5810  0.4727
   94c3c     HC 1886   2.666   6.276   0.662  0.7538  0.4451  0.1018
   94c3c     HC 1887   2.559   6.156   0.700  0.2177  0.2634  0.0611
   94c3c     HC 1888   2.495   6.314   0.655 -0.4721 -0.8358  1.7655
   95c3c     N4 1889   2.904   3.047   2.986 -0.1883  0.1614 -0.1371
   95c3c     C1 1890   2.779   3.094   2.922 -0.5833 -1.1845  0.3809
   95c3c     C1 1891   3.004   3.135   2.922 -0.6976 -0.4184 -0.0425
   95c3c     C2 1892   2.787   3.253   2.904 -0.2443 -0.3955 -0.2399
   95c3c     C2 1893   2.936   3.278   2.913  0.4616 -0.3608 -0.4350
   95c3c     C1 1894   2.901   3.077   3.131 -0.4455  0.3831  0.5091
   95c3c     C1 1895   2.920   2.896   2.972  0.0368  0.8618  0.2916
   95c3c     H1 1896   2.687   3.065   2.973 -1.5628 -1.1127 -1.3260
   95c3c     H1 1897   2.767   3.045   2.826 -0.2255 -2.0152  0.7494
   95c3c     H1 1898   3.095   3.153   2.979  0.3175 -0.3809 -1.6684
   95c3c     H1 1899   3.033   3.108   2.821 -3.3182  0.6208 -1.1207
   95c3c     HC 1900   2.733   3.298   2.988  0.8221 -0.0104  0.2514
   95c3c     HC 1901   2.743   3.283   2.809 -0.8421 -1.7161 -0.3822
   95c3c     HC 1902   2.954   3.342   2.999  1.2356  0.0384 -0.8889
   95c3c     HC 1903   2.974   3.334   2.827 -0.7749  0.7061 -0.3017
   95c3c     H1 1904   2.850   3.004   3.194 -0.0413 -1.0594 -0.8166
   95c3c     H1 1905   3.003   3.070   3.170 -0.8840  0.0065  1.6021
   95c3c     H1 1906   2.866   3.176   3.160  1.0446  0.9620  0.3948
   95c3c     H1 1907   3.005   2.871   3.036  0.0152 -2.6818 -0.9583
   95c3c     H1 1908   2.847   2.832   3.023 -1.3454  0.7522 -1.7880
   95c3c     C2 1909   2.947   2.843   2.828 -0.3171  0.0425 -0.1059
   95c3c     HC 1910   3.034   2.895   2.788 -0.4727 -0.1204 -0.6759
   95c3c     HC 1911   2.855   2.859   2.771 -0.3659 -1.0238 -0.3390
   95c3c     CT 1912   2.963   2.694   2.822 -0.0798 -0.0701  0.1147
   95c3c     HC 1913   3.061   2.661   2.857 -0.5129 -1.0223  0.4657
   95c3c     HC 1914   2.953   2.660   2.718  1.7780  0.3945 -0.2369
   95c3c     HC 1915   2.892   2.641   2.885  0.7301 -1.7056 -0.3073
   96c3c     N4 1916   4.510   1.469   7.064  0.2616 -0.4588  0.0446
   96c3c     C1 1917   4.366   1.470   7.065  0.3921  0.1908 -0.0511
   96c3c     C1 1918   4.554   1.509   6.929 -0.3120 -0.1233  0.0588
   96c3c     C2 1919   4.320   1.597   6.989  0.0834 -0.1397  0.3420
   96c3c     C2 1920   4.443   1.611   6.893  0.2057  0.4925 -0.3661
   96c3c     C1 1921   4.557   1.572   7.148  0.8877  0.5312  0.0400
   96c3c     C1 1922   4.570   1.337   7.103 -0.6600 -0.0916 -0.1253
   96c3c     H1 1923   4.324   1.453   7.165  0.3762 -0.8926 -0.2294
   96c3c     H1 1924   4.328   1.380   7.016 -1.0971  0.0628  1.3001
   96c3c     H1 1925   4.657   1.542   6.923 -0.4493  0.3512  0.2570
   96c3c     H1 1926   4.545   1.430   6.854 -2.9172 -0.5037  0.7076
   96c3c     HC 1927   4.307   1.676   7.062 -3.1807 -1.0467  0.8530
   96c3c     HC 1928   4.239   1.581   6.917  0.1435  1.0447  0.0104
   96c3c     HC 1929   4.480   1.713   6.903 -0.6748  0.7616  0.2423
   96c3c     HC 1930   4.400   1.604   6.793  0.0481 -1.1191 -0.1980
   96c3c     H1 1931   4.534   1.548   7.252  1.0939  0.0287 -0.0276
   96c3c     H1 1932   4.666   1.578   7.146  0.9759  0.3873  2.5145
   96c3c     H1 1933   4.519   1.674   7.139 -1.1735 -0.3049 -1.1588
   96c3c     H1 1934   4.677   1.351   7.093 -1.0807  3.5618 -0.4916
   96c3c     H1 1935   4.551   1.317   7.208  1.1324 -1.5369 -0.0639
   96c3c     C2 1936   4.535   1.216   7.016  0.4841  0.1604 -0.3176
   96c3c     HC 1937   4.569   1.231   6.913  0.2199  0.2318 -0.3961
   96c3c     HC 1938   4.430   1.187   7.027  0.2187  1.8358  1.8192
   96c3c     CT 1939   4.608   1.089   7.069 -0.1344 -0.0091 -0.2387
   96c3c     HC 1940   4.647   1.106   7.169 -0.1758 -0.6838 -0.1049
   96c3c     HC 1941   4.678   1.045   6.998 -0.5910 -2.5703  0.8408
   96c3c     HC 1942   4.532   1.014   7.090  0.8406 -0.8980  0.1773
   97c3c     N4 1943   3.585   6.852   7.069  0.1450 -0.2307  0.7593
   97c3c     C1 1944   3.641   6.951   7.155 -0.6427  0.7779  0.0751
   97c3c     C1 1945   3.707   6.800   7.004 -1.2477 -0.1228  0.0430
   97c3c     C2 1946   3.767   6.900   7.217 -0.2532 -0.5038  0.3340
   97c3c     C2 1947   3.820   6.804   7.110  0.0278 -0.3167 -0.0008
   97c3c     C1 1948   3.527   6.742   7.145  0.1940  0.2755 -0.7255
   97c3c     C1 1949   3.480   6.912   6.978  0.6682  0.2709 -0.5283
   97c3c     H1 1950   3.574   6.993   7.230 -1.4416  0.6442 -0.5696
   97c3c     H1 1951   3.670   7.038   7.096  3.0088  0.2998  1.0061
   97c3c     H1 1952   3.698   6.701   6.958 -2.2395 -0.3614  0.7359
   97c3c     H1 1953   3.745   6.858   6.920  1.5356  0.9344  1.9477
   97c3c     HC 1954   3.737   6.856   7.313 -0.3576  1.8348  1.4124
   97c3c     HC 1955   3.825   6.990   7.234  2.3570 -1.9752 -0.5217
   97c3c     HC 1956   3.828   6.704   7.153 -1.0061  0.0442  1.0457
   97c3c     HC 1957   3.912   6.843   7.067  0.5959 -0.1321  1.3555
   97c3c     H1 1958   3.439   6.773   7.201 -0.3555 -0.7535 -1.0073
   97c3c     H1 1959   3.504   6.656   7.083 -1.1041 -0.8148  1.2322
   97c3c     H1 1960   3.590   6.699   7.223  0.9996  0.8673 -1.0438
   97c3c     H1 1961   3.436   6.830   6.922 -0.6732  0.5461  0.1076
   97c3c     H1 1962   3.397   6.957   7.033 -1.3036 -0.6205 -2.6913
   97c3c     C2 1963   3.523   7.013   6.874  0.1358 -0.3577 -0.2647
   97c3c     HC 1964   3.613   6.988   6.818  1.0872 -0.2207  1.1883
   97c3c     HC 1965   3.544   7.106   6.928  0.0238  0.2247 -1.2108
   97c3c     CT 1966   3.400   7.029   6.775 -0.2611 -0.9276 -0.4407
   97c3c     HC 1967   3.329   7.094   6.825  1.0884  0.4958 -0.3379
   97c3c     HC 1968   3.332   6.944   6.762 -0.1950 -1.7068  3.6056
   97c3c     HC 1969   3.429   7.074   6.680 -1.3863  0.5360 -0.0894
   98c3c     N4 1970   3.802   1.704   6.730 -0.1273 -1.2937  0.1353
   98c3c     C1 1971   3.715   1.751   6.841  1.0615 -0.0993 -0.5518
   98c3c     C1 1972   3.791   1.815   6.634 -0.3765 -0.8594  0.2361
   98c3c     C2 1973   3.743   1.907   6.856  0.9031 -0.4847  0.1311
   98c3c     C2 1974   3.799   1.945   6.718  0.0597 -0.2325 -0.9234
   98c3c     C1 1975   3.939   1.687   6.787  0.9256 -0.2280 -0.4791
   98c3c     C1 1976   3.768   1.576   6.666 -0.5058  0.4924  0.2676
   98c3c     H1 1977   3.732   1.698   6.935  2.8844 -0.8215 -1.2870
   98c3c     H1 1978   3.612   1.739   6.808  0.1029  4.0644  0.6084
   98c3c     H1 1979   3.863   1.812   6.552 -2.3838  1.5119 -1.7122
   98c3c     H1 1980   3.696   1.818   6.581 -2.2681 -1.5164  3.4571
   98c3c     HC 1981   3.818   1.923   6.933 -1.2051 -1.5011  2.4724
   98c3c     HC 1982   3.650   1.961   6.874 -0.0962 -2.4143  0.9653
   98c3c     HC 1983   3.901   1.983   6.725  0.3540 -0.9160 -1.4617
   98c3c     HC 1984   3.734   2.018   6.671  0.4221  1.1985  0.7535
   98c3c     H1 1985   3.933   1.606   6.859 -0.9111  0.8509  0.6141
   98c3c     H1 1986   4.011   1.660   6.710  2.4493 -0.3113  0.9594
   98c3c     H1 1987   3.977   1.778   6.833  1.9385  0.0356 -1.8051
   98c3c     H1 1988   3.832   1.560   6.579 -2.4839  0.4893 -1.2074
   98c3c     H1 1989   3.781   1.485   6.726 -0.3253  1.0702  1.1156
   98c3c     C2 1990   3.619   1.566   6.618  0.1822 -0.5361  0.1873
   98c3c     HC 1991   3.564   1.657   6.594  1.2169 -0.1236 -0.6759
   98c3c     HC 1992   3.572   1.517   6.703 -2.4422 -0.3111 -1.0988
   98c3c     CT 1993   3.604   1.468   6.500  0.3445 -0.4934  0.5116
   98c3c     HC 1994   3.665   1.377   6.508  0.3811 -0.5149  0.0339
   98c3c     HC 1995   3.615   1.526   6.409 -0.6825 -1.0919 -0.0044
   98c3c     HC 1996   3.501   1.432   6.506 -0.5805  2.0949  0.7153
   99c3c     N4 1997   3.190   3.414   3.810  0.5399 -0.5644  0.3105
   99c3c     C1 1998   3.051   3.361   3.798 -0.7952 -0.2274 -0.0642
   99c3c     C1 1999   3.271   3.296   3.852 -0.5974 -0.2638 -0.0947
   99c3c     C2 2000   3.070   3.221   3.745 -0.7098  0.2495  0.5016
   99c3c     C2 2001   3.215   3.175   3.779 -0.2040 -0.3431 -0.3032
   99c3c     C1 2002   3.227   3.460   3.677 -0.0468  0.4252  0.1990
   99c3c     C1 2003   3.199   3.537   3.884  0.1852  0.9018  0.4799
   99c3c     H1 2004   2.979   3.419   3.739 -0.1244 -2.6398 -3.4129
   99c3c     H1 2005   3.001   3.343   3.892  0.1187  0.5183  0.5795
   99c3c     H1 2006   3.377   3.306   3.832 -1.0544 -0.7681 -2.9583
   99c3c     H1 2007   3.269   3.281   3.960 -0.8655  0.0317 -0.0582
   99c3c     HC 2008   3.060   3.224   3.636 -0.2511 -1.4051  0.4096
   99c3c     HC 2009   2.995   3.153   3.784 -0.4663  0.2577  0.9831
   99c3c     HC 2010   3.254   3.158   3.678  0.8451  1.6760 -0.2643
   99c3c     HC 2011   3.227   3.085   3.840  0.4821 -0.8895 -1.2211
   99c3c     H1 2012   3.151   3.526   3.635 -0.1585 -1.1330 -2.1185
   99c3c     H1 2013   3.322   3.512   3.684  0.3852 -0.2957 -0.2517
   99c3c     H1 2014   3.244   3.383   3.601 -0.2527 -1.0601  1.6200
   99c3c     H1 2015   3.295   3.587   3.880  0.5206  0.2430  0.1446
   99c3c     H1 2016   3.125   3.604   3.840  0.3703  0.1133 -1.0559
   99c3c     C2 2017   3.138   3.530   4.025 -0.4096  0.2246 -0.0932
   99c3c     HC 2018   3.149   3.431   4.069 -3.9695  1.1686  3.1377
   99c3c     HC 2019   3.031   3.542   4.010 -0.3295 -0.8068 -1.5661
   99c3c     CT 2020   3.202   3.627   4.128 -0.5206  0.2208  0.4306
   99c3c     HC 2021   3.134   3.621   4.213 -0.6495 -0.1779  0.3007
   99c3c     HC 2022   3.196   3.726   4.082  2.1754 -0.1276 -0.7952
   99c3c     HC 2023   3.305   3.608   4.157 -0.0300 -0.6340 -1.7841
  100c3c     N4 2024   3.126   0.862   6.329  0.7676  0.4096  0.3220
  100c3c     C1 2025   3.106   1.008   6.346 -0.5479 -0.7552 -0.4711
  100c3c     C1 2026   3.062   0.835   6.193 -0.0099  0.6702  0.4000
  100c3c     C2 2027   3.117   1.077   6.206  0.6236 -0.2390 -0.1269
  100c3c     C2 2028   3.083   0.968   6.107 -0.2705 -0.8701  0.1522
  100c3c     C1 2029   3.274   0.837   6.317  0.6429  0.4524  0.2589
  100c3c     C1 2030   3.076   0.790   6.448  0.0291  0.5763  0.0478
  100c3c     H1 2031   3.167   1.047   6.427 -2.9891  1.6744  0.2955
  100c3c     H1 2032   3.002   1.011   6.379 -0.6149 -3.2743 -0.3609
  100c3c     H1 2033   3.102   0.746   6.145 -1.3651 -0.6416  1.6627
  100c3c     H1 2034   2.955   0.821   6.206  0.1819 -2.2018 -0.8475
  100c3c     HC 2035   3.218   1.116   6.195  0.7484 -1.3134 -3.3728
  100c3c     HC 2036   3.054   1.166   6.208  0.9150 -0.0405  0.3082
  100c3c     HC 2037   3.162   0.958   6.033 -0.8497  0.6351 -0.6904
  100c3c     HC 2038   2.987   0.994   6.061  0.1412  2.1613  0.8881
  100c3c     H1 2039   3.330   0.836   6.410 -0.1560  1.8463  0.7838
  100c3c     H1 2040   3.300   0.742   6.271  1.5410 -0.1013  1.8787
  100c3c     H1 2041   3.323   0.913   6.255  0.5231 -0.0847 -0.5022
  100c3c     H1 2042   3.100   0.684   6.437 -0.5963  0.3953  0.3746
  100c3c     H1 2043   3.122   0.828   6.539  1.3114  2.3700 -1.3209
  100c3c     C2 2044   2.924   0.795   6.485 -0.2187  0.4783 -0.4034
  100c3c     HC 2045   2.869   0.777   6.392 -0.8172 -2.6738  0.4989
  100c3c     HC 2046   2.897   0.897   6.512 -0.1305  0.7403 -1.2923
  100c3c     CT 2047   2.886   0.687   6.587  0.4471  0.5986  0.1697
  100c3c     HC 2048   2.780   0.662   6.594  0.6814 -0.9241 -1.3493
  100c3c     HC 2049   2.929   0.714   6.683 -0.3710 -1.0666  1.0305
  100c3c     HC 2050   2.927   0.589   6.563 -0.7925  0.6547 -2.4228
  101fsi    FSI 2051   2.267   3.358   1.978  0.2231 -0.0986 -0.5975
  101fsi    SBT 2052   2.406   3.434   1.959  0.1961 -0.2989 -0.2374
  101fsi    NBT 2053   2.433   3.448   1.807 -0.2199 -0.3200  0.4580
  101fsi    OBT 2054   2.391   3.558   2.029 -0.3650 -0.2946  0.3306
  101fsi    OBT 2055   2.498   3.346   2.023  0.2441 -0.2456 -0.5366
  101fsi    SBT 2056   2.556   3.405   1.720  0.5964  0.1764 -0.1049
  101fsi    OBT 2057   2.519   3.330   1.602 -0.2390 -0.3444  0.7464
  101fsi    OBT 2058   2.676   3.374   1.791  0.4443 -0.0011 -0.4325
  101fsi    FSI 2059   2.590   3.550   1.660 -0.0704 -0.1274  0.0359
  102fsi    FSI 2060   5.139   1.757   5.961  0.1317 -0.2140 -0.0538
  102fsi    SBT 2061   5.014   1.721   6.041  0.3346  0.2599  0.0741
  102fsi    NBT 2062   4.981   1.578   5.989  0.3945 -0.2865 -0.8073
  102fsi    OBT 2063   5.056   1.726   6.180  0.4156 -0.0170  1.2789
  102fsi    OBT 2064   4.916   1.817   6.000  0.5819  0.2985  0.3610
  102fsi    SBT 2065   5.037   1.437   6.036 -0.2372  0.4737 -0.1331
  102fsi    OBT 2066   5.157   1.428   6.116  0.1768 -0.0850  0.2267
  102fsi    OBT 2067   5.034   1.341   5.932 -0.4953  0.2246  0.0047
  102fsi    FSI 2068   4.925   1.389   6.134 -0.2188 -0.1521 -0.8286
  103fsi    FSI 2069   3.543   4.360   0.158 -0.1404 -0.2639  0.2940
  103fsi    SBT 2070   3.479   4.415   0.292  0.0022 -0.3056 -0.4380
  103fsi    NBT 2071   3.573   4.362   0.403 -0.5632  0.0170 -0.1112
  103fsi    OBT 2072   3.472   4.555   0.279 -0.2279 -0.2260 -0.0539
  103fsi    OBT 2073   3.356   4.350   0.295  0.6739 -0.2848  0.5390
  103fsi    SBT 2074   3.710   4.413   0.463  0.5649  0.3516 -0.1689
  103fsi    OBT 2075   3.739   4.347   0.592 -0.0821  0.2192  0.2013
  103fsi    OBT 2076   3.736   4.553   0.443 -0.7924  0.4742 -0.2637
  103fsi    FSI 2077   3.809   4.344   0.365  0.2117  0.3494  0.0017
  104fsi    FSI 2078   3.867   2.788   3.803  0.1907 -0.7177 -0.4083
  104fsi    SBT 2079   3.726   2.727   3.858 -0.3362 -0.2910 -0.1770
  104fsi    NBT 2080   3.616   2.786   3.758 -0.5973  0.2684 -0.2628
  104fsi    OBT 2081   3.738   2.586   3.849  0.0712  0.4742  0.3269
  104fsi    OBT 2082   3.726   2.780   3.993 -0.2523 -0.5441 -0.6576
  104fsi    SBT 2083   3.499   2.884   3.786  0.2136 -0.2763 -0.2479
  104fsi    OBT 2084   3.442   2.869   3.913  0.3715 -0.4426 -0.4378
  104fsi    OBT 2085   3.417   2.896   3.666 -0.3591  0.4357 -0.0178
  104fsi    FSI 2086   3.570   3.015   3.798  0.0917 -0.0961 -0.1371
  105fsi    FSI 2087   3.116   0.502   6.042 -0.2502  0.4582 -0.0979
  105fsi    SBT 2088   2.965   0.482   6.051 -0.0894 -0.6013 -0.2855
  105fsi    NBT 2089   2.936   0.345   5.983  0.3446 -0.4761  0.1070
  105fsi    OBT 2090   2.945   0.478   6.192 -0.3830 -0.8053  0.2662
  105fsi    OBT 2091   2.915   0.596   5.978  0.2026 -0.5693  0.0695
  105fsi    SBT 2092   2.901   0.307   5.837  0.0549  0.3704 -0.1839
  105fsi    OBT 2093   2.947   0.171   5.807 -0.6641 -0.0964  0.4085
  105fsi    OBT 2094   2.935   0.406   5.739  0.1167  0.0183 -0.0081
  105fsi    FSI 2095   2.738   0.293   5.838 -0.1716 -0.7447  0.6595
  106fsi    FSI 2096   2.080   5.760   0.116 -0.3795  0.5046 -0.0768
  106fsi    SBT 2097   1.989   5.804  -0.006 -0.3063  0.2021 -0.1606
  106fsi    NBT 2098   1.972   5.679  -0.099  0.2990  0.0510  0.0725
  106fsi    OBT 2099   1.866   5.839   0.056 -0.2197 -0.4307 -0.8765
  106fsi    OBT 2100   2.061   5.912  -0.066  0.0206 -0.4702 -0.4747
  106fsi    SBT 2101   1.889   5.547  -0.077  0.6392  0.2127  0.1402
  106fsi    OBT 2102   1.834   5.499  -0.199 -0.0383  0.1331  0.1150
  106fsi    OBT 2103   1.804   5.536   0.038 -0.5831  0.0260 -0.5335
  106fsi    FSI 2104   2.008   5.442  -0.054  0.0464  0.3640 -0.6120
  107fsi    FSI 2105   3.279   1.056   6.758  0.4104  0.4138  0.2429
  107fsi    SBT 2106   3.345   1.195   6.708 -0.0586  0.2205 -0.0526
  107fsi    NBT 2107   3.465   1.230   6.808  0.0871  0.2680 -0.2210
  107fsi    OBT 2108   3.399   1.150   6.585 -0.5994  0.3871  0.6782
  107fsi    OBT 2109   3.236   1.289   6.702 -0.4999  0.0238 -0.2238
  107fsi    SBT 2110   3.475   1.343   6.921  0.5122 -0.3687 -0.2499
  107fsi    OBT 2111   3.375   1.446   6.916  0.0200  0.2166  0.3628
  107fsi    OBT 2112   3.607   1.390   6.931 -0.2064  0.5389  0.1571
  107fsi    FSI 2113   3.445   1.275   7.071 -0.7764  0.1966  0.4125
  108fsi    FSI 2114   4.189   6.987   6.948  0.2766  0.5311 -0.1790
  108fsi    SBT 2115   4.084   7.070   6.878 -0.0846  0.3136  0.0162
  108fsi    NBT 2116   4.010   7.141   6.993 -0.2814 -0.0355  0.0737
  108fsi    OBT 2117   4.160   7.161   6.794  0.1280  0.3764 -1.0329
  108fsi    OBT 2118   3.996   6.967   6.819  0.0541 -0.7298 -0.6657
  108fsi    SBT 2119   3.931   7.276   6.977  0.1834 -0.0164 -0.1667
  108fsi    OBT 2120   4.014   7.383   6.930 -0.3575 -0.0547 -0.0909
  108fsi    OBT 2121   3.842   7.300   7.092 -0.8034 -0.5961 -0.3466
  108fsi    FSI 2122   3.826   7.256   6.860 -0.0842  0.5787 -0.0253
  109fsi    FSI 2123   3.399   5.611   6.308 -0.1190 -0.0388  0.4224
  109fsi    SBT 2124   3.505   5.507   6.363  0.1693 -0.2611  0.2218
  109fsi    NBT 2125   3.571   5.434   6.237  0.6302 -0.0189  0.0158
  109fsi    OBT 2126   3.589   5.594   6.438  0.0466 -0.1055 -0.0743
  109fsi    OBT 2127   3.426   5.411   6.441 -0.1037  0.1832 -0.1739
  109fsi    SBT 2128   3.672   5.501   6.141 -0.5229  0.2561  0.1765
  109fsi    OBT 2129   3.791   5.423   6.140 -0.1384 -0.0034  0.0664
  109fsi    OBT 2130   3.685   5.641   6.173  1.3525 -0.5595  0.2244
  109fsi    FSI 2131   3.607   5.498   5.987 -0.0225  0.0001 -0.2928
  110fsi    FSI 2132   2.841   6.735   0.697 -0.4676  0.2311  0.2648
  110fsi    SBT 2133   2.858   6.683   0.552  0.0721  0.2733  0.5178
  110fsi    NBT 2134   2.892   6.530   0.576  0.4454  0.2374 -0.6673
  110fsi    OBT 2135   2.731   6.699   0.492  0.5711  0.0641  0.1547
  110fsi    OBT 2136   2.971   6.760   0.505 -0.1179 -0.1401  0.0411
  110fsi    SBT 2137   3.019   6.449   0.567  0.0954  0.4043  0.1751
  110fsi    OBT 2138   3.108   6.518   0.479 -0.4085  0.3500 -0.5061
  110fsi    OBT 2139   2.994   6.310   0.541 -0.2587  0.3813 -0.1237
  110fsi    FSI 2140   3.092   6.451   0.699  0.3003  0.2188  0.3488
  111fsi    FSI 2141   2.640   2.843   2.577 -0.0267 -0.1788  0.4995
  111fsi    SBT 2142   2.642   2.948   2.466  0.0610  0.1682  0.6370
  111fsi    NBT 2143   2.777   2.932   2.401  0.4017  0.3104  0.4505
  111fsi    OBT 2144   2.543   2.903   2.377  0.0341 -0.0869  0.0440
  111fsi    OBT 2145   2.622   3.074   2.539  0.2027 -0.0057 -0.0713
  111fsi    SBT 2146   2.916   2.988   2.449 -0.1214  0.3250  0.0818
  111fsi    OBT 2147   2.915   3.029   2.586 -0.0243  0.1473 -0.4756
  111fsi    OBT 2148   2.991   3.070   2.361 -0.2229 -0.1550  0.4951
  111fsi    FSI 2149   3.011   2.859   2.463 -0.0537 -0.6196  0.7398
  112fsi    FSI 2150   2.291   5.186   6.430 -0.5984  0.4557  0.4601
  112fsi    SBT 2151   2.299   5.314   6.522 -0.5806 -0.0748  0.2174
  112fsi    NBT 2152   2.377   5.414   6.444 -0.4538 -0.2585  0.4355
  112fsi    OBT 2153   2.169   5.369   6.536 -0.3116  0.0877  0.4103
  112fsi    OBT 2154   2.366   5.280   6.643 -0.3865  0.0357 -0.3120
  112fsi    SBT 2155   2.535   5.415   6.435  0.2176 -0.1250  0.0656
  112fsi    OBT 2156   2.578   5.491   6.322  0.3450  0.2023  0.3726
  112fsi    OBT 2157   2.600   5.289   6.467  0.2492 -0.5069  1.1249
  112fsi    FSI 2158   2.583   5.502   6.557  0.1701  0.2097 -0.0333
  113fsi    FSI 2159   3.063   5.969   6.211  0.1863 -0.4415 -0.3830
  113fsi    SBT 2160   3.201   5.893   6.245 -0.1053  0.2495 -0.0196
  113fsi    NBT 2161   3.212   5.798   6.119  0.2292 -0.1442  0.5661
  113fsi    OBT 2162   3.288   6.006   6.246  0.2702  0.6195 -0.7579
  113fsi    OBT 2163   3.181   5.822   6.370 -0.5644 -0.3065 -0.1441
  113fsi    SBT 2164   3.323   5.778   6.013 -0.1110 -0.0161  0.4833
  113fsi    OBT 2165   3.457   5.826   6.050  0.0497  0.0770  0.1087
  113fsi    OBT 2166   3.271   5.814   5.881  0.2434 -0.0402  0.2187
  113fsi    FSI 2167   3.340   5.620   6.009  0.0990  0.0159  0.2200
  114fsi    FSI 2168   2.523   5.773   6.603 -0.2103 -0.1032  0.2243
  114fsi    SBT 2169   2.409   5.876   6.588  0.3852  0.2570 -0.0646
  114fsi    NBT 2170   2.432   5.949   6.446  0.2511  0.5652  0.8466
  114fsi    OBT 2171   2.288   5.793   6.577  0.2766  0.2325 -0.2917
  114fsi    OBT 2172   2.427   5.949   6.709 -0.1755 -0.3473 -0.0702
  114fsi    SBT 2173   2.431   6.101   6.404  0.2896  0.3928  0.3226
  114fsi    OBT 2174   2.392   6.185   6.511 -0.0550  0.2646 -0.3010
  114fsi    OBT 2175   2.372   6.124   6.273 -1.0440  0.3378  0.3151
  114fsi    FSI 2176   2.579   6.124   6.384  0.5645  0.2598 -0.0043
  115fsi    FSI 2177   4.032   6.354   0.741  0.0462  0.3759 -0.1498
  115fsi    SBT 2178   4.102   6.486   0.702 -0.1713 -0.4006  0.0925
  115fsi    NBT 2179   4.230   6.435   0.619  0.6152 -0.1475  0.3503
  115fsi    OBT 2180   4.003   6.557   0.625  0.2980  0.5200 -0.1722
  115fsi    OBT 2181   4.142   6.542   0.829  0.0329  0.3222 -0.7060
  115fsi    SBT 2182   4.244   6.389   0.463  0.2025  0.2626 -0.3576
  115fsi    OBT 2183   4.361   6.429   0.390  0.1943  0.0676 -0.4723
  115fsi    OBT 2184   4.124   6.409   0.388  0.0815 -0.3102  0.4393
  115fsi    FSI 2185   4.243   6.228   0.470  0.5349 -0.3541  0.0318
  116fsi    FSI 2186   2.647   1.243   5.962 -0.0442 -0.1800  0.2945
  116fsi    SBT 2187   2.755   1.321   6.050 -0.1269  0.3302  0.3142
  116fsi    NBT 2188   2.773   1.234   6.177 -0.6064  0.1072 -0.0121
  116fsi    OBT 2189   2.868   1.317   5.963 -0.0373  0.1782 -0.0105
  116fsi    OBT 2190   2.695   1.449   6.075 -0.1831  0.4422 -1.1645
  116fsi    SBT 2191   2.681   1.203   6.297 -0.2343 -0.4780 -0.1939
  116fsi    OBT 2192   2.726   1.090   6.368  0.0428  0.1608  0.2027
  116fsi    OBT 2193   2.539   1.225   6.270 -0.3517 -0.1054  0.2731
  116fsi    FSI 2194   2.721   1.328   6.382 -0.0666 -0.1497 -0.3573
  117fsi    FSI 2195   3.330   5.017   6.642 -0.3234  0.3927 -0.2433
  117fsi    SBT 2196   3.291   5.145   6.732 -0.2934  0.4659  0.0671
  117fsi    NBT 2197   3.257   5.091   6.874  0.1418  0.1640  0.5884
  117fsi    OBT 2198   3.411   5.222   6.728  0.5448  0.3154  0.1743
  117fsi    OBT 2199   3.179   5.206   6.664  0.0110 -0.5059 -0.0648
  117fsi    SBT 2200   3.164   4.977   6.923 -0.0265 -0.3796  0.0294
  117fsi    OBT 2201   3.105   4.897   6.823  0.4969  0.4515  0.0234
  117fsi    OBT 2202   3.074   5.022   7.028  0.1668  0.3806  0.0783
  117fsi    FSI 2203   3.261   4.873   6.993 -0.6077 -0.1967  0.0204
  118fsi    FSI 2204   3.696   0.257   5.331  0.5407  0.2635  0.2697
  118fsi    SBT 2205   3.685   0.405   5.394 -0.0524  0.3421 -0.1102
  118fsi    NBT 2206   3.737   0.508   5.283  0.6744 -0.5200 -0.0649
  118fsi    OBT 2207   3.545   0.423   5.419  0.3057 -0.6526  0.5548
  118fsi    OBT 2208   3.764   0.393   5.516  0.5710  0.2504 -0.7081
  118fsi    SBT 2209   3.882   0.520   5.229 -0.0597  0.1867  0.1589
  118fsi    OBT 2210   3.980   0.440   5.299  0.2619 -0.1181 -0.0566
  118fsi    OBT 2211   3.918   0.658   5.208  0.1520 -0.5334  0.3734
  118fsi    FSI 2212   3.876   0.448   5.087  0.7424 -0.1745  0.4044
  119fsi    FSI 2213   4.158   5.986   0.173  0.6411  0.3332  0.1858
  119fsi    SBT 2214   4.164   5.833   0.204  0.4930 -0.3776  0.1125
  119fsi    NBT 2215   4.061   5.756   0.102  0.4045 -0.1055 -0.0959
  119fsi    OBT 2216   4.305   5.810   0.185  0.0177  0.2638 -0.4525
  119fsi    OBT 2217   4.110   5.816   0.339  0.5299 -0.0991 -0.2584
  119fsi    SBT 2218   4.091   5.679  -0.035  0.2393 -0.1886  0.0485
  119fsi    OBT 2219   4.014   5.557  -0.043  0.1524  0.3582 -0.3091
  119fsi    OBT 2220   4.227   5.678  -0.083 -0.3314 -0.1625  0.0402
  119fsi    FSI 2221   4.024   5.782  -0.136 -0.1068  0.1673 -0.3836
  120fsi    FSI 2222   3.954   5.147   0.383 -0.0346 -0.1255 -0.3228
  120fsi    SBT 2223   3.893   5.281   0.329 -0.0069 -0.4470  0.1501
  120fsi    NBT 2224   3.949   5.381   0.434 -0.0293 -0.1461 -0.0710
  120fsi    OBT 2225   3.931   5.293   0.190  0.5241 -0.5110  0.5125
  120fsi    OBT 2226   3.754   5.261   0.355 -0.3424 -0.2067  0.3206
  120fsi    SBT 2227   4.085   5.457   0.439  0.0899  0.2416 -0.4033
  120fsi    OBT 2228   4.078   5.577   0.518 -0.5721 -0.0226 -0.1528
  120fsi    OBT 2229   4.150   5.462   0.307  0.1785  0.1136  0.9671
  120fsi    FSI 2230   4.172   5.362   0.534  0.5530 -0.6251 -0.9551
  121fsi    FSI 2231   2.801   5.538   0.839 -0.2124 -0.4201 -0.5627
  121fsi    SBT 2232   2.848   5.596   0.701 -0.1950  0.3366  0.1094
  121fsi    NBT 2233   2.706   5.633   0.647 -0.0983  0.4022 -0.1052
  121fsi    OBT 2234   2.920   5.713   0.735 -0.3824  0.1606  0.1233
  121fsi    OBT 2235   2.916   5.484   0.642  0.3920  0.0001 -0.5862
  121fsi    SBT 2236   2.582   5.545   0.607  0.1222  0.5374 -0.2045
  121fsi    OBT 2237   2.614   5.404   0.599  0.9704 -0.6012 -0.0670
  121fsi    OBT 2238   2.509   5.607   0.501  0.6053  0.7488 -0.0580
  121fsi    FSI 2239   2.483   5.562   0.723  0.5717 -0.2717  0.2888
  122fsi    FSI 2240   3.258   4.611   3.951 -0.5468 -0.2044 -0.0867
  122fsi    SBT 2241   3.179   4.528   4.052 -0.3780 -0.0093  0.1692
  122fsi    NBT 2242   3.165   4.389   3.979 -0.5376  0.6794 -0.1537
  122fsi    OBT 2243   3.261   4.514   4.170 -0.4258  0.1992  1.0538
  122fsi    OBT 2244   3.052   4.593   4.055 -0.4168  0.3435  0.0447
  122fsi    SBT 2245   3.268   4.274   3.949 -0.1785 -0.1921  0.0705
  122fsi    OBT 2246   3.405   4.309   3.966 -0.3288  0.3859  0.6087
  122fsi    OBT 2247   3.237   4.200   3.828 -0.4196 -0.2585 -0.2984
  122fsi    FSI 2248   3.246   4.161   4.061 -0.7755  0.1606 -0.3079
  123fsi    FSI 2249   4.784   5.749   0.548 -0.1456  0.0464 -0.2971
  123fsi    SBT 2250   4.899   5.785   0.642 -0.1969 -0.3014  0.4645
  123fsi    NBT 2251   4.821   5.817   0.777 -0.4458 -0.2120  0.3504
  123fsi    OBT 2252   4.967   5.661   0.652  0.3083 -0.2450  0.5838
  123fsi    OBT 2253   4.971   5.892   0.579 -0.2057  0.1221  0.2016
  123fsi    SBT 2254   4.807   5.954   0.853  0.1510 -0.0254 -0.2437
  123fsi    OBT 2255   4.687   5.967   0.934  0.3393  0.3637  0.4617
  123fsi    OBT 2256   4.852   6.065   0.779  0.5228  0.0008 -0.3398
  123fsi    FSI 2257   4.924   5.932   0.960 -0.1632  0.8158  0.5583
  124fsi    FSI 2258   3.614   4.485   2.931 -0.0980  0.1995 -0.0025
  124fsi    SBT 2259   3.579   4.482   3.089 -0.2775  0.4003 -0.1028
  124fsi    NBT 2260   3.722   4.477   3.155  0.0153 -0.5254  0.2169
  124fsi    OBT 2261   3.515   4.610   3.112 -0.4427 -0.7802  0.1638
  124fsi    OBT 2262   3.497   4.365   3.093  0.4568  0.0112  0.2630
  124fsi    SBT 2263   3.787   4.354   3.232 -0.2882  0.3908  0.2552
  124fsi    OBT 2264   3.723   4.226   3.198 -0.1009 -0.3280  0.3402
  124fsi    OBT 2265   3.814   4.384   3.365  0.4949 -0.2227 -0.7464
  124fsi    FSI 2266   3.927   4.349   3.154 -0.2431  0.1403  0.0377
  125fsi    FSI 2267   2.922   4.451   0.458 -0.0377 -0.3012 -0.1781
  125fsi    SBT 2268   2.861   4.360   0.572 -0.3287 -0.0992 -0.0084
  125fsi    NBT 2269   2.734   4.432   0.612  0.9044  0.4205 -0.4116
  125fsi    OBT 2270   2.846   4.233   0.516 -0.1545  0.3536  0.0592
  125fsi    OBT 2271   2.954   4.375   0.675 -0.2705  0.1037 -0.3903
  125fsi    SBT 2272   2.678   4.464   0.755 -0.1317  0.5247  0.1756
  125fsi    OBT 2273   2.743   4.575   0.817  0.0222  0.0882 -0.4141
  125fsi    OBT 2274   2.658   4.343   0.827  0.5553 -0.2019 -0.4792
  125fsi    FSI 2275   2.533   4.519   0.721  0.5757  0.0264  0.3383
  126fsi    FSI 2276   2.665   4.064   3.328 -0.4167  0.3916  0.0510
  126fsi    SBT 2277   2.799   4.097   3.412  0.0103 -0.5305 -0.3107
  126fsi    NBT 2278   2.867   4.200   3.315 -0.4780 -0.0504  0.1155
  126fsi    OBT 2279   2.743   4.143   3.537 -0.5043 -0.0983 -0.4758
  126fsi    OBT 2280   2.875   3.975   3.409 -0.0710 -0.0579 -0.2596
  126fsi    SBT 2281   2.997   4.277   3.364  0.2293 -0.1625 -0.0836
  126fsi    OBT 2282   3.090   4.298   3.262 -0.5378  0.2998  0.3693
  126fsi    OBT 2283   3.035   4.255   3.503 -0.0926 -0.2429 -0.4880
  126fsi    FSI 2284   2.929   4.426   3.371 -0.1712 -0.0475  0.4201
  127fsi    FSI 2285   2.808   4.536   1.779 -0.2859 -0.0148  0.0345
  127fsi    SBT 2286   2.844   4.381   1.747  0.0921 -0.2106 -0.0150
  127fsi    NBT 2287   2.822   4.371   1.590 -0.5174  0.1913 -0.2281
  127fsi    OBT 2288   2.984   4.372   1.792  0.3487  0.2083  0.2286
  127fsi    OBT 2289   2.747   4.305   1.820 -0.0468 -0.6730 -0.2169
  127fsi    SBT 2290   2.689   4.368   1.510 -0.0652 -0.3258  0.2395
  127fsi    OBT 2291   2.688   4.473   1.410 -0.3621 -0.2077 -0.3603
  127fsi    OBT 2292   2.570   4.336   1.588 -0.5870  0.1114  0.1088
  127fsi    FSI 2293   2.710   4.234   1.424  0.4980  0.0047  0.2428
  128fsi    FSI 2294   3.620   0.451   6.333  0.5265  0.2345  0.6584
  128fsi    SBT 2295   3.539   0.424   6.204  0.6985 -0.4803  0.3512
  128fsi    NBT 2296   3.597   0.531   6.100 -0.4416  0.0086 -0.2206
  128fsi    OBT 2297   3.562   0.285   6.176  0.1877 -0.1757  0.3214
  128fsi    OBT 2298   3.403   0.462   6.249  0.3940  0.5911 -0.3359
  128fsi    SBT 2299   3.729   0.513   6.011  0.1150 -0.3501  0.0848
  128fsi    OBT 2300   3.716   0.550   5.872  0.5394 -0.6385  0.2913
  128fsi    OBT 2301   3.806   0.394   6.039 -0.1957  0.0441  0.3956
  128fsi    FSI 2302   3.814   0.635   6.064  0.7858 -0.6441 -0.1047
  129fsi    FSI 2303   5.557   1.236   5.781 -0.4231  0.1265 -0.7176
  129fsi    SBT 2304   5.522   1.334   5.901  0.5391 -0.2472 -0.0939
  129fsi    NBT 2305   5.591   1.273   6.017 -0.0471 -0.1239 -0.5083
  129fsi    OBT 2306   5.574   1.459   5.865 -0.6068 -0.2169  0.3490
  129fsi    OBT 2307   5.385   1.328   5.912 -0.3036 -0.0469  0.4901
  129fsi    SBT 2308   5.548   1.170   6.125  0.1106  0.2137 -0.1777
  129fsi    OBT 2309   5.404   1.156   6.148 -0.4202 -0.2142 -0.2157
  129fsi    OBT 2310   5.629   1.160   6.246 -0.4174 -0.1796  0.5340
  129fsi    FSI 2311   5.587   1.028   6.059 -0.4369  0.0175 -0.2237
  130fsi    FSI 2312   3.323   6.533   6.964 -0.3721  1.1293  0.5214
  130fsi    SBT 2313   3.323   6.522   6.804 -0.0118  0.1276 -0.4081
  130fsi    NBT 2314   3.167   6.530   6.776 -0.3408  0.1410  0.2935
  130fsi    OBT 2315   3.400   6.634   6.756  0.0159  0.8505  0.9116
  130fsi    OBT 2316   3.370   6.391   6.775  0.0985  0.4232  0.0463
  130fsi    SBT 2317   3.072   6.649   6.820  0.3059 -0.0131  0.2302
  130fsi    OBT 2318   3.127   6.745   6.915 -0.2008  0.2797 -0.1587
  130fsi    OBT 2319   2.937   6.607   6.848  0.2533 -0.1369  0.0696
  130fsi    FSI 2320   3.070   6.731   6.678 -0.3679 -0.5418 -0.1142
  131fsi    FSI 2321   2.456   6.498   7.139  0.5668  0.9063  0.0721
  131fsi    SBT 2322   2.333   6.454   7.217 -0.1300 -0.2678 -0.3063
  131fsi    NBT 2323   2.325   6.294   7.199 -0.2564 -0.9815  0.4919
  131fsi    OBT 2324   2.353   6.501   7.352  0.1435  0.4379  0.5590
  131fsi    OBT 2325   2.223   6.513   7.150 -0.3519 -0.0731  0.6513
  131fsi    SBT 2326   2.392   6.188   7.289 -0.1858  0.1879  0.0385
  131fsi    OBT 2327   2.500   6.227   7.376  0.0723 -0.5108  0.2837
  131fsi    OBT 2328   2.406   6.071   7.210  0.5016  0.1175  0.0890
  131fsi    FSI 2329   2.273   6.141   7.393 -0.4263  0.1529 -0.0867
  132fsi    FSI 2330   4.168   2.185   4.857  0.5467  0.1130  0.3998
  132fsi    SBT 2331   4.187   2.042   4.811  0.0777  0.2840 -0.1521
  132fsi    NBT 2332   4.079   2.022   4.696 -0.1676  0.2020  0.0340
  132fsi    OBT 2333   4.327   2.026   4.769  0.3055 -0.2361 -0.1424
  132fsi    OBT 2334   4.154   1.977   4.932  0.2776  0.2015 -0.0276
  132fsi    SBT 2335   4.096   2.024   4.540  0.0261  0.1920 -0.2414
  132fsi    OBT 2336   4.169   2.135   4.482 -0.0676 -0.0308  0.1615
  132fsi    OBT 2337   3.976   1.978   4.476  0.2354 -0.4959 -0.3044
  132fsi    FSI 2338   4.197   1.902   4.524 -0.0979 -0.2358  0.0482
  133fsi    FSI 2339   3.879   6.306   6.841  0.8802  0.3134 -0.2882
  133fsi    SBT 2340   3.736   6.374   6.804  0.2179  0.8571  0.1245
  133fsi    NBT 2341   3.649   6.362   6.934 -0.1962  0.2212 -0.2855
  133fsi    OBT 2342   3.763   6.513   6.775  0.2349 -0.0359  0.3305
  133fsi    OBT 2343   3.687   6.289   6.695 -0.3258 -0.3078  0.2751
  133fsi    SBT 2344   3.696   6.367   7.078 -0.0079 -0.2034  0.0883
  133fsi    OBT 2345   3.601   6.387   7.184 -0.1793  0.6029  0.3938
  133fsi    OBT 2346   3.812   6.446   7.093  0.7250  0.7492 -0.2965
  133fsi    FSI 2347   3.744   6.226   7.109 -0.1691 -0.0484 -0.6711
  134fsi    FSI 2348   3.744   6.010   0.461 -0.2416 -0.8852 -0.7701
  134fsi    SBT 2349   3.869   6.105   0.458 -0.1078  0.2369 -0.0568
  134fsi    NBT 2350   3.916   6.109   0.311  0.2129 -0.2491 -0.2284
  134fsi    OBT 2351   3.822   6.235   0.508 -0.1555  0.4098  0.0829
  134fsi    OBT 2352   3.968   6.043   0.542  0.1804 -0.3033  0.0725
  134fsi    SBT 2353   3.855   6.189   0.187  0.3606 -0.0810 -0.6116
  134fsi    OBT 2354   3.878   6.333   0.191 -0.1588  0.2633 -0.2815
  134fsi    OBT 2355   3.727   6.138   0.150 -0.2340  0.2258  0.6988
  134fsi    FSI 2356   3.949   6.139   0.064 -0.2012 -0.8152 -0.3007
  135fsi    FSI 2357   3.520   3.772   3.017 -0.5362 -0.5160 -0.1843
  135fsi    SBT 2358   3.636   3.800   3.126 -0.1510 -0.2240  0.0274
  135fsi    NBT 2359   3.772   3.796   3.046 -0.6316  0.0349 -0.5594
  135fsi    OBT 2360   3.604   3.931   3.175 -0.4563 -0.1171 -0.5785
  135fsi    OBT 2361   3.622   3.684   3.207 -0.2283  0.2006 -0.1451
  135fsi    SBT 2362   3.830   3.907   2.964 -0.5049  0.2420  0.2806
  135fsi    OBT 2363   3.741   4.012   2.922  0.0860  0.1804  0.4266
  135fsi    OBT 2364   3.915   3.848   2.861 -0.3903 -0.5122 -0.4728
  135fsi    FSI 2365   3.923   3.981   3.062 -0.0853  0.0892  0.5375
  136fsi    FSI 2366   4.130   2.183   6.472  0.5055 -0.2737  0.1983
  136fsi    SBT 2367   4.137   2.035   6.426  0.3328 -0.1109  0.3381
  136fsi    NBT 2368   4.156   1.953   6.558  0.4710 -0.5990 -0.5677
  136fsi    OBT 2369   4.009   2.010   6.371  0.8107 -0.3019 -0.6274
  136fsi    OBT 2370   4.251   2.033   6.337 -0.2581  0.3402 -0.7778
  136fsi    SBT 2371   4.279   1.889   6.627 -0.0500  0.5821 -0.1535
  136fsi    OBT 2372   4.376   1.830   6.538 -0.2758  0.5200 -0.0341
  136fsi    OBT 2373   4.249   1.826   6.750  0.2814 -0.1094 -0.1303
  136fsi    FSI 2374   4.366   2.011   6.676  0.2599  0.2365 -0.4001
  137fsi    FSI 2375   4.754   6.860   0.238 -0.1639 -0.6102  0.4276
  137fsi    SBT 2376   4.636   6.758   0.281  0.0332  0.2186 -0.2289
  137fsi    NBT 2377   4.672   6.705   0.426 -0.6835 -0.5073 -0.3712
  137fsi    OBT 2378   4.510   6.823   0.272 -0.3371  0.0844 -0.1237
  137fsi    OBT 2379   4.672   6.648   0.190 -0.1781  0.9869  0.7609
  137fsi    SBT 2380   4.609   6.740   0.562  0.1820  0.6499 -0.4733
  137fsi    OBT 2381   4.621   6.622   0.641  0.0895 -0.2658 -0.1870
  137fsi    OBT 2382   4.484   6.820   0.567 -0.0451  0.2196  0.0796
  137fsi    FSI 2383   4.725   6.839   0.624 -0.0243 -0.3098 -0.0551
  138fsi    FSI 2384   4.520   0.285   6.574 -0.0329  0.0488 -0.0611
  138fsi    SBT 2385   4.660   0.367   6.574  0.0691 -0.1779  0.1013
  138fsi    NBT 2386   4.664   0.421   6.723 -0.3723 -0.5398  0.3682
  138fsi    OBT 2387   4.765   0.266   6.551  0.2678  0.6757 -0.2565
  138fsi    OBT 2388   4.648   0.472   6.475 -0.3150  0.1242 -0.2668
  138fsi    SBT 2389   4.578   0.526   6.793  0.0969  0.2252  0.3129
  138fsi    OBT 2390   4.480   0.471   6.887 -0.1549 -0.7929 -0.3754
  138fsi    OBT 2391   4.527   0.621   6.697  0.0567 -0.0610 -0.7117
  138fsi    FSI 2392   4.690   0.595   6.882 -0.3081  0.4227 -0.3244
  139fsi    FSI 2393   4.122   7.212   5.956 -0.5300 -0.3950 -0.1722
  139fsi    SBT 2394   3.973   7.207   5.989 -0.3098  0.0441  0.5483
  139fsi    NBT 2395   3.914   7.175   5.845  0.0222  0.4624 -0.3819
  139fsi    OBT 2396   3.978   7.095   6.078 -0.2742 -0.0088 -0.7019
  139fsi    OBT 2397   3.944   7.332   6.049 -0.1425  0.5919 -0.1386
  139fsi    SBT 2398   3.808   7.249   5.766 -0.1325 -0.4152  0.0506
  139fsi    OBT 2399   3.768   7.372   5.834 -0.1934 -0.4468  0.5143
  139fsi    OBT 2400   3.707   7.169   5.707 -0.1872  0.1023  0.3184
  139fsi    FSI 2401   3.894   7.305   5.646 -0.6109 -0.0597  0.2674
  140fsi    FSI 2402   3.256   6.380   0.265  0.5767 -0.2966 -0.9936
  140fsi    SBT 2403   3.336   6.490   0.191 -0.4455  0.1052 -0.0661
  140fsi    NBT 2404   3.475   6.469   0.245 -0.6001  0.1146  0.0236
  140fsi    OBT 2405   3.325   6.464   0.050 -0.0065 -0.0724 -0.4667
  140fsi    OBT 2406   3.277   6.614   0.234  0.4627 -0.2266 -0.2243
  140fsi    SBT 2407   3.551   6.547   0.356  0.3249 -0.0517 -0.6587
  140fsi    OBT 2408   3.669   6.480   0.399 -0.0860 -0.1847  0.3814
  140fsi    OBT 2409   3.461   6.598   0.454  0.1998  0.3274 -0.0126
  140fsi    FSI 2410   3.613   6.675   0.277  0.7482 -0.0873 -0.5769
  141fsi    FSI 2411   3.322   4.354   2.772 -0.2278  0.1610 -0.2568
  141fsi    SBT 2412   3.194   4.290   2.830  0.1615  0.0075 -0.1747
  141fsi    NBT 2413   3.202   4.134   2.804 -0.0635 -0.0313 -0.4006
  141fsi    OBT 2414   3.185   4.334   2.968 -0.3387 -0.0303  0.7861
  141fsi    OBT 2415   3.098   4.336   2.741  1.0421 -0.1491  0.2622
  141fsi    SBT 2416   3.295   4.020   2.864 -0.2164 -0.0051  0.0006
  141fsi    OBT 2417   3.220   3.899   2.892 -0.3082 -0.3225 -0.7211
  141fsi    OBT 2418   3.395   4.066   2.957 -0.3894  0.3379 -0.5227
  141fsi    FSI 2419   3.384   3.985   2.735 -0.0573 -0.3684  0.6357
  142fsi    FSI 2420   4.855   6.029   0.080  0.3702 -0.2719 -0.2171
  142fsi    SBT 2421   4.787   6.028   0.214  0.1570 -0.4267  0.0006
  142fsi    NBT 2422   4.752   6.178   0.236 -0.2614 -0.5219  0.0397
  142fsi    OBT 2423   4.674   5.940   0.205  0.3309  0.7138  0.1732
  142fsi    OBT 2424   4.889   5.983   0.307  0.1489 -0.7088  0.2521
  142fsi    SBT 2425   4.828   6.292   0.311  0.5092 -0.1220 -0.1811
  142fsi    OBT 2426   4.937   6.245   0.390  0.1437  0.0567  0.1698
  142fsi    OBT 2427   4.733   6.382   0.371  0.2414 -0.0685  0.1957
  142fsi    FSI 2428   4.895   6.387   0.196 -0.0946 -0.2889  0.0216
  143fsi    FSI 2429   4.722   0.548   5.544 -0.4671  0.0300  0.5613
  143fsi    SBT 2430   4.741   0.391   5.554  0.1061  0.1130 -0.0301
  143fsi    NBT 2431   4.621   0.331   5.480  0.3305  0.3089  0.0159
  143fsi    OBT 2432   4.871   0.363   5.502  0.4509 -0.3328 -0.5716
  143fsi    OBT 2433   4.730   0.375   5.696  0.0387  0.0217 -0.2970
  143fsi    SBT 2434   4.584   0.343   5.327  0.4594  0.1969 -0.0700
  143fsi    OBT 2435   4.664   0.437   5.254  0.1429 -0.3070 -0.3675
  143fsi    OBT 2436   4.442   0.348   5.304  0.1768  0.1619  0.3874
  143fsi    FSI 2437   4.617   0.201   5.264  0.2509 -0.3400 -0.0131
  144fsi    FSI 2438   4.962   1.447   7.082  0.3936 -0.2027  0.6310
  144fsi    SBT 2439   5.031   1.494   6.946  0.1085  0.0668  0.3782
  144fsi    NBT 2440   5.049   1.355   6.874 -0.3989  0.3896  0.7622
  144fsi    OBT 2441   4.939   1.585   6.881  0.5758 -0.0642 -0.0623
  144fsi    OBT 2442   5.154   1.547   6.996  0.0208 -0.2509 -0.3880
  144fsi    SBT 2443   4.937   1.258   6.819 -0.4316  0.0078 -0.1162
  144fsi    OBT 2444   4.970   1.210   6.691 -0.2742  0.3934 -1.0611
  144fsi    OBT 2445   4.808   1.315   6.845  0.1869 -0.6685  0.2456
  144fsi    FSI 2446   4.944   1.135   6.919  0.1282 -0.4930 -0.1338
  145fsi    FSI 2447   4.089   2.035   5.245 -0.2341  0.1010  0.2316
  145fsi    SBT 2448   4.080   1.924   5.357  0.2480  0.2280  0.2200
  145fsi    NBT 2449   4.225   1.855   5.349  0.0649  0.5140 -0.0142
  145fsi    OBT 2450   4.060   2.005   5.468  0.2607  0.2809  0.5122
  145fsi    OBT 2451   3.974   1.833   5.321 -0.0830  0.0407  0.6416
  145fsi    SBT 2452   4.357   1.861   5.438 -0.0860 -0.2209  0.0169
  145fsi    OBT 2453   4.441   1.753   5.396  0.0347 -0.7471 -0.4706
  145fsi    OBT 2454   4.333   1.875   5.575  0.1437 -0.1488  0.2327
  145fsi    FSI 2455   4.435   2.000   5.399 -0.2724 -0.2128 -0.2857
  146fsi    FSI 2456   2.346   5.191   0.140 -0.4626  0.0391 -0.4430
  146fsi    SBT 2457   2.491   5.183   0.090 -0.1416 -0.1042 -0.0601
  146fsi    NBT 2458   2.479   5.046   0.018  0.1490 -0.0165  0.5037
  146fsi    OBT 2459   2.498   5.290  -0.003  0.4880 -0.3363 -0.3370
  146fsi    OBT 2460   2.567   5.190   0.215 -0.5908 -0.1721 -0.1815
  146fsi    SBT 2461   2.580   4.927   0.004  0.1394  0.0277  0.2237
  146fsi    OBT 2462   2.718   4.970   0.022 -0.0990 -0.2482  0.1081
  146fsi    OBT 2463   2.550   4.839  -0.102  0.4338  0.4951  0.1777
  146fsi    FSI 2464   2.549   4.836   0.134  0.0343 -0.4441 -0.7829
  147fsi    FSI 2465   3.212   4.948   0.097 -0.3867 -0.6231  0.0311
  147fsi    SBT 2466   3.223   4.894   0.247 -0.5735  0.0209  0.4697
  147fsi    NBT 2467   3.371   4.937   0.292 -0.2056 -0.6119 -0.0328
  147fsi    OBT 2468   3.115   4.955   0.324  0.3618 -0.0868  0.2971
  147fsi    OBT 2469   3.221   4.753   0.236 -0.0747 -0.3344 -0.1708
  147fsi    SBT 2470   3.429   5.064   0.367 -0.2985  0.4835  0.7189
  147fsi    OBT 2471   3.546   5.037   0.439 -0.0289 -0.0170  0.0629
  147fsi    OBT 2472   3.336   5.153   0.424 -0.4654 -0.0473 -0.0546
  147fsi    FSI 2473   3.487   5.146   0.254  0.3915  0.0505  0.0106
  148fsi    FSI 2474   4.071   0.820   5.985  0.0677 -0.5709 -0.3703
  148fsi    SBT 2475   4.210   0.880   6.040  0.3459 -0.5313 -0.8173
  148fsi    NBT 2476   4.300   0.752   6.077  0.3205  0.3823 -0.3490
  148fsi    OBT 2477   4.262   0.960   5.932 -0.1860 -0.4170  0.6941
  148fsi    OBT 2478   4.173   0.948   6.163 -0.8787  0.2346  0.2116
  148fsi    SBT 2479   4.270   0.642   6.191 -0.1508  0.1182  0.1880
  148fsi    OBT 2480   4.276   0.512   6.135  0.1074 -0.5170  0.4174
  148fsi    OBT 2481   4.153   0.673   6.272 -0.2280 -0.1938  0.5392
  148fsi    FSI 2482   4.391   0.653   6.299  0.2526 -0.3858  0.3813
  149fsi    FSI 2483   3.862   6.145   0.882 -0.6058 -0.7181  0.0789
  149fsi    SBT 2484   3.765   6.231   0.974 -0.0133  0.2569  0.2941
  149fsi    NBT 2485   3.655   6.125   1.006 -0.4198  0.1545 -0.2250
  149fsi    OBT 2486   3.854   6.254   1.090 -0.0389 -0.3651 -0.0078
  149fsi    OBT 2487   3.723   6.336   0.882 -0.3314 -0.6217  0.1206
  149fsi    SBT 2488   3.660   6.000   1.106 -0.1547  0.4467  0.6059
  149fsi    OBT 2489   3.780   5.985   1.178  0.0801 -0.3373 -0.7029
  149fsi    OBT 2490   3.586   5.883   1.057  0.0751 -0.2677 -0.6326
  149fsi    FSI 2491   3.565   6.050   1.208  0.3356  0.4509 -0.8005
  150fsi    FSI 2492   4.847   1.194   4.935 -0.3617  0.2145 -0.3726
  150fsi    SBT 2493   4.831   1.219   5.093  0.2341 -0.1954  0.7349
  150fsi    NBT 2494   4.673   1.215   5.103  0.2003 -0.2884  0.5130
  150fsi    OBT 2495   4.890   1.104   5.152  0.5315  0.1231 -0.2505
  150fsi    OBT 2496   4.895   1.346   5.103 -0.0918 -0.3646  0.2956
  150fsi    SBT 2497   4.567   1.333   5.126  0.2552 -0.1803  0.0893
  150fsi    OBT 2498   4.458   1.332   5.037  0.1240  0.6222  0.0034
  150fsi    OBT 2499   4.619   1.457   5.165  0.5334 -0.1263  0.3873
  150fsi    FSI 2500   4.506   1.285   5.253 -0.5966 -0.6415 -0.2212
  151fsi    FSI 2501   3.059   4.214   1.419 -0.4953  0.1606  0.2563
  151fsi    SBT 2502   3.180   4.119   1.481 -0.0267 -0.1645 -0.0828
  151fsi    NBT 2503   3.105   4.002   1.552  0.3057 -0.2806  0.1328
  151fsi    OBT 2504   3.254   4.075   1.365  0.2474 -0.3026 -0.6042
  151fsi    OBT 2505   3.239   4.207   1.578 -0.5401 -0.6219 -0.4487
  151fsi    SBT 2506   3.068   3.971   1.703  0.2793 -0.4953 -0.0024
  151fsi    OBT 2507   2.988   3.858   1.712 -0.8673 -0.2020 -0.1855
  151fsi    OBT 2508   3.036   4.078   1.791  0.6566 -0.0331 -0.4835
  151fsi    FSI 2509   3.207   3.915   1.754 -0.3413 -0.2222 -0.4460
  152fsi    FSI 2510   4.613   0.063   0.376  0.1824 -0.2485 -0.1424
  152fsi    SBT 2511   4.481  -0.011   0.333 -0.3181  0.0658 -0.4247
  152fsi    NBT 2512   4.447  -0.120   0.439  0.4548  0.3883 -0.0744
  152fsi    OBT 2513   4.380   0.096   0.319 -0.3190  0.1757  0.0712
  152fsi    OBT 2514   4.528  -0.073   0.213  0.8802  0.3610 -0.2156
  152fsi    SBT 2515   4.340  -0.108   0.554  0.3734 -0.2214  0.2075
  152fsi    OBT 2516   4.245  -0.216   0.547 -0.8372 -0.0539 -0.8184
  152fsi    OBT 2517   4.287   0.021   0.590  0.1326  0.1186 -0.3786
  152fsi    FSI 2518   4.420  -0.148   0.678  0.2446 -0.2978 -0.2905
  153fsi    FSI 2519   3.289   2.849   1.789  0.3650 -0.1313 -0.7163
  153fsi    SBT 2520   3.257   3.003   1.741  0.0178  0.0296  0.0457
  153fsi    NBT 2521   3.148   2.992   1.628  0.0139 -0.6627  0.6398
  153fsi    OBT 2522   3.200   3.066   1.858 -0.4200 -0.1528  0.2400
  153fsi    OBT 2523   3.389   3.051   1.699 -0.3888 -0.8505 -0.3291
  153fsi    SBT 2524   3.026   2.910   1.637 -0.0352 -0.5048  0.3190
  153fsi    OBT 2525   2.907   2.982   1.603 -0.1031 -0.6520  0.3316
  153fsi    OBT 2526   3.006   2.819   1.746  0.4857  0.0261  0.1516
  153fsi    FSI 2527   3.051   2.820   1.519  0.1373 -0.0747  0.4702
  154fsi    FSI 2528   3.919   1.041   4.905  0.1558 -0.3411 -0.7596
  154fsi    SBT 2529   3.973   1.185   4.958 -0.0955  0.2196  0.2032
  154fsi    NBT 2530   4.033   1.146   5.101  0.2675 -0.6068  0.4797
  154fsi    OBT 2531   4.069   1.220   4.856 -0.0294  0.2309 -0.0672
  154fsi    OBT 2532   3.855   1.263   4.964 -0.2454  0.1090  0.1777
  154fsi    SBT 2533   3.961   1.111   5.240  0.0964  0.1842  0.6835
  154fsi    OBT 2534   3.815   1.121   5.251  0.0621 -0.1269  0.3373
  154fsi    OBT 2535   4.038   1.142   5.353  0.1214 -0.9587 -0.3641
  154fsi    FSI 2536   3.970   0.955   5.234 -0.1340  0.4379  0.1120
  155fsi    FSI 2537   2.997   1.847   6.852  0.5393  0.5373 -0.2773
  155fsi    SBT 2538   3.034   1.772   6.714  0.1994 -0.3547  0.1209
  155fsi    NBT 2539   3.172   1.832   6.669 -0.2009 -0.0424  0.4585
  155fsi    OBT 2540   3.041   1.633   6.748 -0.5620  0.1897 -0.1339
  155fsi    OBT 2541   2.933   1.815   6.619  0.6998 -0.5861 -0.4026
  155fsi    SBT 2542   3.315   1.783   6.711 -0.2484 -0.1977  0.2681
  155fsi    OBT 2543   3.414   1.865   6.652 -0.0164 -0.0948  0.3117
  155fsi    OBT 2544   3.337   1.642   6.707  0.1242  0.0073 -0.5979
  155fsi    FSI 2545   3.329   1.823   6.859  0.1139  0.0689  0.1958
  156fsi    FSI 2546   3.851   5.965   5.833  0.0040  0.1840  0.7624
  156fsi    SBT 2547   3.904   5.982   5.979  0.1929 -0.1477 -0.1177
  156fsi    NBT 2548   3.915   6.137   6.002  0.5831  0.1268 -0.2812
  156fsi    OBT 2549   3.797   5.922   6.055 -0.7351  0.1604 -0.3819
  156fsi    OBT 2550   4.027   5.912   5.971 -0.1633  0.0413 -0.1166
  156fsi    SBT 2551   4.038   6.233   6.031 -0.4010  0.1423 -0.4366
  156fsi    OBT 2552   4.150   6.169   6.092 -0.3193 -0.2467 -0.1169
  156fsi    OBT 2553   4.001   6.366   6.080 -0.0130  0.0680 -0.0714
  156fsi    FSI 2554   4.096   6.263   5.886 -0.0720 -0.4369 -0.1440
  157fsi    FSI 2555   2.734   3.441   0.987  0.4957 -0.0741 -0.2942
  157fsi    SBT 2556   2.722   3.572   0.903 -0.0943 -0.3542  0.2343
  157fsi    NBT 2557   2.819   3.530   0.789 -0.5383  0.0399  0.3852
  157fsi    OBT 2558   2.588   3.580   0.856  0.0449 -0.0477  0.6804
  157fsi    OBT 2559   2.767   3.678   0.988 -0.0544  0.2189  0.3930
  157fsi    SBT 2560   2.926   3.615   0.713  0.2045 -0.0055  0.2114
  157fsi    OBT 2561   3.056   3.592   0.764  0.4836 -0.5618 -0.1716
  157fsi    OBT 2562   2.890   3.747   0.673  0.6437 -0.2207  0.6943
  157fsi    FSI 2563   2.921   3.535   0.575 -0.0415  0.1749  0.2424
  158fsi    FSI 2564   3.092   6.320   7.050  0.8966  0.1597  0.6248
  158fsi    SBT 2565   3.089   6.205   7.156 -0.4143 -0.2334  0.2652
  158fsi    NBT 2566   3.233   6.165   7.196  0.0660  0.2492 -0.2776
  158fsi    OBT 2567   3.030   6.269   7.266 -0.4184  0.0526 -0.2177
  158fsi    OBT 2568   3.009   6.101   7.093  0.4477  0.4480  0.0431
  158fsi    SBT 2569   3.340   6.085   7.117  0.4028  0.2311  0.4325
  158fsi    OBT 2570   3.467   6.100   7.176 -0.0052  0.3978  0.6525
  158fsi    OBT 2571   3.335   6.113   6.975 -0.5023  0.4395 -0.2970
  158fsi    FSI 2572   3.292   5.938   7.138 -0.2895  0.1823  0.2950
  159fsi    FSI 2573   5.275   0.844   6.036 -0.0971 -0.7752  0.6341
  159fsi    SBT 2574   5.133   0.920   6.032  0.0871 -0.0280  0.3911
  159fsi    NBT 2575   5.078   0.932   6.177  0.2771  0.4324  0.0345
  159fsi    OBT 2576   5.166   1.048   5.973  0.0137 -0.3694  0.3326
  159fsi    OBT 2577   5.049   0.832   5.956 -0.3503 -0.1898 -0.0415
  159fsi    SBT 2578   5.107   1.030   6.293  0.0452 -0.1426  0.0049
  159fsi    OBT 2579   5.012   1.012   6.400  0.1497 -0.4718  0.0349
  159fsi    OBT 2580   5.133   1.165   6.265  0.1507  0.1931  0.2982
  159fsi    FSI 2581   5.243   0.979   6.360 -0.2222 -0.1437 -0.0657
  160fsi    FSI 2582   3.082   3.872   3.902  0.3136  0.3476 -0.1835
  160fsi    SBT 2583   3.083   3.863   3.744 -0.4800 -0.2311 -0.0682
  160fsi    NBT 2584   2.973   3.761   3.714 -0.2272  0.5394  0.1628
  160fsi    OBT 2585   3.052   3.995   3.707  0.0284  0.1806  0.1102
  160fsi    OBT 2586   3.215   3.813   3.713  0.3743  0.1068  0.1310
  160fsi    SBT 2587   2.814   3.760   3.739  0.1333 -0.0668  0.1044
  160fsi    OBT 2588   2.738   3.746   3.616 -0.4404 -0.4603 -0.6686
  160fsi    OBT 2589   2.771   3.848   3.843  0.5000 -0.2024  0.0702
  160fsi    FSI 2590   2.793   3.618   3.808 -0.2443  0.3824  0.0410
  161fsi    FSI 2591   2.108   0.491   6.595  0.1473  0.3628 -0.0380
  161fsi    SBT 2592   2.219   0.423   6.522 -0.1921  0.5434 -0.1703
  161fsi    NBT 2593   2.346   0.469   6.604  0.7677 -0.8568  0.2414
  161fsi    OBT 2594   2.184   0.284   6.528  0.6378  0.1090  0.2906
  161fsi    OBT 2595   2.217   0.479   6.395  0.3105  0.0708  0.0684
  161fsi    SBT 2596   2.438   0.405   6.710  0.2703 -0.0199  0.1313
  161fsi    OBT 2597   2.553   0.492   6.726  0.0475 -0.3568  0.1607
  161fsi    OBT 2598   2.463   0.263   6.689 -0.0232 -0.0066 -0.1091
  161fsi    FSI 2599   2.352   0.416   6.846 -0.4223  0.2585 -0.0290
  162fsi    FSI 2600   3.085   0.820   5.398  0.5367  0.5808 -0.3804
  162fsi    SBT 2601   3.076   0.686   5.480  0.0823 -0.3772 -0.3583
  162fsi    NBT 2602   3.204   0.707   5.570 -0.0162 -0.1800 -0.7505
  162fsi    OBT 2603   2.945   0.701   5.543 -0.0445 -0.2798  0.1447
  162fsi    OBT 2604   3.096   0.590   5.369 -0.5141  0.0096 -0.3339
  162fsi    SBT 2605   3.223   0.741   5.722 -0.2834 -0.3279 -0.0655
  162fsi    OBT 2606   3.331   0.672   5.787  0.5159 -0.0089  0.0039
  162fsi    OBT 2607   3.100   0.751   5.796 -0.0960 -0.0242  0.6286
  162fsi    FSI 2608   3.273   0.885   5.716 -0.2646  0.1241 -0.0743
  163fsi    FSI 2609   4.672   5.988   6.838  0.5400  0.1878 -0.4948
  163fsi    SBT 2610   4.533   5.905   6.840 -0.0544 -0.0218 -0.1310
  163fsi    NBT 2611   4.516   5.877   6.994  0.6229 -0.6337  0.2115
  163fsi    OBT 2612   4.436   5.990   6.788 -0.0562 -0.0858 -0.3740
  163fsi    OBT 2613   4.563   5.791   6.757  0.1321 -0.2602  0.1010
  163fsi    SBT 2614   4.568   5.755   7.077 -0.1649 -0.1960  0.4898
  163fsi    OBT 2615   4.572   5.626   7.005 -0.4954  0.1913 -0.2468
  163fsi    OBT 2616   4.529   5.757   7.217 -0.3983  0.1282  0.6407
  163fsi    FSI 2617   4.727   5.801   7.094 -0.0377 -0.1566 -0.1338
  164fsi    FSI 2618   1.775   6.183   6.396  0.2725 -0.2519  0.0446
  164fsi    SBT 2619   1.832   6.085   6.507  0.0662  0.2341  0.1662
  164fsi    NBT 2620   1.773   5.951   6.473 -0.5989  0.5069  0.4251
  164fsi    OBT 2621   1.972   6.079   6.486  0.2190  0.1065  0.2939
  164fsi    OBT 2622   1.785   6.143   6.632  0.4387  0.3324  0.0154
  164fsi    SBT 2623   1.623   5.917   6.452  0.1991  0.2930 -0.0715
  164fsi    OBT 2624   1.529   6.026   6.459  0.2200  0.2622 -0.0854
  164fsi    OBT 2625   1.588   5.789   6.506  0.3320  0.2223  1.3472
  164fsi    FSI 2626   1.633   5.895   6.299  0.2319 -0.1855  0.0883
  165fsi    FSI 2627   2.797   3.894   2.399 -0.0630 -0.2213 -0.6242
  165fsi    SBT 2628   2.680   3.984   2.358 -0.1149 -0.2525 -0.1105
  165fsi    NBT 2629   2.622   4.012   2.504  0.2281 -0.2666 -0.1659
  165fsi    OBT 2630   2.750   4.096   2.299  0.2352 -0.1314  0.3449
  165fsi    OBT 2631   2.607   3.902   2.268 -0.0100  0.8741 -0.1192
  165fsi    SBT 2632   2.475   4.050   2.539 -0.2112 -0.1869  0.2870
  165fsi    OBT 2633   2.394   4.072   2.420 -0.1266  0.3387  0.3943
  165fsi    OBT 2634   2.469   4.140   2.649  0.1458 -0.6120 -0.1997
  165fsi    FSI 2635   2.413   3.911   2.593  0.1812  0.9452  0.2163
  166fsi    FSI 2636   3.965   3.825   1.503  0.5121 -0.1662 -0.2517
  166fsi    SBT 2637   4.118   3.867   1.477  0.0865  0.0864 -0.0041
  166fsi    NBT 2638   4.169   3.913   1.616 -0.1831 -0.3952  0.6507
  166fsi    OBT 2639   4.182   3.749   1.425 -0.6384 -1.0463  0.3388
  166fsi    OBT 2640   4.104   3.976   1.383 -0.3345  0.0174  0.2017
  166fsi    SBT 2641   4.189   3.817   1.745 -0.2007  0.1365  0.1111
  166fsi    OBT 2642   4.110   3.696   1.743  0.5397  0.1667 -0.2178
  166fsi    OBT 2643   4.180   3.892   1.870  0.3465  0.0805 -0.2370
  166fsi    FSI 2644   4.348   3.783   1.730  0.4282  0.2581 -0.2262
  167fsi    FSI 2645   3.342   2.808   2.721  0.1506 -0.1208 -0.0969
  167fsi    SBT 2646   3.365   2.916   2.830  0.0133  0.2260  0.2327
  167fsi    NBT 2647   3.515   2.884   2.863  0.0875  0.2018  0.7673
  167fsi    OBT 2648   3.335   3.036   2.759 -0.4795 -0.5854 -0.0795
  167fsi    OBT 2649   3.275   2.871   2.932  0.1960  0.6854  0.2374
  167fsi    SBT 2650   3.645   2.937   2.791  0.2786 -0.0652 -0.3584
  167fsi    OBT 2651   3.635   2.941   2.650 -0.3127 -0.8012  0.0317
  167fsi    OBT 2652   3.765   2.881   2.849  0.3109  0.0215  0.7331
  167fsi    FSI 2653   3.644   3.089   2.832  0.2948  0.2865  0.0297
  168fsi    FSI 2654   3.913   0.658   7.089  0.5663  0.2761 -0.0661
  168fsi    SBT 2655   3.987   0.526   7.109 -0.9340 -0.5290 -0.5774
  168fsi    NBT 2656   4.053   0.553   7.250  0.6672  0.3532  0.2762
  168fsi    OBT 2657   3.876   0.434   7.114  0.0345 -0.4259 -0.1521
  168fsi    OBT 2658   4.073   0.513   6.992  0.3151 -0.5841 -1.0161
  168fsi    SBT 2659   4.205   0.574   7.281  0.2357  0.2234 -0.1147
  168fsi    OBT 2660   4.299   0.515   7.189  0.9967 -0.7372  0.0959
  168fsi    OBT 2661   4.239   0.555   7.417  0.5884  0.7578  0.1371
  168fsi    FSI 2662   4.216   0.731   7.255 -1.1056  0.7055 -0.4074
  169fsi    FSI 2663   3.038   5.730   7.064 -0.2263  1.1703  0.0580
  169fsi    SBT 2664   2.884   5.695   7.037 -0.3870  0.3003  0.0072
  169fsi    NBT 2665   2.851   5.756   6.898  0.1020  0.0524 -0.4381
  169fsi    OBT 2666   2.894   5.548   7.041  0.5093 -0.2870 -0.5153
  169fsi    OBT 2667   2.826   5.758   7.153  0.4375  0.2169 -0.4373
  169fsi    SBT 2668   2.864   5.694   6.755 -0.1030 -0.1377  0.0360
  169fsi    OBT 2669   2.954   5.583   6.737  0.1399  0.2558  0.5583
  169fsi    OBT 2670   2.857   5.797   6.649 -0.1947  0.4844  0.5620
  169fsi    FSI 2671   2.728   5.620   6.738 -0.0878  0.2997 -0.2428
  170fsi    FSI 2672   3.078   4.640   3.504 -0.1282  0.2658 -0.3860
  170fsi    SBT 2673   3.223   4.661   3.441 -0.3406 -0.0168  0.5094
  170fsi    NBT 2674   3.309   4.564   3.536 -0.5234 -0.2378  0.3097
  170fsi    OBT 2675   3.208   4.623   3.301  0.0843 -0.2716  0.1968
  170fsi    OBT 2676   3.249   4.798   3.468  0.0828 -0.1020  0.6735
  170fsi    SBT 2677   3.376   4.427   3.498 -0.0128  0.0486 -0.3298
  170fsi    OBT 2678   3.362   4.396   3.358 -0.0086 -0.0891  0.8201
  170fsi    OBT 2679   3.351   4.316   3.589  0.0399  0.0692 -0.6415
  170fsi    FSI 2680   3.523   4.457   3.520 -0.3637 -0.1277 -0.0170
  171fsi    FSI 2681   2.925   3.615   3.083  0.0953 -0.1831 -0.0257
  171fsi    SBT 2682   2.793   3.580   3.160  0.4555 -0.0059 -0.3114
  171fsi    NBT 2683   2.823   3.440   3.228  0.0452  0.4002  0.3093
  171fsi    OBT 2684   2.782   3.682   3.259 -0.3614 -0.2044  0.1888
  171fsi    OBT 2685   2.695   3.576   3.056 -1.1170 -0.1065  0.2288
  171fsi    SBT 2686   2.859   3.412   3.381  0.0180  0.1565 -0.2958
  171fsi    OBT 2687   2.946   3.514   3.432  0.4904 -0.4180 -0.3972
  171fsi    OBT 2688   2.892   3.276   3.401 -0.0061  0.1135  0.4913
  171fsi    FSI 2689   2.718   3.433   3.455 -0.4410  0.1340 -0.3606
  172fsi    FSI 2690   3.186   4.060   3.213  0.1395 -0.2153 -0.1102
  172fsi    SBT 2691   3.286   4.019   3.323  0.0202  0.1444 -0.1117
  172fsi    NBT 2692   3.322   3.870   3.267  0.3523  0.2584 -0.2786
  172fsi    OBT 2693   3.395   4.111   3.304  0.3064 -0.8278 -0.3850
  172fsi    OBT 2694   3.216   4.023   3.454 -0.4803  0.4140  0.4627
  172fsi    SBT 2695   3.250   3.738   3.290 -0.3687 -0.1148 -0.0139
  172fsi    OBT 2696   3.122   3.743   3.358 -0.1538  0.0151  0.3925
  172fsi    OBT 2697   3.339   3.635   3.332  0.0001 -0.9648 -0.3059
  172fsi    FSI 2698   3.212   3.699   3.142 -0.3620  0.6861 -0.6365
  173fsi    FSI 2699   3.057   5.244   0.963 -0.5846  0.5872  0.1366
  173fsi    SBT 2700   3.144   5.125   0.907 -0.4369 -0.0787 -0.1445
  173fsi    NBT 2701   3.288   5.124   0.966  0.4488  0.0025 -0.1725
  173fsi    OBT 2702   3.069   5.001   0.930  0.4349  0.2224  0.4096
  173fsi    OBT 2703   3.145   5.167   0.766  0.0665  0.1564  0.0143
  173fsi    SBT 2704   3.339   5.033   1.080  0.3626  0.0843 -0.0307
  173fsi    OBT 2705   3.479   5.050   1.110  0.5968 -0.0809  0.0882
  173fsi    OBT 2706   3.298   4.896   1.067 -0.6339  0.4533  0.3382
  173fsi    FSI 2707   3.261   5.090   1.200  0.2507 -0.4165 -0.4284
  174fsi    FSI 2708   4.439   1.098   5.447  0.6322  0.1578 -0.1373
  174fsi    SBT 2709   4.544   1.021   5.532 -0.1658 -0.3674 -0.0860
  174fsi    NBT 2710   4.497   0.878   5.526 -0.1032 -0.5535  0.1290
  174fsi    OBT 2711   4.669   1.051   5.458 -0.1626 -0.5104 -0.1012
  174fsi    OBT 2712   4.532   1.090   5.660  0.0356 -0.0193 -0.1517
  174fsi    SBT 2713   4.468   0.784   5.647  0.2682 -0.2787  0.2761
  174fsi    OBT 2714   4.529   0.820   5.772 -0.0995 -0.4726 -0.3357
  174fsi    OBT 2715   4.469   0.644   5.610 -0.0327 -0.2641  0.2826
  174fsi    FSI 2716   4.317   0.814   5.677 -0.0094 -0.2832  0.2375
  175fsi    FSI 2717   3.429   7.122   6.147 -0.4402  0.2981 -0.0821
  175fsi    SBT 2718   3.586   7.118   6.121  0.0610  0.0452 -0.2383
  175fsi    NBT 2719   3.632   7.103   6.271 -0.1727 -0.8512  0.1112
  175fsi    OBT 2720   3.620   7.006   6.039  0.0367  0.4024 -0.0552
  175fsi    OBT 2721   3.602   7.244   6.058 -0.1413 -0.0692  0.3559
  175fsi    SBT 2722   3.735   7.193   6.358 -0.0447  0.0890 -0.0825
  175fsi    OBT 2723   3.779   7.314   6.291  0.0121 -0.3664 -0.2104
  175fsi    OBT 2724   3.836   7.124   6.436  0.3779  0.4508  0.1598
  175fsi    FSI 2725   3.652   7.245   6.478  0.7133  0.3780  0.4507
  176fsi    FSI 2726   3.298   3.451   2.961 -0.2744  0.0692  0.0762
  176fsi    SBT 2727   3.377   3.349   3.054  0.0569 -0.0297 -0.5040
  176fsi    NBT 2728   3.275   3.282   3.154  0.2395 -0.1989  0.1630
  176fsi    OBT 2729   3.424   3.249   2.966  0.0126 -0.1125  0.2293
  176fsi    OBT 2730   3.477   3.430   3.113  0.1707  0.2267 -0.8425
  176fsi    SBT 2731   3.276   3.274   3.313  0.4077 -0.1173 -0.0027
  176fsi    OBT 2732   3.399   3.320   3.374  0.0464 -0.3119  0.1502
  176fsi    OBT 2733   3.226   3.144   3.357  0.0995  0.2443  0.3835
  176fsi    FSI 2734   3.178   3.377   3.368  0.0961  0.1769  0.2269
  177fsi    FSI 2735   3.602   4.598   6.685 -0.1361 -0.3093 -0.2393
  177fsi    SBT 2736   3.605   4.663   6.830 -0.8782 -0.1296 -0.0273
  177fsi    NBT 2737   3.590   4.537   6.926  0.0554  0.4569  0.4491
  177fsi    OBT 2738   3.738   4.719   6.831 -0.1102  0.6023 -0.1224
  177fsi    OBT 2739   3.497   4.762   6.833  0.8640  0.2307 -0.4533
  177fsi    SBT 2740   3.469   4.465   6.999 -0.1566 -0.3275  0.0884
  177fsi    OBT 2741   3.358   4.551   7.004 -0.5610  0.2267  0.7169
  177fsi    OBT 2742   3.509   4.406   7.126 -0.4303 -0.4497 -0.0537
  177fsi    FSI 2743   3.431   4.361   6.901  0.2093  0.2685  0.6419
  178fsi    FSI 2744   3.451   3.594   1.186  0.0720 -0.3461 -0.3666
  178fsi    SBT 2745   3.356   3.704   1.250 -0.3517 -0.4781 -0.3852
  178fsi    NBT 2746   3.444   3.777   1.361  0.6157  0.7048  0.0052
  178fsi    OBT 2747   3.327   3.784   1.135 -0.2053  0.2053  0.7517
  178fsi    OBT 2748   3.248   3.628   1.301  0.2804 -0.1447  0.2039
  178fsi    SBT 2749   3.486   3.719   1.505  0.2493 -0.2059 -0.1704
  178fsi    OBT 2750   3.589   3.805   1.557 -0.5769  0.0834 -0.0393
  178fsi    OBT 2751   3.508   3.576   1.503  0.1874 -0.0961 -0.5504
  178fsi    FSI 2752   3.360   3.748   1.595 -0.7420  0.5255 -0.3099
  179fsi    FSI 2753   4.132   1.592   6.452  0.0535 -0.4282  0.5602
  179fsi    SBT 2754   4.169   1.442   6.459  0.3141  0.2777 -0.2398
  179fsi    NBT 2755   4.092   1.378   6.585 -0.1299 -0.5269  0.6505
  179fsi    OBT 2756   4.110   1.392   6.341 -1.1038  0.0182 -0.3380
  179fsi    OBT 2757   4.313   1.444   6.466  0.1959  0.3413 -0.8190
  179fsi    SBT 2758   4.166   1.323   6.715  0.5359  0.2067  0.4724
  179fsi    OBT 2759   4.087   1.352   6.832  0.3293  0.2202  0.5031
  179fsi    OBT 2760   4.310   1.341   6.722  0.3749 -0.6906  0.1586
  179fsi    FSI 2761   4.146   1.166   6.692 -0.3607  0.1722  0.0575
  180fsi    FSI 2762   3.356   1.405   5.420 -0.4543 -0.0931 -0.3232
  180fsi    SBT 2763   3.341   1.283   5.319  0.3409 -0.1956  0.0392
  180fsi    NBT 2764   3.213   1.333   5.244  0.3117 -0.1263  0.2317
  180fsi    OBT 2765   3.463   1.284   5.244  0.3436  0.0851  0.1697
  180fsi    OBT 2766   3.319   1.170   5.404  0.3439 -0.1133 -0.1031
  180fsi    SBT 2767   3.200   1.359   5.090  0.4694  0.0486  0.1097
  180fsi    OBT 2768   3.066   1.393   5.046  0.0510 -0.0026  0.3222
  180fsi    OBT 2769   3.267   1.262   5.011 -0.0087 -0.2823 -0.0898
  180fsi    FSI 2770   3.286   1.491   5.067  0.1396 -0.4887  0.0777
  181fsi    FSI 2771   4.179   0.758   6.565 -0.3563  0.0974  0.2813
  181fsi    SBT 2772   4.121   0.701   6.696  0.0010  0.1857 -0.2016
  181fsi    NBT 2773   4.144   0.820   6.788 -0.1936  0.2093 -0.1317
  181fsi    OBT 2774   3.987   0.692   6.669  0.9033  0.2991 -0.1340
  181fsi    OBT 2775   4.201   0.587   6.725  0.1188  0.6499 -0.8976
  181fsi    SBT 2776   4.235   0.839   6.917  0.0520 -0.3783  0.0872
  181fsi    OBT 2777   4.274   0.977   6.917 -0.0161 -0.1930 -0.1046
  181fsi    OBT 2778   4.328   0.737   6.945  0.4495  0.1238  0.2482
  181fsi    FSI 2779   4.127   0.833   7.027  0.1767  0.0312 -0.6057
  182fsi    FSI 2780   3.496   5.850   6.468  0.0548  0.1061 -0.6304
  182fsi    SBT 2781   3.588   5.964   6.506 -0.1266 -0.0091 -0.3020
  182fsi    NBT 2782   3.693   5.900   6.605 -0.1360 -0.0314 -0.0267
  182fsi    OBT 2783   3.639   5.989   6.377  0.0500 -0.0686  0.3868
  182fsi    OBT 2784   3.504   6.068   6.560 -0.0084 -0.0542 -0.1819
  182fsi    SBT 2785   3.708   5.927   6.756  0.0516  0.3791 -0.1066
  182fsi    OBT 2786   3.765   5.810   6.818 -0.4121  0.0017 -0.3635
  182fsi    OBT 2787   3.592   5.988   6.816  0.2284  0.2741  0.0589
  182fsi    FSI 2788   3.820   6.035   6.777  0.1589 -0.2038 -0.2000
  183fsi    FSI 2789   2.450   4.570   0.176  0.1472  0.2043  0.1300
  183fsi    SBT 2790   2.556   4.514   0.279 -0.1558 -0.1034 -0.2949
  183fsi    NBT 2791   2.601   4.382   0.207 -0.2284 -0.3156  0.5813
  183fsi    OBT 2792   2.657   4.616   0.282 -0.1416 -0.2600 -0.0384
  183fsi    OBT 2793   2.480   4.497   0.400 -0.3587  0.3430 -0.1115
  183fsi    SBT 2794   2.532   4.236   0.219  0.0129 -0.5718 -0.0146
  183fsi    OBT 2795   2.392   4.237   0.263  0.1997  0.4480  0.0940
  183fsi    OBT 2796   2.624   4.136   0.270 -0.0062 -0.2162  0.2624
  183fsi    FSI 2797   2.516   4.200   0.068 -0.3818 -0.6010  0.0071
  184fsi    FSI 2798   4.434   5.069   0.207 -0.2295 -0.1838 -0.0412
  184fsi    SBT 2799   4.357   5.200   0.261  0.7387  0.0861 -0.1361
  184fsi    NBT 2800   4.462   5.319   0.266 -0.0251 -0.0010  0.5799
  184fsi    OBT 2801   4.247   5.208   0.165 -0.1765 -0.0978  0.1364
  184fsi    OBT 2802   4.332   5.170   0.398  0.5952  1.0514 -0.1881
  184fsi    SBT 2803   4.487   5.440   0.166 -0.0237 -0.1686  0.3036
  184fsi    OBT 2804   4.529   5.558   0.244 -0.5608  0.1689  0.1068
  184fsi    OBT 2805   4.388   5.450   0.062 -0.0957  1.0386  1.1438
  184fsi    FSI 2806   4.625   5.400   0.094 -0.3240 -0.5654 -0.0223
  185fsi    FSI 2807   3.498   4.112   1.782 -0.2146  0.0456  0.3525
  185fsi    SBT 2808   3.449   4.196   1.914 -0.1415  0.1505  0.2737
  185fsi    NBT 2809   3.521   4.336   1.889  0.2688  0.1463  0.0979
  185fsi    OBT 2810   3.306   4.200   1.915  0.1650 -0.1273  0.5466
  185fsi    OBT 2811   3.513   4.123   2.019  0.6491  0.1082  0.1495
  185fsi    SBT 2812   3.463   4.472   1.822  0.2109 -0.0103  0.2943
  185fsi    OBT 2813   3.535   4.590   1.858  0.1613 -0.1784  0.1689
  185fsi    OBT 2814   3.320   4.488   1.830 -0.0376  0.0965  0.0154
  185fsi    FSI 2815   3.495   4.455   1.669 -0.1203  0.3801  0.2421
  186fsi    FSI 2816   3.486   3.230   1.912 -0.0273  0.3646  0.4433
  186fsi    SBT 2817   3.566   3.360   1.950  0.0266 -0.3324 -0.2188
  186fsi    NBT 2818   3.719   3.321   1.924 -0.3482 -0.3443 -0.4417
  186fsi    OBT 2819   3.522   3.455   1.857  0.0580  0.0594 -0.0543
  186fsi    OBT 2820   3.529   3.387   2.088 -0.6992  0.0416 -0.2166
  186fsi    SBT 2821   3.824   3.250   2.017 -0.1718  0.5082  0.0747
  186fsi    OBT 2822   3.767   3.180   2.127 -0.3361  0.7013  0.0660
  186fsi    OBT 2823   3.951   3.320   2.028 -0.2462  0.5326 -0.1686
  186fsi    FSI 2824   3.859   3.127   1.931  0.9342  0.3636  0.2692
  187fsi    FSI 2825   3.374   7.107   0.519  0.3677  0.0724 -0.0569
  187fsi    SBT 2826   3.436   7.008   0.423 -0.0273  0.0869  0.2367
  187fsi    NBT 2827   3.364   7.060   0.290  0.3969 -0.1625  0.0384
  187fsi    OBT 2828   3.576   7.039   0.429  0.4669  0.2092  0.0021
  187fsi    OBT 2829   3.397   6.874   0.469 -0.3136  0.0033  0.0764
  187fsi    SBT 2830   3.223   7.016   0.227  0.3421  0.0920  0.2930
  187fsi    OBT 2831   3.129   7.127   0.220 -0.0649 -0.0438  0.3045
  187fsi    OBT 2832   3.163   6.895   0.274  0.0398  0.2315  0.3062
  187fsi    FSI 2833   3.265   6.996   0.075  0.0455 -0.1795 -0.0140
  188fsi    FSI 2834   3.971   1.295   6.081  0.2522 -0.7230  0.5941
  188fsi    SBT 2835   3.926   1.254   5.940 -0.0933  0.1131 -0.0497
  188fsi    NBT 2836   4.054   1.200   5.869 -0.5054 -0.0339 -0.2879
  188fsi    OBT 2837   3.831   1.153   5.977  0.0629 -0.2479 -0.6956
  188fsi    OBT 2838   3.866   1.379   5.902  0.2339 -0.1677  0.2571
  188fsi    SBT 2839   4.126   1.257   5.744 -0.1508  0.4303  0.2513
  188fsi    OBT 2840   4.265   1.217   5.749  0.3143  0.0122  0.1715
  188fsi    OBT 2841   4.091   1.383   5.700  0.4936 -0.4219 -0.0002
  188fsi    FSI 2842   4.070   1.157   5.631 -0.6985 -0.3728 -0.2372
  189fsi    FSI 2843   3.801   5.857   0.819 -0.0493 -0.1508 -1.0081
  189fsi    SBT 2844   3.819   5.715   0.762  0.0162 -0.1704  0.2879
  189fsi    NBT 2845   3.881   5.633   0.884 -0.1181  0.3197 -0.1496
  189fsi    OBT 2846   3.685   5.673   0.744 -0.1316  0.2271 -0.1764
  189fsi    OBT 2847   3.900   5.737   0.645  0.1655  0.4537 -0.2679
  189fsi    SBT 2848   4.032   5.608   0.922 -0.1617 -0.2284 -0.0504
  189fsi    OBT 2849   4.130   5.638   0.818 -0.2760 -0.1033  0.1190
  189fsi    OBT 2850   4.049   5.488   1.004  0.1107  0.3111  0.6039
  189fsi    FSI 2851   4.067   5.729   1.026 -0.3584  0.5147  0.0163
  190fsi    FSI 2852   2.614   0.978   5.877 -0.2927 -0.4023  0.3447
  190fsi    SBT 2853   2.708   0.856   5.911 -0.0996 -0.1089  0.2597
  190fsi    NBT 2854   2.604   0.736   5.927 -0.1560 -0.2592  0.0939
  190fsi    OBT 2855   2.793   0.842   5.796  0.0671  0.3874 -0.7449
  190fsi    OBT 2856   2.765   0.893   6.038  0.3391  0.4600  0.4355
  190fsi    SBT 2857   2.572   0.624   5.826  0.1687 -0.0285  0.1450
  190fsi    OBT 2858   2.526   0.501   5.879  0.1849 -0.0421 -0.9787
  190fsi    OBT 2859   2.662   0.610   5.720  0.1007  0.3656 -0.1239
  190fsi    FSI 2860   2.438   0.679   5.752 -0.1955 -0.0719 -0.2147
  191fsi    FSI 2861   3.179   6.122   0.361 -0.5689 -0.1166  0.1374
  191fsi    SBT 2862   3.305   6.031   0.309  0.0666  0.0315 -0.3995
  191fsi    NBT 2863   3.241   5.943   0.196  0.2142  0.4355 -0.2929
  191fsi    OBT 2864   3.392   6.130   0.254  0.6500 -0.2311 -1.0992
  191fsi    OBT 2865   3.357   5.968   0.423 -0.0207  0.1076  0.4454
  191fsi    SBT 2866   3.192   5.795   0.208  0.3816  0.0130 -0.0708
  191fsi    OBT 2867   3.150   5.752   0.338 -0.4766 -0.3700 -0.8642
  191fsi    OBT 2868   3.273   5.711   0.127  0.3032 -0.0021  0.8744
  191fsi    FSI 2869   3.059   5.797   0.126  0.1580 -0.8033  0.7885
  192fsi    FSI 2870   3.563   4.343   0.830 -0.0584 -0.3877 -0.6590
  192fsi    SBT 2871   3.435   4.272   0.869 -0.3577  0.0578 -0.4823
  192fsi    NBT 2872   3.426   4.285   1.025 -0.4104  0.1952  0.0753
  192fsi    OBT 2873   3.337   4.346   0.796 -0.1949 -0.3181  0.0467
  192fsi    OBT 2874   3.461   4.135   0.832  0.1777  0.1528 -0.1555
  192fsi    SBT 2875   3.404   4.420   1.109 -0.2456 -0.0535 -0.2368
  192fsi    OBT 2876   3.401   4.403   1.251  0.0979  0.5402  0.3116
  192fsi    OBT 2877   3.315   4.517   1.048 -0.1356  0.3516 -0.6129
  192fsi    FSI 2878   3.543   4.492   1.078 -0.4770  0.5392  0.5038
  193fsi    FSI 2879   4.049   7.043   0.072 -0.3188 -0.4284  0.3161
  193fsi    SBT 2880   4.164   6.939   0.093  0.2378 -0.0742 -0.1540
  193fsi    NBT 2881   4.080   6.815   0.153 -0.0438 -0.4431  0.0753
  193fsi    OBT 2882   4.216   6.918  -0.042  0.4185 -0.8307  0.4633
  193fsi    OBT 2883   4.254   7.000   0.196 -0.0993 -0.5273  0.4614
  193fsi    SBT 2884   4.071   6.761   0.300  0.7205  0.1761 -0.2307
  193fsi    OBT 2885   4.195   6.757   0.373 -0.9416  0.5427  0.4523
  193fsi    OBT 2886   3.986   6.646   0.308  0.1222 -0.1582  0.0548
  193fsi    FSI 2887   3.986   6.871   0.374 -0.1107  0.4131 -0.1334
  194fsi    FSI 2888   4.072   5.510   6.814  0.3451 -0.2187  0.1822
  194fsi    SBT 2889   4.189   5.399   6.792  0.0814 -0.0392 -0.1594
  194fsi    NBT 2890   4.112   5.275   6.861  0.4897 -0.5544  0.5231
  194fsi    OBT 2891   4.205   5.390   6.647  0.2651 -0.3745  0.1057
  194fsi    OBT 2892   4.302   5.451   6.867 -0.6133 -0.5020 -0.3776
  194fsi    SBT 2893   4.116   5.209   7.003  0.0909 -0.1403  0.1183
  194fsi    OBT 2894   4.003   5.123   7.019  0.4700  0.3722 -0.0653
  194fsi    OBT 2895   4.147   5.303   7.109 -0.0127  0.1230  0.3472
  194fsi    FSI 2896   4.239   5.114   6.995 -0.2686 -0.2484 -0.2671
  195fsi    FSI 2897   3.105   3.661   2.648 -0.3208 -0.2636 -0.0967
  195fsi    SBT 2898   3.119   3.736   2.510  0.0098  0.3632 -0.1507
  195fsi    NBT 2899   3.274   3.727   2.480 -0.0592 -0.1172  0.0440
  195fsi    OBT 2900   3.033   3.658   2.431  0.3483 -0.8173  0.3984
  195fsi    OBT 2901   3.079   3.876   2.530  0.2984  0.4083 -0.2354
  195fsi    SBT 2902   3.351   3.626   2.395 -0.4679  0.0382 -0.0775
  195fsi    OBT 2903   3.286   3.506   2.347 -0.1635 -0.3986  0.2016
  195fsi    OBT 2904   3.486   3.607   2.440 -0.2819 -0.5996  0.0841
  195fsi    FSI 2905   3.371   3.706   2.253 -0.0632 -0.4532 -0.3822
  196fsi    FSI 2906   3.354   6.629   5.776  0.3995  0.7800 -0.3471
  196fsi    SBT 2907   3.427   6.728   5.886 -0.1067  0.2670 -0.3329
  196fsi    NBT 2908   3.523   6.643   5.975  0.1526  0.1048 -0.0693
  196fsi    OBT 2909   3.498   6.814   5.796  0.4375 -0.4254  0.2538
  196fsi    OBT 2910   3.321   6.792   5.959  0.3647  0.2033 -0.0104
  196fsi    SBT 2911   3.681   6.649   6.000 -0.0115  0.2208  0.6237
  196fsi    OBT 2912   3.723   6.631   6.136 -0.6412  0.3336  0.5257
  196fsi    OBT 2913   3.748   6.751   5.918  0.1714  1.0676 -0.0815
  196fsi    FSI 2914   3.725   6.505   5.934 -0.0579  0.2648 -0.7910
  197fsi    FSI 2915   4.459   1.341   6.186  0.1472  0.1064  0.3458
  197fsi    SBT 2916   4.524   1.376   6.052  0.2679  0.2316 -0.0518
  197fsi    NBT 2917   4.665   1.306   6.082  0.3141  0.2532 -0.3092
  197fsi    OBT 2918   4.439   1.309   5.958 -0.3499  0.4340  0.2047
  197fsi    OBT 2919   4.539   1.520   6.045  0.0132 -0.2608 -0.0887
  197fsi    SBT 2920   4.702   1.155   6.055  0.2323  0.2474 -0.2004
  197fsi    OBT 2921   4.589   1.069   6.039  0.4408 -0.1774 -0.6731
  197fsi    OBT 2922   4.808   1.112   6.145  0.4927 -0.0135 -0.4029
  197fsi    FSI 2923   4.765   1.159   5.913  0.5224  0.5291 -0.0160
  198fsi    FSI 2924   4.491   5.868   0.721 -0.0724 -0.4580  0.3925
  198fsi    SBT 2925   4.407   5.913   0.586  0.1186  0.0486  0.0591
  198fsi    NBT 2926   4.442   6.062   0.585 -0.0949 -0.5483 -0.0068
  198fsi    OBT 2927   4.464   5.842   0.472 -0.7746 -0.0019  0.1731
  198fsi    OBT 2928   4.267   5.897   0.623  0.7755 -0.7465  0.0921
  198fsi    SBT 2929   4.559   6.130   0.518  0.4800 -0.1242 -0.1087
  198fsi    OBT 2930   4.681   6.060   0.508 -0.0389 -0.4245  0.5354
  198fsi    OBT 2931   4.564   6.267   0.565 -0.0140  0.0414 -0.2864
  198fsi    FSI 2932   4.505   6.141   0.375  0.2598 -0.4064 -0.6186
  199fsi    FSI 2933   3.569   1.558   5.906 -0.1755 -0.6407 -0.7983
  199fsi    SBT 2934   3.416   1.567   5.862 -0.0315  0.4701 -0.0471
  199fsi    NBT 2935   3.345   1.434   5.919 -0.2137 -0.1186 -0.5333
  199fsi    OBT 2936   3.368   1.685   5.929  0.7285  0.1030 -0.5237
  199fsi    OBT 2937   3.416   1.572   5.720 -0.5911  0.2226  0.0582
  199fsi    SBT 2938   3.380   1.285   5.894 -0.2129 -0.4686 -0.4367
  199fsi    OBT 2939   3.449   1.256   5.775  0.4333 -0.3040 -0.0052
  199fsi    OBT 2940   3.273   1.198   5.922  0.4347 -0.2811  0.4673
  199fsi    FSI 2941   3.483   1.253   6.012  0.1046 -0.0279  0.0522
  200fsi    FSI 2942   3.580   3.361   3.700 -0.2444 -0.6511  0.5081
  200fsi    SBT 2943   3.639   3.504   3.645 -0.4997 -0.3204 -0.3297
  200fsi    NBT 2944   3.774   3.459   3.574 -0.0105 -0.2805 -0.2592
  200fsi    OBT 2945   3.536   3.549   3.555 -0.5853  0.2882  0.1944
  200fsi    OBT 2946   3.668   3.585   3.763 -0.0929  0.1931  0.1567
  200fsi    SBT 2947   3.822   3.454   3.418 -0.1493 -0.3497 -0.0749
  200fsi    OBT 2948   3.712   3.429   3.327 -0.3414  0.0017 -0.3862
  200fsi    OBT 2949   3.939   3.379   3.403 -0.3711  0.6493 -0.3228
  200fsi    FSI 2950   3.860   3.608   3.387 -0.2717 -0.1139 -0.4125
   7.23840   7.23840   7.23840
