L1P2 short trajectory practice
 3200
    1Li+     Li    1   1.370   5.491   1.516
    2Li+     Li    2   4.277   0.734   5.387
    3Li+     Li    3   1.585   3.467   0.500
    4Li+     Li    4   3.371   4.843   6.113
    5Li+     Li    5   0.526   3.267   4.236
    6Li+     Li    6   6.482   2.621   6.800
    7Li+     Li    7   3.235   2.839   1.993
    8Li+     Li    8   4.502   3.334   4.152
    9Li+     Li    9   0.164   5.428   3.712
   10Li+     Li   10   1.946   0.256   0.730
   11Li+     Li   11   4.469   6.270   2.868
   12Li+     Li   12   3.960   0.986   6.302
   13Li+     Li   13   2.503   2.239   2.824
   14Li+     Li   14   1.477   5.082   1.776
   15Li+     Li   15   1.183   5.204   6.734
   16Li+     Li   16   1.356   5.058   5.522
   17Li+     Li   17   2.956   6.378   1.671
   18Li+     Li   18   3.531   5.813   0.343
   19Li+     Li   19   5.016   1.638   4.766
   20Li+     Li   20   0.162   6.391   5.945
   21Li+     Li   21   6.195   5.786   3.855
   22Li+     Li   22   1.733   6.712   2.561
   23Li+     Li   23   7.009   2.935   1.891
   24Li+     Li   24   6.203   7.125   5.596
   25Li+     Li   25   4.202   3.446   1.599
   26Li+     Li   26   3.440   5.922   1.595
   27Li+     Li   27   1.942   2.947   3.597
   28Li+     Li   28   5.376   0.322   5.711
   29Li+     Li   29   4.462   7.264   4.939
   30Li+     Li   30   4.742   6.455   0.609
   31Li+     Li   31   6.205   5.975   6.842
   32Li+     Li   32   5.303   0.619   1.508
   33Li+     Li   33   5.022   0.890   6.762
   34Li+     Li   34   3.921   0.579   1.207
   35Li+     Li   35   7.279   1.246   6.682
   36Li+     Li   36   6.305   4.236   1.494
   37Li+     Li   37   6.856   2.597   1.886
   38Li+     Li   38   5.318   2.574   4.930
   39Li+     Li   39   2.873   0.312   3.653
   40Li+     Li   40   1.102   2.084   0.677
   41Li+     Li   41   1.845   6.907   0.810
   42Li+     Li   42   6.666   5.794   3.268
   43Li+     Li   43   2.792   3.996   5.461
   44Li+     Li   44   4.704   6.550   5.657
   45Li+     Li   45   5.472   6.729   4.322
   46Li+     Li   46   4.410   1.143   3.278
   47Li+     Li   47   2.216   4.816   2.397
   48Li+     Li   48   6.580   6.445   6.076
   49Li+     Li   49   1.248   6.955   5.856
   50Li+     Li   50   0.704   6.700   5.103
   51c3c     N4   51   4.776   1.375   0.412
   51c3c     C1   52   4.757   1.520   0.425
   51c3c     C1   53   4.647   1.306   0.426
   51c3c     C2   54   4.610   1.546   0.457
   51c3c     C2   55   4.540   1.410   0.458
   51c3c     C1   56   4.830   1.347   0.279
   51c3c     C1   57   4.871   1.326   0.513
   51c3c     H1   58   4.786   1.575   0.335
   51c3c     H1   59   4.820   1.566   0.501
   51c3c     H1   60   4.619   1.250   0.336
   51c3c     H1   61   4.647   1.228   0.502
   51c3c     HC   62   4.566   1.612   0.382
   51c3c     HC   63   4.599   1.596   0.554
   51c3c     HC   64   4.461   1.407   0.383
   51c3c     HC   65   4.494   1.391   0.555
   51c3c     H1   66   4.926   1.396   0.263
   51c3c     H1   67   4.846   1.240   0.263
   51c3c     H1   68   4.762   1.382   0.201
   51c3c     H1   69   4.889   1.220   0.500
   51c3c     H1   70   4.968   1.374   0.500
   51c3c     C2   71   4.821   1.353   0.658
   51c3c     HC   72   4.725   1.305   0.677
   51c3c     HC   73   4.804   1.458   0.677
   51c3c     CT   74   4.919   1.302   0.760
   51c3c     HC   75   5.015   1.353   0.748
   51c3c     HC   76   4.934   1.195   0.749
   51c3c     HC   77   4.881   1.322   0.860
   52c3c     N4   78   4.881   0.689   6.098
   52c3c     C1   79   4.789   0.776   6.022
   52c3c     C1   80   4.900   0.744   6.234
   52c3c     C2   81   4.755   0.897   6.108
   52c3c     C2   82   4.825   0.877   6.242
   52c3c     C1   83   4.821   0.556   6.110
   52c3c     C1   84   5.010   0.678   6.029
   52c3c     H1   85   4.698   0.724   5.991
   52c3c     H1   86   4.831   0.809   5.927
   52c3c     H1   87   4.866   0.676   6.312
   52c3c     H1   88   5.005   0.759   6.259
   52c3c     HC   89   4.647   0.903   6.122
   52c3c     HC   90   4.787   0.990   6.061
   52c3c     HC   91   4.752   0.873   6.324
   52c3c     HC   92   4.893   0.959   6.263
   52c3c     H1   93   4.803   0.511   6.012
   52c3c     H1   94   4.884   0.488   6.167
   52c3c     H1   95   4.725   0.562   6.161
   52c3c     H1   96   5.076   0.610   6.084
   52c3c     H1   97   4.996   0.633   5.931
   52c3c     C2   98   5.080   0.815   6.013
   52c3c     HC   99   5.100   0.863   6.109
   52c3c     HC  100   5.020   0.886   5.957
   52c3c     CT  101   5.213   0.801   5.942
   52c3c     HC  102   5.198   0.759   5.842
   52c3c     HC  103   5.279   0.736   5.999
   52c3c     HC  104   5.259   0.899   5.932
   53c3c     N4  105   0.943   1.235   2.873
   53c3c     C1  106   1.064   1.155   2.844
   53c3c     C1  107   0.836   1.147   2.924
   53c3c     C2  108   1.031   1.008   2.870
   53c3c     C2  109   0.887   1.003   2.920
   53c3c     C1  110   0.976   1.334   2.976
   53c3c     C1  111   0.898   1.304   2.752
   53c3c     H1  112   1.149   1.186   2.905
   53c3c     H1  113   1.101   1.168   2.743
   53c3c     H1  114   0.806   1.173   3.025
   53c3c     H1  115   0.743   1.156   2.868
   53c3c     HC  116   1.100   0.967   2.944
   53c3c     HC  117   1.042   0.949   2.779
   53c3c     HC  118   0.882   0.959   3.020
   53c3c     HC  119   0.825   0.941   2.855
   53c3c     H1  120   1.055   1.401   2.944
   53c3c     H1  121   0.890   1.395   3.002
   53c3c     H1  122   1.010   1.285   3.067
   53c3c     H1  123   0.812   1.367   2.775
   53c3c     H1  124   0.975   1.373   2.717
   53c3c     C2  125   0.861   1.206   2.638
   53c3c     HC  126   0.782   1.137   2.666
   53c3c     HC  127   0.945   1.143   2.609
   53c3c     CT  128   0.815   1.280   2.514
   53c3c     HC  129   0.894   1.346   2.478
   53c3c     HC  130   0.727   1.340   2.537
   53c3c     HC  131   0.790   1.208   2.436
   54c3c     N4  132   2.685   4.034   0.688
   54c3c     C1  133   2.636   4.105   0.569
   54c3c     C1  134   2.602   4.070   0.805
   54c3c     C2  135   2.522   4.198   0.612
   54c3c     C2  136   2.501   4.175   0.762
   54c3c     C1  137   2.672   3.890   0.665
   54c3c     C1  138   2.826   4.067   0.713
   54c3c     H1  139   2.601   4.038   0.491
   54c3c     H1  140   2.713   4.162   0.518
   54c3c     H1  141   2.551   3.984   0.848
   54c3c     H1  142   2.661   4.106   0.890
   54c3c     HC  143   2.432   4.174   0.556
   54c3c     HC  144   2.547   4.302   0.592
   54c3c     HC  145   2.400   4.140   0.782
   54c3c     HC  146   2.515   4.268   0.817
   54c3c     H1  147   2.731   3.858   0.578
   54c3c     H1  148   2.706   3.832   0.751
   54c3c     H1  149   2.569   3.862   0.646
   54c3c     H1  150   2.863   4.010   0.798
   54c3c     H1  151   2.887   4.036   0.628
   54c3c     C2  152   2.847   4.218   0.739
   54c3c     HC  153   2.790   4.254   0.825
   54c3c     HC  154   2.814   4.279   0.655
   54c3c     CT  155   2.993   4.250   0.765
   54c3c     HC  156   3.053   4.221   0.678
   54c3c     HC  157   3.028   4.195   0.852
   54c3c     HC  158   3.004   4.356   0.782
   55c3c     N4  159   3.367   2.304   5.930
   55c3c     C1  160   3.490   2.378   5.898
   55c3c     C1  161   3.367   2.266   6.073
   55c3c     C2  162   3.578   2.380   6.023
   55c3c     C2  163   3.501   2.309   6.133
   55c3c     C1  164   3.252   2.391   5.906
   55c3c     C1  165   3.355   2.184   5.846
   55c3c     H1  166   3.470   2.480   5.865
   55c3c     H1  167   3.545   2.336   5.814
   55c3c     H1  168   3.285   2.311   6.128
   55c3c     H1  169   3.351   2.159   6.089
   55c3c     HC  170   3.600   2.484   6.051
   55c3c     HC  171   3.674   2.331   6.004
   55c3c     HC  172   3.483   2.377   6.217
   55c3c     HC  173   3.556   2.224   6.171
   55c3c     H1  174   3.247   2.424   5.802
   55c3c     H1  175   3.157   2.342   5.929
   55c3c     H1  176   3.257   2.481   5.967
   55c3c     H1  177   3.261   2.133   5.866
   55c3c     H1  178   3.350   2.214   5.741
   55c3c     C2  179   3.473   2.086   5.866
   55c3c     HC  180   3.482   2.052   5.969
   55c3c     HC  181   3.569   2.133   5.843
   55c3c     CT  182   3.460   1.964   5.778
   55c3c     HC  183   3.458   1.994   5.673
   55c3c     HC  184   3.367   1.911   5.801
   55c3c     HC  185   3.544   1.898   5.795
   56c3c     N4  186   4.815   4.484   6.626
   56c3c     C1  187   4.844   4.586   6.729
   56c3c     C1  188   4.765   4.361   6.690
   56c3c     C2  189   4.820   4.523   6.866
   56c3c     C2  190   4.770   4.381   6.841
   56c3c     C1  191   4.711   4.536   6.537
   56c3c     C1  192   4.936   4.455   6.547
   56c3c     H1  193   4.783   4.675   6.717
   56c3c     H1  194   4.945   4.625   6.723
   56c3c     H1  195   4.664   4.335   6.658
   56c3c     H1  196   4.822   4.272   6.662
   56c3c     HC  197   4.746   4.581   6.921
   56c3c     HC  198   4.911   4.522   6.925
   56c3c     HC  199   4.671   4.366   6.884
   56c3c     HC  200   4.837   4.308   6.888
   56c3c     H1  201   4.742   4.628   6.487
   56c3c     H1  202   4.685   4.464   6.459
   56c3c     H1  203   4.620   4.558   6.592
   56c3c     H1  204   4.913   4.384   6.468
   56c3c     H1  205   4.970   4.546   6.496
   56c3c     C2  206   5.051   4.400   6.635
   56c3c     HC  207   5.024   4.308   6.686
   56c3c     HC  208   5.080   4.469   6.714
   56c3c     CT  209   5.174   4.372   6.552
   56c3c     HC  210   5.209   4.463   6.504
   56c3c     HC  211   5.152   4.297   6.475
   56c3c     HC  212   5.253   4.333   6.616
   57c3c     N4  213   6.241   6.988   3.504
   57c3c     C1  214   6.097   6.962   3.486
   57c3c     C1  215   6.262   7.128   3.547
   57c3c     C2  216   6.022   7.093   3.509
   57c3c     C2  217   6.126   7.198   3.548
   57c3c     C1  218   6.292   6.899   3.609
   57c3c     C1  219   6.314   6.962   3.379
   57c3c     H1  220   6.060   6.885   3.553
   57c3c     H1  221   6.073   6.922   3.388
   57c3c     H1  222   6.309   7.135   3.645
   57c3c     H1  223   6.331   7.182   3.483
   57c3c     HC  224   5.949   7.080   3.589
   57c3c     HC  225   5.968   7.123   3.420
   57c3c     HC  226   6.106   7.238   3.647
   57c3c     HC  227   6.125   7.281   3.478
   57c3c     H1  228   6.279   6.794   3.583
   57c3c     H1  229   6.399   6.916   3.628
   57c3c     H1  230   6.240   6.917   3.703
   57c3c     H1  231   6.421   6.976   3.395
   57c3c     H1  232   6.303   6.857   3.351
   57c3c     C2  233   6.266   7.052   3.263
   57c3c     HC  234   6.278   7.158   3.285
   57c3c     HC  235   6.160   7.039   3.241
   57c3c     CT  236   6.342   7.023   3.136
   57c3c     HC  237   6.328   6.919   3.106
   57c3c     HC  238   6.449   7.041   3.151
   57c3c     HC  239   6.306   7.088   3.057
   58c3c     N4  240   2.115   2.099   4.959
   58c3c     C1  241   2.067   2.238   4.950
   58c3c     C1  242   2.114   2.037   4.825
   58c3c     C2  243   2.024   2.264   4.805
   58c3c     C2  244   2.054   2.137   4.727
   58c3c     C1  245   2.253   2.101   5.009
   58c3c     C1  246   2.032   2.022   5.052
   58c3c     H1  247   2.142   2.311   4.980
   58c3c     H1  248   1.985   2.260   5.018
   58c3c     H1  249   2.214   2.007   4.792
   58c3c     H1  250   2.059   1.943   4.822
   58c3c     HC  251   2.080   2.349   4.765
   58c3c     HC  252   1.918   2.289   4.800
   58c3c     HC  253   2.125   2.157   4.646
   58c3c     HC  254   1.963   2.097   4.681
   58c3c     H1  255   2.260   2.148   5.107
   58c3c     H1  256   2.295   2.001   5.016
   58c3c     H1  257   2.318   2.158   4.941
   58c3c     H1  258   2.072   1.921   5.063
   58c3c     H1  259   2.037   2.066   5.152
   58c3c     C2  260   1.884   2.015   5.007
   58c3c     HC  261   1.873   1.970   4.908
   58c3c     HC  262   1.839   2.114   4.998
   58c3c     CT  263   1.800   1.935   5.103
   58c3c     HC  264   1.803   1.982   5.202
   58c3c     HC  265   1.838   1.833   5.111
   58c3c     HC  266   1.697   1.933   5.069
   59c3c     N4  267   3.206   6.182   5.831
   59c3c     C1  268   3.065   6.153   5.865
   59c3c     C1  269   3.282   6.056   5.821
   59c3c     C2  270   3.052   6.002   5.887
   59c3c     C2  271   3.188   5.941   5.859
   59c3c     C1  272   3.209   6.249   5.701
   59c3c     C1  273   3.266   6.270   5.932
   59c3c     H1  274   2.995   6.186   5.788
   59c3c     H1  275   3.030   6.207   5.953
   59c3c     H1  276   3.322   6.040   5.721
   59c3c     H1  277   3.371   6.055   5.883
   59c3c     HC  278   2.976   5.962   5.820
   59c3c     HC  279   3.020   5.980   5.989
   59c3c     HC  280   3.183   5.869   5.777
   59c3c     HC  281   3.226   5.888   5.946
   59c3c     H1  282   3.153   6.343   5.702
   59c3c     H1  283   3.311   6.272   5.669
   59c3c     H1  284   3.165   6.186   5.624
   59c3c     H1  285   3.368   6.295   5.903
   59c3c     H1  286   3.212   6.365   5.935
   59c3c     C2  287   3.266   6.206   6.073
   59c3c     HC  288   3.321   6.112   6.075
   59c3c     HC  289   3.166   6.182   6.107
   59c3c     CT  290   3.329   6.299   6.175
   59c3c     HC  291   3.272   6.392   6.180
   59c3c     HC  292   3.432   6.320   6.148
   59c3c     HC  293   3.327   6.250   6.273
   60c3c     N4  294   2.196   3.040   4.370
   60c3c     C1  295   2.286   3.142   4.426
   60c3c     C1  296   2.172   2.934   4.470
   60c3c     C2  297   2.330   3.095   4.565
   60c3c     C2  298   2.258   2.963   4.593
   60c3c     C1  299   2.068   3.103   4.338
   60c3c     C1  300   2.253   2.983   4.247
   60c3c     H1  301   2.239   3.240   4.433
   60c3c     H1  302   2.374   3.161   4.364
   60c3c     H1  303   2.068   2.925   4.498
   60c3c     H1  304   2.195   2.834   4.432
   60c3c     HC  305   2.303   3.170   4.640
   60c3c     HC  306   2.438   3.082   4.570
   60c3c     HC  307   2.195   2.971   4.681
   60c3c     HC  308   2.330   2.883   4.611
   60c3c     H1  309   2.079   3.184   4.266
   60c3c     H1  310   1.996   3.031   4.298
   60c3c     H1  311   2.023   3.146   4.428
   60c3c     H1  312   2.184   2.911   4.204
   60c3c     H1  313   2.266   3.061   4.172
   60c3c     C2  314   2.389   2.913   4.273
   60c3c     HC  315   2.382   2.832   4.345
   60c3c     HC  316   2.464   2.981   4.314
   60c3c     CT  317   2.446   2.856   4.145
   60c3c     HC  318   2.462   2.935   4.072
   60c3c     HC  319   2.378   2.781   4.104
   60c3c     HC  320   2.542   2.808   4.167
   61c3c     N4  321   7.060   3.837   5.900
   61c3c     C1  322   7.193   3.887   5.937
   61c3c     C1  323   6.978   3.949   5.847
   61c3c     C2  324   7.196   4.038   5.916
   61c3c     C2  325   7.060   4.077   5.860
   61c3c     C1  326   7.074   3.737   5.794
   61c3c     C1  327   6.994   3.776   6.015
   61c3c     H1  328   7.273   3.839   5.879
   61c3c     H1  329   7.221   3.862   6.039
   61c3c     H1  330   6.947   3.933   5.744
   61c3c     H1  331   6.883   3.960   5.899
   61c3c     HC  332   7.276   4.065   5.847
   61c3c     HC  333   7.215   4.090   6.010
   61c3c     HC  334   7.070   4.124   5.762
   61c3c     HC  335   7.010   4.149   5.925
   61c3c     H1  336   7.135   3.652   5.827
   61c3c     H1  337   6.978   3.698   5.761
   61c3c     H1  338   7.123   3.780   5.706
   61c3c     H1  339   6.897   3.735   5.986
   61c3c     H1  340   7.052   3.690   6.051
   61c3c     C2  341   6.974   3.876   6.132
   61c3c     HC  342   6.914   3.962   6.103
   61c3c     HC  343   7.068   3.918   6.167
   61c3c     CT  344   6.906   3.810   6.250
   61c3c     HC  345   6.966   3.727   6.287
   61c3c     HC  346   6.808   3.773   6.221
   61c3c     HC  347   6.894   3.884   6.330
   62c3c     N4  348   4.063   1.183   5.703
   62c3c     C1  349   4.150   1.077   5.757
   62c3c     C1  350   4.145   1.284   5.634
   62c3c     C2  351   4.295   1.116   5.730
   62c3c     C2  352   4.292   1.247   5.652
   62c3c     C1  353   3.971   1.123   5.605
   62c3c     C1  354   3.985   1.245   5.811
   62c3c     H1  355   4.128   0.979   5.714
   62c3c     H1  356   4.135   1.060   5.863
   62c3c     H1  357   4.121   1.293   5.528
   62c3c     H1  358   4.127   1.386   5.670
   62c3c     HC  359   4.344   1.038   5.672
   62c3c     HC  360   4.351   1.128   5.823
   62c3c     HC  361   4.339   1.236   5.555
   62c3c     HC  362   4.346   1.325   5.706
   62c3c     H1  363   3.908   1.046   5.650
   62c3c     H1  364   3.905   1.198   5.561
   62c3c     H1  365   4.026   1.077   5.523
   62c3c     H1  366   3.917   1.320   5.769
   62c3c     H1  367   3.920   1.171   5.858
   62c3c     C2  368   4.075   1.311   5.918
   62c3c     HC  369   4.139   1.388   5.876
   62c3c     HC  370   4.143   1.240   5.964
   62c3c     CT  371   3.992   1.373   6.028
   62c3c     HC  372   3.931   1.298   6.077
   62c3c     HC  373   3.927   1.451   5.987
   62c3c     HC  374   4.059   1.419   6.101
   63c3c     N4  375   3.119   3.450   4.193
   63c3c     C1  376   3.009   3.524   4.128
   63c3c     C1  377   3.139   3.500   4.330
   63c3c     C2  378   2.962   3.633   4.224
   63c3c     C2  379   3.044   3.618   4.351
   63c3c     C1  380   3.082   3.308   4.200
   63c3c     C1  381   3.243   3.463   4.115
   63c3c     H1  382   2.926   3.459   4.100
   63c3c     H1  383   3.038   3.567   4.032
   63c3c     H1  384   3.121   3.424   4.406
   63c3c     H1  385   3.242   3.530   4.350
   63c3c     HC  386   2.856   3.621   4.244
   63c3c     HC  387   2.976   3.732   4.180
   63c3c     HC  388   2.979   3.599   4.437
   63c3c     HC  389   3.100   3.710   4.373
   63c3c     H1  390   3.064   3.265   4.102
   63c3c     H1  391   3.159   3.248   4.249
   63c3c     H1  392   2.990   3.295   4.258
   63c3c     H1  393   3.322   3.404   4.161
   63c3c     H1  394   3.229   3.420   4.015
   63c3c     C2  395   3.289   3.610   4.102
   63c3c     HC  396   3.307   3.656   4.199
   63c3c     HC  397   3.214   3.673   4.054
   63c3c     CT  398   3.416   3.621   4.022
   63c3c     HC  399   3.401   3.582   3.921
   63c3c     HC  400   3.496   3.564   4.070
   63c3c     HC  401   3.446   3.726   4.015
   64c3c     N4  402   1.074   4.270   5.949
   64c3c     C1  403   1.055   4.403   6.011
   64c3c     C1  404   1.131   4.287   5.814
   64c3c     C2  405   1.093   4.510   5.909
   64c3c     C2  406   1.141   4.437   5.784
   64c3c     C1  407   1.168   4.193   6.030
   64c3c     C1  408   0.946   4.198   5.941
   64c3c     H1  409   1.114   4.414   6.102
   64c3c     H1  410   0.953   4.418   6.046
   64c3c     H1  411   1.229   4.240   5.804
   64c3c     H1  412   1.073   4.237   5.736
   64c3c     HC  413   1.171   4.573   5.949
   64c3c     HC  414   1.007   4.573   5.886
   64c3c     HC  415   1.244   4.463   5.761
   64c3c     HC  416   1.080   4.463   5.697
   64c3c     H1  417   1.132   4.178   6.131
   64c3c     H1  418   1.187   4.095   5.988
   64c3c     H1  419   1.264   4.244   6.037
   64c3c     H1  420   0.962   4.098   5.900
   64c3c     H1  421   0.907   4.180   6.042
   64c3c     C2  422   0.841   4.273   5.856
   64c3c     HC  423   0.874   4.289   5.754
   64c3c     HC  424   0.819   4.372   5.895
   64c3c     CT  425   0.711   4.197   5.850
   64c3c     HC  426   0.670   4.184   5.951
   64c3c     HC  427   0.727   4.099   5.806
   64c3c     HC  428   0.639   4.252   5.790
   65c3c     N4  429   1.384   5.519   2.386
   65c3c     C1  430   1.310   5.391   2.384
   65c3c     C1  431   1.289   5.632   2.384
   65c3c     C2  432   1.161   5.423   2.370
   65c3c     C2  433   1.148   5.575   2.370
   65c3c     C1  434   1.461   5.525   2.511
   65c3c     C1  435   1.476   5.527   2.272
   65c3c     H1  436   1.326   5.331   2.473
   65c3c     H1  437   1.342   5.325   2.304
   65c3c     H1  438   1.296   5.694   2.473
   65c3c     H1  439   1.310   5.703   2.304
   65c3c     HC  440   1.105   5.379   2.453
   65c3c     HC  441   1.120   5.381   2.278
   65c3c     HC  442   1.086   5.609   2.453
   65c3c     HC  443   1.101   5.610   2.278
   65c3c     H1  444   1.532   5.443   2.519
   65c3c     H1  445   1.517   5.618   2.519
   65c3c     H1  446   1.395   5.519   2.597
   65c3c     H1  447   1.534   5.619   2.278
   65c3c     H1  448   1.549   5.446   2.278
   65c3c     C2  449   1.403   5.521   2.136
   65c3c     HC  450   1.330   5.601   2.125
   65c3c     HC  451   1.345   5.429   2.125
   65c3c     CT  452   1.499   5.529   2.021
   65c3c     HC  453   1.570   5.446   2.025
   65c3c     HC  454   1.555   5.623   2.025
   65c3c     HC  455   1.444   5.525   1.927
   66c3c     N4  456   6.537   3.790   2.547
   66c3c     C1  457   6.500   3.805   2.405
   66c3c     C1  458   6.676   3.741   2.557
   66c3c     C2  459   6.616   3.754   2.319
   66c3c     C2  460   6.727   3.714   2.415
   66c3c     C1  461   6.530   3.921   2.611
   66c3c     C1  462   6.445   3.698   2.615
   66c3c     H1  463   6.475   3.907   2.378
   66c3c     H1  464   6.408   3.751   2.379
   66c3c     H1  465   6.742   3.811   2.608
   66c3c     H1  466   6.685   3.651   2.618
   66c3c     HC  467   6.649   3.833   2.252
   66c3c     HC  468   6.585   3.670   2.258
   66c3c     HC  469   6.817   3.772   2.397
   66c3c     HC  470   6.753   3.609   2.403
   66c3c     H1  471   6.429   3.963   2.605
   66c3c     H1  472   6.558   3.916   2.716
   66c3c     H1  473   6.597   3.992   2.562
   66c3c     H1  474   6.471   3.691   2.720
   66c3c     H1  475   6.344   3.737   2.612
   66c3c     C2  476   6.447   3.556   2.553
   66c3c     HC  477   6.547   3.511   2.556
   66c3c     HC  478   6.420   3.557   2.447
   66c3c     CT  479   6.352   3.463   2.624
   66c3c     HC  480   6.250   3.501   2.617
   66c3c     HC  481   6.380   3.454   2.729
   66c3c     HC  482   6.357   3.364   2.578
   67c3c     N4  483   2.667   6.844   1.208
   67c3c     C1  484   2.647   6.792   1.071
   67c3c     C1  485   2.645   6.736   1.306
   67c3c     C2  486   2.602   6.647   1.081
   67c3c     C2  487   2.600   6.611   1.230
   67c3c     C1  488   2.805   6.892   1.221
   67c3c     C1  489   2.575   6.956   1.234
   67c3c     H1  490   2.738   6.800   1.010
   67c3c     H1  491   2.575   6.850   1.013
   67c3c     H1  492   2.733   6.715   1.365
   67c3c     H1  493   2.571   6.761   1.382
   67c3c     HC  494   2.671   6.583   1.027
   67c3c     HC  495   2.503   6.634   1.037
   67c3c     HC  496   2.668   6.529   1.251
   67c3c     HC  497   2.501   6.580   1.261
   67c3c     H1  498   2.827   6.971   1.150
   67c3c     H1  499   2.825   6.930   1.321
   67c3c     H1  500   2.875   6.811   1.202
   67c3c     H1  501   2.593   6.997   1.333
   67c3c     H1  502   2.595   7.038   1.164
   67c3c     C2  503   2.426   6.914   1.222
   67c3c     HC  504   2.400   6.834   1.292
   67c3c     HC  505   2.402   6.875   1.123
   67c3c     CT  506   2.334   7.030   1.249
   67c3c     HC  507   2.352   7.110   1.177
   67c3c     HC  508   2.350   7.069   1.349
   67c3c     HC  509   2.231   6.997   1.240
   68c3c     N4  510   1.625   1.513   4.824
   68c3c     C1  511   1.662   1.370   4.822
   68c3c     C1  512   1.746   1.596   4.827
   68c3c     C2  513   1.814   1.360   4.833
   68c3c     C2  514   1.867   1.503   4.836
   68c3c     C1  515   1.550   1.543   4.702
   68c3c     C1  516   1.540   1.542   4.941
   68c3c     H1  517   1.627   1.319   4.732
   68c3c     H1  518   1.615   1.312   4.902
   68c3c     H1  519   1.755   1.660   4.739
   68c3c     H1  520   1.748   1.668   4.909
   68c3c     HC  521   1.854   1.305   4.747
   68c3c     HC  522   1.843   1.306   4.923
   68c3c     HC  523   1.934   1.521   4.751
   68c3c     HC  524   1.924   1.521   4.927
   68c3c     H1  525   1.459   1.483   4.694
   68c3c     H1  526   1.521   1.648   4.697
   68c3c     H1  527   1.610   1.522   4.613
   68c3c     H1  528   1.509   1.646   4.939
   68c3c     H1  529   1.448   1.484   4.936
   68c3c     C2  530   1.613   1.512   5.074
   68c3c     HC  531   1.704   1.570   5.086
   68c3c     HC  532   1.644   1.408   5.083
   68c3c     CT  533   1.524   1.543   5.193
   68c3c     HC  534   1.434   1.482   5.189
   68c3c     HC  535   1.496   1.649   5.193
   68c3c     HC  536   1.578   1.521   5.285
   69c3c     N4  537   6.608   0.891   2.411
   69c3c     C1  538   6.703   0.787   2.367
   69c3c     C1  539   6.642   0.935   2.548
   69c3c     C2  540   6.797   0.755   2.484
   69c3c     C2  541   6.758   0.849   2.598
   69c3c     C1  542   6.621   1.006   2.321
   69c3c     C1  543   6.471   0.841   2.406
   69c3c     H1  544   6.761   0.816   2.280
   69c3c     H1  545   6.654   0.696   2.333
   69c3c     H1  546   6.669   1.041   2.552
   69c3c     H1  547   6.558   0.929   2.617
   69c3c     HC  548   6.900   0.771   2.454
   69c3c     HC  549   6.787   0.651   2.514
   69c3c     HC  550   6.842   0.913   2.626
   69c3c     HC  551   6.729   0.793   2.686
   69c3c     H1  552   6.598   0.979   2.218
   69c3c     H1  553   6.554   1.087   2.349
   69c3c     H1  554   6.722   1.046   2.322
   69c3c     H1  555   6.401   0.920   2.434
   69c3c     H1  556   6.445   0.813   2.304
   69c3c     C2  557   6.449   0.719   2.499
   69c3c     HC  558   6.472   0.742   2.603
   69c3c     HC  559   6.515   0.636   2.474
   69c3c     CT  560   6.307   0.669   2.493
   69c3c     HC  561   6.283   0.638   2.391
   69c3c     HC  562   6.238   0.747   2.524
   69c3c     HC  563   6.296   0.583   2.559
   70c3c     N4  564   3.780   4.582   1.841
   70c3c     C1  565   3.779   4.486   1.953
   70c3c     C1  566   3.729   4.517   1.719
   70c3c     C2  567   3.734   4.351   1.899
   70c3c     C2  568   3.702   4.370   1.751
   70c3c     C1  569   3.692   4.694   1.875
   70c3c     C1  570   3.916   4.633   1.819
   70c3c     H1  571   3.715   4.517   2.035
   70c3c     H1  572   3.876   4.476   2.002
   70c3c     H1  573   3.638   4.565   1.682
   70c3c     H1  574   3.797   4.525   1.634
   70c3c     HC  575   3.646   4.317   1.954
   70c3c     HC  576   3.811   4.275   1.912
   70c3c     HC  577   3.597   4.347   1.731
   70c3c     HC  578   3.763   4.305   1.689
   70c3c     H1  579   3.725   4.745   1.966
   70c3c     H1  580   3.688   4.768   1.795
   70c3c     H1  581   3.591   4.659   1.893
   70c3c     H1  582   3.916   4.708   1.739
   70c3c     H1  583   3.952   4.685   1.908
   70c3c     C2  584   4.016   4.520   1.782
   70c3c     HC  585   3.986   4.466   1.692
   70c3c     HC  586   4.022   4.444   1.859
   70c3c     CT  587   4.155   4.575   1.759
   70c3c     HC  588   4.191   4.623   1.849
   70c3c     HC  589   4.154   4.647   1.677
   70c3c     HC  590   4.222   4.493   1.733
   71c3c     N4  591   2.888   1.738   2.527
   71c3c     C1  592   2.932   1.878   2.520
   71c3c     C1  593   2.741   1.732   2.541
   71c3c     C2  594   2.810   1.968   2.539
   71c3c     C2  595   2.689   1.876   2.552
   71c3c     C1  596   2.926   1.671   2.402
   71c3c     C1  597   2.952   1.669   2.640
   71c3c     H1  598   2.982   1.902   2.426
   71c3c     H1  599   3.009   1.902   2.594
   71c3c     H1  600   2.693   1.681   2.457
   71c3c     H1  601   2.708   1.673   2.626
   71c3c     HC  602   2.799   2.034   2.454
   71c3c     HC  603   2.821   2.030   2.628
   71c3c     HC  604   2.617   1.895   2.473
   71c3c     HC  605   2.639   1.891   2.648
   71c3c     H1  606   3.033   1.673   2.386
   71c3c     H1  607   2.894   1.566   2.401
   71c3c     H1  608   2.879   1.720   2.317
   71c3c     H1  609   2.923   1.564   2.642
   71c3c     H1  610   3.061   1.669   2.627
   71c3c     C2  611   2.917   1.734   2.776
   71c3c     HC  612   2.810   1.734   2.795
   71c3c     HC  613   2.947   1.839   2.781
   71c3c     CT  614   2.985   1.662   2.890
   71c3c     HC  615   3.093   1.665   2.878
   71c3c     HC  616   2.952   1.558   2.893
   71c3c     HC  617   2.958   1.710   2.984
   72c3c     N4  618   3.349   5.108   0.902
   72c3c     C1  619   3.208   5.069   0.884
   72c3c     C1  620   3.409   5.027   1.011
   72c3c     C2  621   3.172   4.965   0.990
   72c3c     C2  622   3.299   4.939   1.071
   72c3c     C1  623   3.422   5.080   0.778
   72c3c     C1  624   3.358   5.251   0.934
   72c3c     H1  625   3.188   5.028   0.784
   72c3c     H1  626   3.139   5.153   0.889
   72c3c     H1  627   3.492   4.966   0.976
   72c3c     H1  628   3.455   5.088   1.089
   72c3c     HC  629   3.137   4.873   0.943
   72c3c     HC  630   3.092   5.001   1.055
   72c3c     HC  631   3.329   4.834   1.064
   72c3c     HC  632   3.284   4.962   1.176
   72c3c     H1  633   3.381   5.136   0.694
   72c3c     H1  634   3.527   5.106   0.787
   72c3c     H1  635   3.416   4.974   0.753
   72c3c     H1  636   3.463   5.280   0.942
   72c3c     H1  637   3.318   5.309   0.851
   72c3c     C2  638   3.284   5.288   1.064
   72c3c     HC  639   3.322   5.233   1.150
   72c3c     HC  640   3.178   5.263   1.059
   72c3c     CT  641   3.295   5.436   1.094
   72c3c     HC  642   3.252   5.494   1.013
   72c3c     HC  643   3.400   5.463   1.106
   72c3c     HC  644   3.241   5.458   1.186
   73c3c     N4  645   1.801   5.359   0.866
   73c3c     C1  646   1.723   5.275   0.772
   73c3c     C1  647   1.913   5.280   0.921
   73c3c     C2  648   1.781   5.134   0.774
   73c3c     C2  649   1.901   5.137   0.868
   73c3c     C1  650   1.855   5.473   0.793
   73c3c     C1  651   1.715   5.408   0.975
   73c3c     H1  652   1.723   5.315   0.671
   73c3c     H1  653   1.616   5.272   0.796
   73c3c     H1  654   2.010   5.322   0.896
   73c3c     H1  655   1.915   5.279   1.030
   73c3c     HC  656   1.812   5.106   0.673
   73c3c     HC  657   1.707   5.062   0.807
   73c3c     HC  658   1.993   5.110   0.815
   73c3c     HC  659   1.889   5.066   0.949
   73c3c     H1  660   1.777   5.534   0.748
   73c3c     H1  661   1.915   5.537   0.857
   73c3c     H1  662   1.920   5.439   0.711
   73c3c     H1  663   1.772   5.473   1.041
   73c3c     H1  664   1.635   5.470   0.933
   73c3c     C2  665   1.652   5.293   1.057
   73c3c     HC  666   1.728   5.229   1.102
   73c3c     HC  667   1.592   5.226   0.996
   73c3c     CT  668   1.565   5.346   1.168
   73c3c     HC  669   1.483   5.404   1.126
   73c3c     HC  670   1.623   5.408   1.236
   73c3c     HC  671   1.523   5.262   1.224
   74c3c     N4  672   1.715   0.967   0.425
   74c3c     C1  673   1.719   1.064   0.314
   74c3c     C1  674   1.850   0.912   0.448
   74c3c     C2  675   1.860   1.065   0.257
   74c3c     C2  676   1.943   0.970   0.342
   74c3c     C1  677   1.671   1.037   0.546
   74c3c     C1  678   1.620   0.858   0.395
   74c3c     H1  679   1.690   1.164   0.345
   74c3c     H1  680   1.647   1.042   0.235
   74c3c     H1  681   1.888   0.936   0.548
   74c3c     H1  682   1.853   0.803   0.446
   74c3c     HC  683   1.901   1.166   0.262
   74c3c     HC  684   1.861   1.035   0.152
   74c3c     HC  685   2.026   1.022   0.390
   74c3c     HC  686   1.986   0.890   0.280
   74c3c     H1  687   1.572   1.080   0.534
   74c3c     H1  688   1.668   0.970   0.633
   74c3c     H1  689   1.740   1.118   0.571
   74c3c     H1  690   1.614   0.790   0.480
   74c3c     H1  691   1.520   0.899   0.383
   74c3c     C2  692   1.659   0.780   0.268
   74c3c     HC  693   1.758   0.735   0.276
   74c3c     HC  694   1.664   0.843   0.180
   74c3c     CT  695   1.561   0.669   0.239
   74c3c     HC  696   1.461   0.710   0.224
   74c3c     HC  697   1.558   0.598   0.323
   74c3c     HC  698   1.592   0.616   0.149
   75c3c     N4  699   0.443   3.032   6.201
   75c3c     C1  700   0.459   3.178   6.181
   75c3c     C1  701   0.554   2.980   6.282
   75c3c     C2  702   0.592   3.220   6.245
   75c3c     C2  703   0.652   3.095   6.309
   75c3c     C1  704   0.317   3.009   6.273
   75c3c     C1  705   0.437   2.964   6.071
   75c3c     H1  706   0.377   3.236   6.224
   75c3c     H1  707   0.458   3.207   6.076
   75c3c     H1  708   0.521   2.937   6.377
   75c3c     H1  709   0.607   2.897   6.235
   75c3c     HC  710   0.574   3.297   6.320
   75c3c     HC  711   0.660   3.261   6.170
   75c3c     HC  712   0.665   3.108   6.416
   75c3c     HC  713   0.750   3.073   6.267
   75c3c     H1  714   0.232   3.047   6.218
   75c3c     H1  715   0.301   2.903   6.291
   75c3c     H1  716   0.319   3.059   6.370
   75c3c     H1  717   0.421   2.857   6.087
   75c3c     H1  718   0.352   2.999   6.013
   75c3c     C2  719   0.567   2.983   5.989
   75c3c     HC  720   0.655   2.947   6.041
   75c3c     HC  721   0.588   3.088   5.969
   75c3c     CT  722   0.559   2.912   5.856
   75c3c     HC  723   0.476   2.950   5.797
   75c3c     HC  724   0.546   2.805   5.872
   75c3c     HC  725   0.652   2.928   5.801
   76c3c     N4  726   3.899   4.114   3.790
   76c3c     C1  727   4.041   4.152   3.806
   76c3c     C1  728   3.814   4.213   3.859
   76c3c     C2  729   4.048   4.275   3.896
   76c3c     C2  730   3.904   4.313   3.930
   76c3c     C1  731   3.866   4.116   3.648
   76c3c     C1  732   3.876   3.980   3.844
   76c3c     H1  733   4.090   4.173   3.710
   76c3c     H1  734   4.102   4.072   3.846
   76c3c     H1  735   3.746   4.264   3.791
   76c3c     H1  736   3.745   4.167   3.931
   76c3c     HC  737   4.099   4.356   3.844
   76c3c     HC  738   4.105   4.254   3.987
   76c3c     HC  739   3.882   4.414   3.896
   76c3c     HC  740   3.888   4.311   4.038
   76c3c     H1  741   3.927   4.045   3.591
   76c3c     H1  742   3.762   4.089   3.630
   76c3c     H1  743   3.882   4.215   3.605
   76c3c     H1  744   3.772   3.950   3.827
   76c3c     H1  745   3.936   3.907   3.789
   76c3c     C2  746   3.909   3.970   3.995
   76c3c     HC  747   3.850   4.039   4.055
   76c3c     HC  748   4.013   3.996   4.016
   76c3c     CT  749   3.884   3.831   4.048
   76c3c     HC  750   3.947   3.759   3.995
   76c3c     HC  751   3.779   3.804   4.034
   76c3c     HC  752   3.909   3.828   4.154
   77c3c     N4  753   6.788   1.816   4.575
   77c3c     C1  754   6.907   1.888   4.524
   77c3c     C1  755   6.802   1.672   4.547
   77c3c     C2  756   6.997   1.787   4.452
   77c3c     C2  757   6.930   1.650   4.467
   77c3c     C1  758   6.781   1.835   4.720
   77c3c     C1  759   6.666   1.869   4.513
   77c3c     H1  760   6.963   1.938   4.603
   77c3c     H1  761   6.882   1.970   4.457
   77c3c     H1  762   6.804   1.612   4.638
   77c3c     H1  763   6.716   1.631   4.493
   77c3c     HC  764   7.096   1.787   4.498
   77c3c     HC  765   7.009   1.813   4.347
   77c3c     HC  766   6.995   1.581   4.520
   77c3c     HC  767   6.908   1.607   4.369
   77c3c     H1  768   6.772   1.941   4.746
   77c3c     H1  769   6.695   1.783   4.763
   77c3c     H1  770   6.871   1.797   4.769
   77c3c     H1  771   6.579   1.819   4.555
   77c3c     H1  772   6.655   1.975   4.538
   77c3c     C2  773   6.666   1.853   4.359
   77c3c     HC  774   6.675   1.748   4.329
   77c3c     HC  775   6.751   1.903   4.312
   77c3c     CT  776   6.540   1.908   4.298
   77c3c     HC  777   6.531   2.014   4.320
   77c3c     HC  778   6.453   1.855   4.337
   77c3c     HC  779   6.543   1.895   4.190
   78c3c     N4  780   3.121   0.875   6.429
   78c3c     C1  781   3.173   1.013   6.416
   78c3c     C1  782   3.217   0.780   6.370
   78c3c     C2  783   3.304   1.007   6.337
   78c3c     C2  784   3.332   0.860   6.308
   78c3c     C1  785   3.106   0.844   6.571
   78c3c     C1  786   2.991   0.864   6.363
   78c3c     H1  787   3.189   1.061   6.512
   78c3c     H1  788   3.103   1.081   6.367
   78c3c     H1  789   3.256   0.709   6.443
   78c3c     H1  790   3.172   0.715   6.295
   78c3c     HC  791   3.385   1.051   6.396
   78c3c     HC  792   3.297   1.065   6.245
   78c3c     HC  793   3.427   0.829   6.352
   78c3c     HC  794   3.338   0.843   6.201
   78c3c     H1  795   3.037   0.912   6.620
   78c3c     H1  796   3.069   0.743   6.586
   78c3c     H1  797   3.202   0.852   6.623
   78c3c     H1  798   2.950   0.763   6.377
   78c3c     H1  799   2.919   0.931   6.410
   78c3c     C2  800   2.998   0.895   6.211
   78c3c     HC  801   3.067   0.829   6.159
   78c3c     HC  802   3.035   0.996   6.192
   78c3c     CT  803   2.863   0.883   6.146
   78c3c     HC  804   2.793   0.953   6.191
   78c3c     HC  805   2.825   0.781   6.157
   78c3c     HC  806   2.872   0.906   6.039
   79c3c     N4  807   2.843   6.862   2.666
   79c3c     C1  808   2.769   6.973   2.602
   79c3c     C1  809   2.912   6.783   2.563
   79c3c     C2  810   2.785   6.960   2.450
   79c3c     C2  811   2.875   6.839   2.426
   79c3c     C1  812   2.943   6.919   2.757
   79c3c     C1  813   2.750   6.777   2.742
   79c3c     H1  814   2.805   7.071   2.635
   79c3c     H1  815   2.664   6.976   2.629
   79c3c     H1  816   3.020   6.783   2.576
   79c3c     H1  817   2.888   6.676   2.568
   79c3c     HC  818   2.829   7.050   2.409
   79c3c     HC  819   2.688   6.946   2.402
   79c3c     HC  820   2.966   6.869   2.372
   79c3c     HC  821   2.824   6.764   2.365
   79c3c     H1  822   2.897   6.980   2.834
   79c3c     H1  823   3.001   6.841   2.806
   79c3c     H1  824   3.013   6.982   2.703
   79c3c     H1  825   2.806   6.699   2.793
   79c3c     H1  826   2.703   6.835   2.821
   79c3c     C2  827   2.641   6.714   2.653
   79c3c     HC  828   2.684   6.652   2.574
   79c3c     HC  829   2.581   6.788   2.602
   79c3c     CT  830   2.548   6.627   2.734
   79c3c     HC  831   2.498   6.686   2.810
   79c3c     HC  832   2.603   6.546   2.781
   79c3c     HC  833   2.472   6.583   2.668
   80c3c     N4  834   5.600   1.935   1.541
   80c3c     C1  835   5.525   1.822   1.483
   80c3c     C1  836   5.744   1.921   1.511
   80c3c     C2  837   5.625   1.726   1.419
   80c3c     C2  838   5.764   1.788   1.437
   80c3c     C1  839   5.552   2.059   1.481
   80c3c     C1  840   5.579   1.941   1.687
   80c3c     H1  841   5.452   1.854   1.409
   80c3c     H1  842   5.463   1.770   1.556
   80c3c     H1  843   5.782   2.003   1.451
   80c3c     H1  844   5.807   1.924   1.599
   80c3c     HC  845   5.602   1.712   1.314
   80c3c     HC  846   5.621   1.628   1.467
   80c3c     HC  847   5.811   1.806   1.340
   80c3c     HC  848   5.829   1.722   1.493
   80c3c     H1  849   5.445   2.075   1.499
   80c3c     H1  850   5.605   2.147   1.519
   80c3c     H1  851   5.566   2.058   1.373
   80c3c     H1  852   5.631   2.027   1.728
   80c3c     H1  853   5.474   1.956   1.708
   80c3c     C2  854   5.628   1.812   1.758
   80c3c     HC  855   5.734   1.794   1.741
   80c3c     HC  856   5.577   1.723   1.722
   80c3c     CT  857   5.606   1.821   1.907
   80c3c     HC  858   5.500   1.833   1.929
   80c3c     HC  859   5.660   1.905   1.949
   80c3c     HC  860   5.641   1.729   1.954
   81c3c     N4  861   6.031   2.052   0.892
   81c3c     C1  862   5.953   2.145   0.977
   81c3c     C1  863   6.168   2.039   0.946
   81c3c     C2  864   6.046   2.201   1.085
   81c3c     C2  865   6.182   2.134   1.065
   81c3c     C1  866   5.967   1.921   0.896
   81c3c     C1  867   6.035   2.101   0.754
   81c3c     H1  868   5.867   2.097   1.023
   81c3c     H1  869   5.908   2.226   0.921
   81c3c     H1  870   6.192   1.937   0.976
   81c3c     H1  871   6.245   2.061   0.872
   81c3c     HC  872   6.006   2.179   1.184
   81c3c     HC  873   6.055   2.309   1.076
   81c3c     HC  874   6.211   2.078   1.154
   81c3c     HC  875   6.260   2.209   1.046
   81c3c     H1  876   5.865   1.925   0.858
   81c3c     H1  877   6.022   1.848   0.835
   81c3c     H1  878   5.963   1.882   0.998
   81c3c     H1  879   6.088   2.030   0.691
   81c3c     H1  880   5.934   2.105   0.713
   81c3c     C2  881   6.101   2.240   0.742
   81c3c     HC  882   6.204   2.240   0.778
   81c3c     HC  883   6.050   2.316   0.801
   81c3c     CT  884   6.104   2.288   0.599
   81c3c     HC  885   6.002   2.296   0.560
   81c3c     HC  886   6.160   2.218   0.537
   81c3c     HC  887   6.151   2.386   0.594
   82c3c     N4  888   4.347   1.497   2.501
   82c3c     C1  889   4.475   1.518   2.431
   82c3c     C1  890   4.353   1.557   2.635
   82c3c     C2  891   4.571   1.587   2.528
   82c3c     C2  892   4.494   1.612   2.657
   82c3c     C1  893   4.241   1.563   2.424
   82c3c     C1  894   4.317   1.353   2.511
   82c3c     H1  895   4.465   1.577   2.340
   82c3c     H1  896   4.520   1.425   2.394
   82c3c     H1  897   4.279   1.636   2.649
   82c3c     H1  898   4.327   1.487   2.715
   82c3c     HC  899   4.606   1.681   2.485
   82c3c     HC  900   4.659   1.525   2.547
   82c3c     HC  901   4.489   1.718   2.679
   82c3c     HC  902   4.542   1.563   2.741
   82c3c     H1  903   4.233   1.523   2.323
   82c3c     H1  904   4.144   1.551   2.472
   82c3c     H1  905   4.261   1.670   2.416
   82c3c     H1  906   4.220   1.338   2.558
   82c3c     H1  907   4.308   1.310   2.411
   82c3c     C2  908   4.425   1.276   2.590
   82c3c     HC  909   4.436   1.313   2.692
   82c3c     HC  910   4.524   1.285   2.546
   82c3c     CT  911   4.392   1.129   2.599
   82c3c     HC  912   4.387   1.085   2.499
   82c3c     HC  913   4.297   1.114   2.650
   82c3c     HC  914   4.470   1.078   2.656
   83c3c     N4  915   5.733   5.791   3.463
   83c3c     C1  916   5.596   5.767   3.414
   83c3c     C1  917   5.810   5.866   3.363
   83c3c     C2  918   5.587   5.822   3.271
   83c3c     C2  919   5.722   5.884   3.239
   83c3c     C1  920   5.725   5.871   3.586
   83c3c     C1  921   5.799   5.663   3.494
   83c3c     H1  922   5.520   5.813   3.477
   83c3c     H1  923   5.567   5.662   3.416
   83c3c     H1  924   5.844   5.963   3.399
   83c3c     H1  925   5.904   5.817   3.335
   83c3c     HC  926   5.507   5.896   3.265
   83c3c     HC  927   5.563   5.742   3.201
   83c3c     HC  928   5.711   5.990   3.216
   83c3c     HC  929   5.767   5.836   3.152
   83c3c     H1  930   5.668   5.820   3.663
   83c3c     H1  931   5.824   5.893   3.626
   83c3c     H1  932   5.676   5.966   3.566
   83c3c     H1  933   5.898   5.681   3.534
   83c3c     H1  934   5.744   5.610   3.571
   83c3c     C2  935   5.811   5.572   3.369
   83c3c     HC  936   5.868   5.619   3.288
   83c3c     HC  937   5.714   5.549   3.325
   83c3c     CT  938   5.880   5.442   3.402
   83c3c     HC  939   5.822   5.387   3.478
   83c3c     HC  940   5.980   5.460   3.440
   83c3c     HC  941   5.886   5.381   3.312
   84c3c     N4  942   1.040   1.686   6.003
   84c3c     C1  943   0.901   1.731   5.984
   84c3c     C1  944   1.116   1.790   6.077
   84c3c     C2  945   0.888   1.873   6.039
   84c3c     C2  946   1.024   1.910   6.098
   84c3c     C1  947   1.039   1.564   6.083
   84c3c     C1  948   1.103   1.659   5.874
   84c3c     H1  949   0.828   1.665   6.032
   84c3c     H1  950   0.869   1.729   5.879
   84c3c     H1  951   1.154   1.754   6.172
   84c3c     H1  952   1.207   1.821   6.026
   84c3c     HC  953   0.811   1.876   6.116
   84c3c     HC  954   0.859   1.943   5.961
   84c3c     HC  955   1.016   1.932   6.204
   84c3c     HC  956   1.064   1.999   6.049
   84c3c     H1  957   0.983   1.484   6.034
   84c3c     H1  958   1.140   1.527   6.102
   84c3c     H1  959   0.993   1.582   6.180
   84c3c     H1  960   1.205   1.622   5.889
   84c3c     H1  961   1.050   1.579   5.822
   84c3c     C2  962   1.109   1.784   5.783
   84c3c     HC  963   1.164   1.866   5.829
   84c3c     HC  964   1.009   1.825   5.762
   84c3c     CT  965   1.174   1.753   5.650
   84c3c     HC  966   1.118   1.676   5.598
   84c3c     HC  967   1.276   1.719   5.666
   84c3c     HC  968   1.176   1.844   5.590
   85c3c     N4  969   1.207   6.707   3.347
   85c3c     C1  970   1.101   6.777   3.271
   85c3c     C1  971   1.301   6.642   3.253
   85c3c     C2  972   1.123   6.749   3.122
   85c3c     C2  973   1.249   6.663   3.111
   85c3c     C1  974   1.281   6.806   3.426
   85c3c     C1  975   1.147   6.607   3.437
   85c3c     H1  976   1.101   6.884   3.289
   85c3c     H1  977   1.001   6.748   3.301
   85c3c     H1  978   1.402   6.681   3.263
   85c3c     H1  979   1.314   6.536   3.273
   85c3c     HC  980   1.134   6.843   3.068
   85c3c     HC  981   1.037   6.697   3.080
   85c3c     HC  982   1.325   6.714   3.051
   85c3c     HC  983   1.227   6.568   3.063
   85c3c     H1  984   1.216   6.858   3.497
   85c3c     H1  985   1.361   6.760   3.484
   85c3c     H1  986   1.326   6.881   3.362
   85c3c     H1  987   1.225   6.560   3.496
   85c3c     H1  988   1.082   6.656   3.509
   85c3c     C2  989   1.068   6.499   3.360
   85c3c     HC  990   1.130   6.445   3.289
   85c3c     HC  991   0.986   6.542   3.301
   85c3c     CT  992   1.008   6.398   3.455
   85c3c     HC  993   0.940   6.447   3.524
   85c3c     HC  994   1.086   6.348   3.511
   85c3c     HC  995   0.952   6.323   3.398
   86c3c     N4  996   4.797   3.469   1.058
   86c3c     C1  997   4.924   3.543   1.043
   86c3c     C1  998   4.825   3.327   1.085
   86c3c     C2  999   5.039   3.443   1.052
   86c3c     C2 1000   4.976   3.306   1.078
   86c3c     C1 1001   4.724   3.525   1.172
   86c3c     C1 1002   4.715   3.484   0.937
   86c3c     H1 1003   4.936   3.621   1.119
   86c3c     H1 1004   4.930   3.599   0.950
   86c3c     H1 1005   4.787   3.294   1.182
   86c3c     H1 1006   4.775   3.260   1.016
   86c3c     HC 1007   5.106   3.471   1.133
   86c3c     HC 1008   5.097   3.442   0.960
   86c3c     HC 1009   5.012   3.265   1.173
   86c3c     HC 1010   5.002   3.236   1.000
   86c3c     H1 1011   4.701   3.631   1.159
   86c3c     H1 1012   4.629   3.473   1.189
   86c3c     H1 1013   4.782   3.515   1.264
   86c3c     H1 1014   4.620   3.433   0.950
   86c3c     H1 1015   4.690   3.588   0.920
   86c3c     C2 1016   4.786   3.427   0.812
   86c3c     HC 1017   4.810   3.321   0.822
   86c3c     HC 1018   4.881   3.476   0.792
   86c3c     CT 1019   4.700   3.443   0.688
   86c3c     HC 1020   4.679   3.548   0.670
   86c3c     HC 1021   4.606   3.389   0.701
   86c3c     HC 1022   4.753   3.402   0.602
   87c3c     N4 1023   4.162   5.324   2.204
   87c3c     C1 1024   4.028   5.384   2.217
   87c3c     C1 1025   4.266   5.427   2.225
   87c3c     C2 1026   4.046   5.535   2.238
   87c3c     C2 1027   4.196   5.562   2.243
   87c3c     C1 1028   4.178   5.221   2.308
   87c3c     C1 1029   4.178   5.261   2.072
   87c3c     H1 1030   3.971   5.342   2.300
   87c3c     H1 1031   3.964   5.365   2.131
   87c3c     H1 1032   4.330   5.406   2.310
   87c3c     H1 1033   4.338   5.432   2.143
   87c3c     HC 1034   3.998   5.565   2.331
   87c3c     HC 1035   3.999   5.591   2.158
   87c3c     HC 1036   4.225   5.606   2.338
   87c3c     HC 1037   4.225   5.632   2.165
   87c3c     H1 1038   4.103   5.143   2.299
   87c3c     H1 1039   4.276   5.174   2.304
   87c3c     H1 1040   4.167   5.265   2.407
   87c3c     H1 1041   4.275   5.213   2.065
   87c3c     H1 1042   4.104   5.182   2.060
   87c3c     C2 1043   4.163   5.363   1.957
   87c3c     HC 1044   4.237   5.444   1.963
   87c3c     HC 1045   4.066   5.413   1.958
   87c3c     CT 1046   4.179   5.297   1.822
   87c3c     HC 1047   4.103   5.220   1.809
   87c3c     HC 1048   4.278   5.252   1.814
   87c3c     HC 1049   4.168   5.372   1.743
   88c3c     N4 1050   5.638   4.886   4.247
   88c3c     C1 1051   5.772   4.825   4.236
   88c3c     C1 1052   5.535   4.786   4.213
   88c3c     C2 1053   5.755   4.682   4.184
   88c3c     C2 1054   5.605   4.657   4.170
   88c3c     C1 1055   5.617   4.929   4.386
   88c3c     C1 1056   5.627   5.002   4.158
   88c3c     H1 1057   5.825   4.824   4.331
   88c3c     H1 1058   5.839   4.881   4.171
   88c3c     H1 1059   5.468   4.765   4.297
   88c3c     H1 1060   5.466   4.819   4.136
   88c3c     HC 1061   5.800   4.611   4.255
   88c3c     HC 1062   5.806   4.669   4.089
   88c3c     HC 1063   5.574   4.574   4.233
   88c3c     HC 1064   5.580   4.631   4.067
   88c3c     H1 1065   5.692   5.002   4.417
   88c3c     H1 1066   5.519   4.973   4.400
   88c3c     H1 1067   5.625   4.844   4.454
   88c3c     H1 1068   5.529   5.049   4.171
   88c3c     H1 1069   5.700   5.078   4.187
   88c3c     C2 1070   5.647   4.965   4.010
   88c3c     HC 1071   5.575   4.891   3.975
   88c3c     HC 1072   5.745   4.919   3.991
   88c3c     CT 1073   5.636   5.086   3.920
   88c3c     HC 1074   5.711   5.160   3.947
   88c3c     HC 1075   5.537   5.131   3.931
   88c3c     HC 1076   5.650   5.056   3.817
   89c3c     N4 1077   3.274   4.437   4.138
   89c3c     C1 1078   3.144   4.500   4.109
   89c3c     C1 1079   3.356   4.528   4.220
   89c3c     C2 1080   3.145   4.642   4.168
   89c3c     C2 1081   3.279   4.659   4.238
   89c3c     C1 1082   3.250   4.314   4.213
   89c3c     C1 1083   3.344   4.404   4.013
   89c3c     H1 1084   3.060   4.444   4.150
   89c3c     H1 1085   3.121   4.505   4.002
   89c3c     H1 1086   3.380   4.485   4.318
   89c3c     H1 1087   3.454   4.548   4.178
   89c3c     HC 1088   3.063   4.653   4.238
   89c3c     HC 1089   3.132   4.717   4.090
   89c3c     HC 1090   3.265   4.679   4.344
   89c3c     HC 1091   3.335   4.742   4.196
   89c3c     H1 1092   3.188   4.243   4.158
   89c3c     H1 1093   3.343   4.264   4.239
   89c3c     H1 1094   3.198   4.336   4.307
   89c3c     H1 1095   3.437   4.353   4.035
   89c3c     H1 1096   3.285   4.333   3.955
   89c3c     C2 1097   3.373   4.530   3.927
   89c3c     HC 1098   3.434   4.603   3.980
   89c3c     HC 1099   3.282   4.583   3.900
   89c3c     CT 1100   3.444   4.494   3.799
   89c3c     HC 1101   3.383   4.426   3.740
   89c3c     HC 1102   3.540   4.446   3.822
   89c3c     HC 1103   3.463   4.584   3.742
   90c3c     N4 1104   1.809   2.325   4.139
   90c3c     C1 1105   1.882   2.218   4.068
   90c3c     C1 1106   1.862   2.340   4.276
   90c3c     C2 1107   1.981   2.155   4.166
   90c3c     C2 1108   1.968   2.232   4.298
   90c3c     C1 1109   1.829   2.451   4.067
   90c3c     C1 1110   1.665   2.294   4.143
   90c3c     H1 1111   1.935   2.254   3.980
   90c3c     H1 1112   1.817   2.142   4.026
   90c3c     H1 1113   1.904   2.438   4.293
   90c3c     H1 1114   1.785   2.333   4.353
   90c3c     HC 1115   2.082   2.162   4.127
   90c3c     HC 1116   1.959   2.049   4.181
   90c3c     HC 1117   2.063   2.278   4.325
   90c3c     HC 1118   1.940   2.165   4.379
   90c3c     H1 1119   1.792   2.445   3.965
   90c3c     H1 1120   1.777   2.533   4.116
   90c3c     H1 1121   1.935   2.476   4.062
   90c3c     H1 1122   1.611   2.376   4.191
   90c3c     H1 1123   1.625   2.288   4.042
   90c3c     C2 1124   1.635   2.162   4.218
   90c3c     HC 1125   1.671   2.164   4.321
   90c3c     HC 1126   1.685   2.076   4.172
   90c3c     CT 1127   1.487   2.132   4.221
   90c3c     HC 1128   1.449   2.123   4.120
   90c3c     HC 1129   1.434   2.213   4.272
   90c3c     HC 1130   1.470   2.039   4.274
   91c3c     N4 1131   1.728   0.607   5.845
   91c3c     C1 1132   1.636   0.561   5.739
   91c3c     C1 1133   1.724   0.512   5.958
   91c3c     C2 1134   1.564   0.436   5.789
   91c3c     C2 1135   1.620   0.405   5.927
   91c3c     C1 1136   1.864   0.611   5.791
   91c3c     C1 1137   1.690   0.741   5.891
   91c3c     H1 1138   1.688   0.540   5.645
   91c3c     H1 1139   1.564   0.637   5.709
   91c3c     H1 1140   1.821   0.465   5.976
   91c3c     H1 1141   1.703   0.559   6.053
   91c3c     HC 1142   1.582   0.353   5.720
   91c3c     HC 1143   1.456   0.452   5.793
   91c3c     HC 1144   1.666   0.306   5.929
   91c3c     HC 1145   1.540   0.405   6.002
   91c3c     H1 1146   1.872   0.679   5.707
   91c3c     H1 1147   1.936   0.643   5.866
   91c3c     H1 1148   1.894   0.512   5.756
   91c3c     H1 1149   1.761   0.777   5.965
   91c3c     H1 1150   1.697   0.812   5.808
   91c3c     C2 1151   1.547   0.746   5.949
   91c3c     HC 1152   1.535   0.678   6.034
   91c3c     HC 1153   1.472   0.714   5.877
   91c3c     CT 1154   1.510   0.885   5.996
   91c3c     HC 1155   1.515   0.954   5.912
   91c3c     HC 1156   1.580   0.918   6.073
   91c3c     HC 1157   1.409   0.884   6.036
   92c3c     N4 1158   2.724   5.743   0.944
   92c3c     C1 1159   2.864   5.720   0.984
   92c3c     C1 1160   2.634   5.709   1.056
   92c3c     C2 1161   2.864   5.661   1.125
   92c3c     C2 1162   2.719   5.654   1.170
   92c3c     C1 1163   2.707   5.885   0.911
   92c3c     C1 1164   2.691   5.662   0.826
   92c3c     H1 1165   2.923   5.812   0.981
   92c3c     H1 1166   2.918   5.655   0.916
   92c3c     H1 1167   2.575   5.795   1.090
   92c3c     H1 1168   2.557   5.637   1.029
   92c3c     HC 1169   2.923   5.725   1.192
   92c3c     HC 1170   2.910   5.562   1.126
   92c3c     HC 1171   2.703   5.714   1.260
   92c3c     HC 1172   2.690   5.552   1.194
   92c3c     H1 1173   2.772   5.916   0.829
   92c3c     H1 1174   2.604   5.907   0.882
   92c3c     H1 1175   2.730   5.947   0.997
   92c3c     H1 1176   2.589   5.683   0.794
   92c3c     H1 1177   2.755   5.691   0.742
   92c3c     C2 1178   2.707   5.510   0.852
   92c3c     HC 1179   2.643   5.476   0.933
   92c3c     HC 1180   2.808   5.484   0.882
   92c3c     CT 1181   2.673   5.429   0.729
   92c3c     HC 1182   2.739   5.456   0.647
   92c3c     HC 1183   2.569   5.448   0.700
   92c3c     HC 1184   2.684   5.323   0.752
   93c3c     N4 1185   4.843   4.102   0.921
   93c3c     C1 1186   4.800   4.004   1.022
   93c3c     C1 1187   4.726   4.148   0.844
   93c3c     C2 1188   4.650   3.979   1.005
   93c3c     C2 1189   4.603   4.070   0.891
   93c3c     C1 1190   4.902   4.217   0.989
   93c3c     C1 1191   4.943   4.042   0.831
   93c3c     H1 1192   4.821   4.038   1.124
   93c3c     H1 1193   4.855   3.910   1.017
   93c3c     H1 1194   4.708   4.255   0.854
   93c3c     H1 1195   4.738   4.136   0.736
   93c3c     HC 1196   4.598   4.002   1.097
   93c3c     HC 1197   4.631   3.874   0.981
   93c3c     HC 1198   4.527   4.139   0.926
   93c3c     HC 1199   4.560   4.011   0.810
   93c3c     H1 1200   4.989   4.189   1.048
   93c3c     H1 1201   4.934   4.293   0.918
   93c3c     H1 1202   4.830   4.263   1.056
   93c3c     H1 1203   4.977   4.116   0.759
   93c3c     H1 1204   5.031   4.013   0.888
   93c3c     C2 1205   4.888   3.919   0.755
   93c3c     HC 1206   4.801   3.944   0.694
   93c3c     HC 1207   4.854   3.840   0.822
   93c3c     CT 1208   4.992   3.859   0.664
   93c3c     HC 1209   5.079   3.827   0.721
   93c3c     HC 1210   5.024   3.933   0.590
   93c3c     HC 1211   4.950   3.773   0.612
   94c3c     N4 1212   6.332   6.791   0.520
   94c3c     C1 1213   6.269   6.798   0.653
   94c3c     C1 1214   6.227   6.787   0.416
   94c3c     C2 1215   6.117   6.790   0.635
   94c3c     C2 1216   6.091   6.783   0.485
   94c3c     C1 1217   6.414   6.911   0.500
   94c3c     C1 1218   6.417   6.672   0.511
   94c3c     H1 1219   6.295   6.889   0.707
   94c3c     H1 1220   6.302   6.720   0.721
   94c3c     H1 1221   6.233   6.873   0.348
   94c3c     H1 1222   6.238   6.703   0.348
   94c3c     HC 1223   6.070   6.878   0.679
   94c3c     HC 1224   6.076   6.703   0.686
   94c3c     HC 1225   6.031   6.868   0.452
   94c3c     HC 1226   6.037   6.692   0.459
   94c3c     H1 1227   6.492   6.919   0.576
   94c3c     H1 1228   6.462   6.911   0.403
   94c3c     H1 1229   6.352   7.001   0.507
   94c3c     H1 1230   6.467   6.669   0.414
   94c3c     H1 1231   6.497   6.677   0.585
   94c3c     C2 1232   6.338   6.540   0.531
   94c3c     HC 1233   6.258   6.529   0.457
   94c3c     HC 1234   6.288   6.537   0.628
   94c3c     CT 1235   6.428   6.420   0.521
   94c3c     HC 1236   6.505   6.424   0.597
   94c3c     HC 1237   6.475   6.416   0.422
   94c3c     HC 1238   6.369   6.329   0.535
   95c3c     N4 1239   6.648   2.181   5.824
   95c3c     C1 1240   6.526   2.099   5.814
   95c3c     C1 1241   6.633   2.280   5.932
   95c3c     C2 1242   6.424   2.153   5.914
   95c3c     C2 1243   6.491   2.268   5.989
   95c3c     C1 1244   6.761   2.093   5.857
   95c3c     C1 1245   6.675   2.248   5.697
   95c3c     H1 1246   6.545   1.993   5.834
   95c3c     H1 1247   6.483   2.097   5.714
   95c3c     H1 1248   6.706   2.267   6.012
   95c3c     H1 1249   6.651   2.382   5.900
   95c3c     HC 1250   6.394   2.074   5.983
   95c3c     HC 1251   6.334   2.187   5.863
   95c3c     HC 1252   6.496   2.247   6.096
   95c3c     HC 1253   6.436   2.360   5.976
   95c3c     H1 1254   6.776   2.017   5.781
   95c3c     H1 1255   6.854   2.149   5.867
   95c3c     H1 1256   6.743   2.042   5.952
   95c3c     H1 1257   6.768   2.305   5.703
   95c3c     H1 1258   6.691   2.174   5.618
   95c3c     C2 1259   6.560   2.343   5.655
   95c3c     HC 1260   6.542   2.421   5.729
   95c3c     HC 1261   6.465   2.291   5.644
   95c3c     CT 1262   6.590   2.411   5.523
   95c3c     HC 1263   6.603   2.337   5.445
   95c3c     HC 1264   6.681   2.470   5.532
   95c3c     HC 1265   6.508   2.477   5.497
   96c3c     N4 1266   5.612   3.689   4.369
   96c3c     C1 1267   5.747   3.643   4.407
   96c3c     C1 1268   5.606   3.836   4.376
   96c3c     C2 1269   5.829   3.766   4.448
   96c3c     C2 1270   5.740   3.888   4.429
   96c3c     C1 1271   5.585   3.648   4.231
   96c3c     C1 1272   5.512   3.629   4.458
   96c3c     H1 1273   5.798   3.590   4.326
   96c3c     H1 1274   5.747   3.570   4.487
   96c3c     H1 1275   5.584   3.882   4.280
   96c3c     H1 1276   5.525   3.873   4.439
   96c3c     HC 1277   5.919   3.773   4.387
   96c3c     HC 1278   5.862   3.757   4.552
   96c3c     HC 1279   5.784   3.957   4.358
   96c3c     HC 1280   5.727   3.941   4.523
   96c3c     H1 1281   5.590   3.539   4.220
   96c3c     H1 1282   5.487   3.680   4.198
   96c3c     H1 1283   5.659   3.690   4.163
   96c3c     H1 1284   5.412   3.660   4.427
   96c3c     H1 1285   5.514   3.521   4.449
   96c3c     C2 1286   5.533   3.669   4.606
   96c3c     HC 1287   5.530   3.776   4.622
   96c3c     HC 1288   5.631   3.638   4.643
   96c3c     CT 1289   5.429   3.606   4.695
   96c3c     HC 1290   5.434   3.498   4.688
   96c3c     HC 1291   5.329   3.640   4.666
   96c3c     HC 1292   5.447   3.636   4.798
   97c3c     N4 1293   4.028   6.134   0.350
   97c3c     C1 1294   3.972   6.012   0.410
   97c3c     C1 1295   4.149   6.100   0.272
   97c3c     C2 1296   4.065   5.895   0.378
   97c3c     C2 1297   4.177   5.951   0.290
   97c3c     C1 1298   3.929   6.191   0.258
   97c3c     C1 1299   4.060   6.232   0.454
   97c3c     H1 1300   3.871   5.990   0.374
   97c3c     H1 1301   3.958   6.020   0.518
   97c3c     H1 1302   4.139   6.123   0.166
   97c3c     H1 1303   4.236   6.158   0.301
   97c3c     HC 1304   4.010   5.817   0.325
   97c3c     HC 1305   4.106   5.851   0.469
   97c3c     HC 1306   4.179   5.901   0.193
   97c3c     HC 1307   4.274   5.935   0.337
   97c3c     H1 1308   3.837   6.217   0.310
   97c3c     H1 1309   3.966   6.281   0.210
   97c3c     H1 1310   3.903   6.120   0.180
   97c3c     H1 1311   4.097   6.324   0.408
   97c3c     H1 1312   3.970   6.261   0.508
   97c3c     C2 1313   4.165   6.179   0.554
   97c3c     HC 1314   4.259   6.152   0.506
   97c3c     HC 1315   4.132   6.089   0.605
   97c3c     CT 1316   4.197   6.282   0.660
   97c3c     HC 1317   4.107   6.307   0.716
   97c3c     HC 1318   4.237   6.372   0.615
   97c3c     HC 1319   4.271   6.242   0.729
   98c3c     N4 1320   2.150   3.606   3.107
   98c3c     C1 1321   2.284   3.625   3.047
   98c3c     C1 1322   2.125   3.463   3.130
   98c3c     C2 1323   2.344   3.487   3.022
   98c3c     C2 1324   2.244   3.384   3.074
   98c3c     C1 1325   2.147   3.675   3.236
   98c3c     C1 1326   2.047   3.663   3.020
   98c3c     H1 1327   2.350   3.684   3.110
   98c3c     H1 1328   2.282   3.682   2.954
   98c3c     H1 1329   2.111   3.439   3.235
   98c3c     H1 1330   2.033   3.428   3.085
   98c3c     HC 1331   2.440   3.478   3.074
   98c3c     HC 1332   2.364   3.471   2.915
   98c3c     HC 1333   2.288   3.323   3.153
   98c3c     HC 1334   2.212   3.317   2.994
   98c3c     H1 1335   2.166   3.782   3.225
   98c3c     H1 1336   2.051   3.664   3.286
   98c3c     H1 1337   2.223   3.635   3.303
   98c3c     H1 1338   1.949   3.653   3.067
   98c3c     H1 1339   2.063   3.770   3.007
   98c3c     C2 1340   2.044   3.595   2.881
   98c3c     HC 1341   2.025   3.488   2.887
   98c3c     HC 1342   2.138   3.604   2.828
   98c3c     CT 1343   1.936   3.655   2.793
   98c3c     HC 1344   1.955   3.761   2.777
   98c3c     HC 1345   1.838   3.642   2.839
   98c3c     HC 1346   1.937   3.604   2.696
   99c3c     N4 1347   3.380   2.271   3.008
   99c3c     C1 1348   3.233   2.284   2.999
   99c3c     C1 1349   3.441   2.405   3.019
   99c3c     C2 1350   3.198   2.432   2.995
   99c3c     C2 1351   3.329   2.509   3.007
   99c3c     C1 1352   3.412   2.195   3.129
   99c3c     C1 1353   3.432   2.200   2.890
   99c3c     H1 1354   3.182   2.236   3.082
   99c3c     H1 1355   3.191   2.232   2.912
   99c3c     H1 1356   3.494   2.418   3.113
   99c3c     H1 1357   3.518   2.423   2.944
   99c3c     HC 1358   3.131   2.457   3.077
   99c3c     HC 1359   3.147   2.458   2.902
   99c3c     HC 1360   3.329   2.572   3.096
   99c3c     HC 1361   3.345   2.573   2.921
   99c3c     H1 1362   3.368   2.095   3.128
   99c3c     H1 1363   3.520   2.184   3.142
   99c3c     H1 1364   3.374   2.245   3.218
   99c3c     H1 1365   3.540   2.187   2.901
   99c3c     H1 1366   3.390   2.100   2.886
   99c3c     C2 1367   3.402   2.275   2.758
   99c3c     HC 1368   3.444   2.375   2.757
   99c3c     HC 1369   3.295   2.288   2.743
   99c3c     CT 1370   3.457   2.200   2.639
   99c3c     HC 1371   3.412   2.101   2.633
   99c3c     HC 1372   3.565   2.190   2.648
   99c3c     HC 1373   3.434   2.255   2.548
  100c3c     N4 1374   4.837   5.254   5.917
  100c3c     C1 1375   4.778   5.274   6.051
  100c3c     C1 1376   4.975   5.205   5.931
  100c3c     C2 1377   4.886   5.245   6.156
  100c3c     C2 1378   5.011   5.201   6.079
  100c3c     C1 1379   4.758   5.153   5.846
  100c3c     C1 1380   4.834   5.380   5.841
  100c3c     H1 1381   4.691   5.211   6.069
  100c3c     H1 1382   4.737   5.374   6.066
  100c3c     H1 1383   4.989   5.106   5.886
  100c3c     H1 1384   5.047   5.265   5.876
  100c3c     HC 1385   4.852   5.166   6.223
  100c3c     HC 1386   4.907   5.333   6.216
  100c3c     HC 1387   5.040   5.100   6.108
  100c3c     HC 1388   5.095   5.267   6.101
  100c3c     H1 1389   4.654   5.184   5.835
  100c3c     H1 1390   4.797   5.133   5.747
  100c3c     H1 1391   4.758   5.059   5.901
  100c3c     H1 1392   4.873   5.363   5.741
  100c3c     H1 1393   4.731   5.413   5.828
  100c3c     C2 1394   4.916   5.492   5.910
  100c3c     HC 1395   5.020   5.464   5.924
  100c3c     HC 1396   4.879   5.514   6.010
  100c3c     CT 1397   4.912   5.620   5.830
  100c3c     HC 1398   4.809   5.654   5.820
  100c3c     HC 1399   4.954   5.603   5.731
  100c3c     HC 1400   4.970   5.696   5.881
  101c3c     N4 1401   6.592   0.913   6.070
  101c3c     C1 1402   6.671   1.038   6.070
  101c3c     C1 1403   6.448   0.947   6.066
  101c3c     C2 1404   6.575   1.156   6.076
  101c3c     C2 1405   6.434   1.099   6.074
  101c3c     C1 1406   6.625   0.837   5.949
  101c3c     C1 1407   6.623   0.832   6.188
  101c3c     H1 1408   6.736   1.046   5.983
  101c3c     H1 1409   6.742   1.043   6.153
  101c3c     H1 1410   6.398   0.909   5.977
  101c3c     H1 1411   6.391   0.900   6.146
  101c3c     HC 1412   6.592   1.222   5.991
  101c3c     HC 1413   6.591   1.215   6.167
  101c3c     HC 1414   6.379   1.135   5.987
  101c3c     HC 1415   6.378   1.128   6.163
  101c3c     H1 1416   6.731   0.811   5.946
  101c3c     H1 1417   6.568   0.745   5.943
  101c3c     H1 1418   6.603   0.895   5.860
  101c3c     H1 1419   6.567   0.739   6.185
  101c3c     H1 1420   6.728   0.804   6.188
  101c3c     C2 1421   6.590   0.906   6.320
  101c3c     HC 1422   6.485   0.935   6.327
  101c3c     HC 1423   6.645   1.000   6.330
  101c3c     CT 1424   6.622   0.821   6.441
  101c3c     HC 1425   6.729   0.796   6.441
  101c3c     HC 1426   6.564   0.729   6.438
  101c3c     HC 1427   6.598   0.876   6.531
  102c3c     N4 1428   5.857   6.236   4.819
  102c3c     C1 1429   6.000   6.270   4.820
  102c3c     C1 1430   5.781   6.342   4.750
  102c3c     C2 1431   6.017   6.408   4.757
  102c3c     C2 1432   5.879   6.453   4.712
  102c3c     C1 1433   5.839   6.110   4.747
  102c3c     C1 1434   5.807   6.220   4.957
  102c3c     H1 1435   6.061   6.197   4.768
  102c3c     H1 1436   6.044   6.270   4.920
  102c3c     H1 1437   5.730   6.305   4.661
  102c3c     H1 1438   5.700   6.383   4.809
  102c3c     HC 1439   6.086   6.401   4.672
  102c3c     HC 1440   6.060   6.479   4.827
  102c3c     HC 1441   5.877   6.470   4.604
  102c3c     HC 1442   5.852   6.547   4.760
  102c3c     H1 1443   5.894   6.029   4.794
  102c3c     H1 1444   5.734   6.081   4.742
  102c3c     H1 1445   5.875   6.120   4.645
  102c3c     H1 1446   5.702   6.191   4.955
  102c3c     H1 1447   5.860   6.139   5.006
  102c3c     C2 1448   5.822   6.350   5.040
  102c3c     HC 1449   5.769   6.434   4.997
  102c3c     HC 1450   5.926   6.382   5.047
  102c3c     CT 1451   5.770   6.331   5.181
  102c3c     HC 1452   5.826   6.251   5.231
  102c3c     HC 1453   5.664   6.304   5.179
  102c3c     HC 1454   5.782   6.424   5.236
  103c3c     N4 1455   2.804   5.294   2.281
  103c3c     C1 1456   2.699   5.200   2.238
  103c3c     C1 1457   2.910   5.221   2.354
  103c3c     C2 1458   2.733   5.061   2.294
  103c3c     C2 1459   2.867   5.075   2.366
  103c3c     C1 1460   2.864   5.355   2.162
  103c3c     C1 1461   2.748   5.399   2.366
  103c3c     H1 1462   2.688   5.195   2.130
  103c3c     H1 1463   2.599   5.230   2.271
  103c3c     H1 1464   3.007   5.227   2.304
  103c3c     H1 1465   2.931   5.262   2.452
  103c3c     HC 1466   2.741   4.990   2.212
  103c3c     HC 1467   2.656   5.026   2.361
  103c3c     HC 1468   2.942   5.010   2.322
  103c3c     HC 1469   2.857   5.046   2.471
  103c3c     H1 1470   2.789   5.409   2.104
  103c3c     H1 1471   2.943   5.425   2.188
  103c3c     H1 1472   2.906   5.278   2.097
  103c3c     H1 1473   2.825   5.471   2.393
  103c3c     H1 1474   2.673   5.456   2.310
  103c3c     C2 1475   2.683   5.343   2.495
  103c3c     HC 1476   2.754   5.287   2.556
  103c3c     HC 1477   2.603   5.272   2.473
  103c3c     CT 1478   2.626   5.453   2.580
  103c3c     HC 1479   2.549   5.507   2.525
  103c3c     HC 1480   2.704   5.523   2.610
  103c3c     HC 1481   2.581   5.410   2.670
  104c3c     N4 1482   5.613   2.581   5.284
  104c3c     C1 1483   5.758   2.564   5.303
  104c3c     C1 1484   5.553   2.453   5.242
  104c3c     C2 1485   5.795   2.421   5.263
  104c3c     C2 1486   5.665   2.351   5.224
  104c3c     C1 1487   5.554   2.621   5.412
  104c3c     C1 1488   5.586   2.686   5.185
  104c3c     H1 1489   5.790   2.584   5.405
  104c3c     H1 1490   5.818   2.636   5.247
  104c3c     H1 1491   5.480   2.416   5.314
  104c3c     H1 1492   5.495   2.462   5.150
  104c3c     HC 1493   5.843   2.371   5.346
  104c3c     HC 1494   5.865   2.422   5.179
  104c3c     HC 1495   5.647   2.265   5.288
  104c3c     HC 1496   5.670   2.316   5.121
  104c3c     H1 1497   5.596   2.714   5.449
  104c3c     H1 1498   5.446   2.634   5.405
  104c3c     H1 1499   5.572   2.545   5.489
  104c3c     H1 1500   5.479   2.703   5.176
  104c3c     H1 1501   5.627   2.781   5.219
  104c3c     C2 1502   5.646   2.652   5.046
  104c3c     HC 1503   5.607   2.558   5.006
  104c3c     HC 1504   5.754   2.638   5.050
  104c3c     CT 1505   5.617   2.760   4.945
  104c3c     HC 1506   5.661   2.854   4.978
  104c3c     HC 1507   5.509   2.774   4.933
  104c3c     HC 1508   5.661   2.733   4.849
  105c3c     N4 1509   1.835   5.967   3.058
  105c3c     C1 1510   1.901   6.098   3.076
  105c3c     C1 1511   1.936   5.859   3.066
  105c3c     C2 1512   2.051   6.075   3.087
  105c3c     C2 1513   2.074   5.924   3.081
  105c3c     C1 1514   1.738   5.948   3.166
  105c3c     C1 1515   1.765   5.962   2.929
  105c3c     H1 1516   1.865   6.151   3.164
  105c3c     H1 1517   1.880   6.168   2.996
  105c3c     H1 1518   1.918   5.791   3.149
  105c3c     H1 1519   1.935   5.793   2.980
  105c3c     HC 1520   2.088   6.116   3.181
  105c3c     HC 1521   2.105   6.125   3.007
  105c3c     HC 1522   2.122   5.888   3.172
  105c3c     HC 1523   2.138   5.898   2.997
  105c3c     H1 1524   1.662   6.026   3.166
  105c3c     H1 1525   1.688   5.852   3.159
  105c3c     H1 1526   1.788   5.951   3.263
  105c3c     H1 1527   1.713   5.866   2.919
  105c3c     H1 1528   1.688   6.038   2.926
  105c3c     C2 1529   1.861   5.981   2.809
  105c3c     HC 1530   1.940   5.905   2.806
  105c3c     HC 1531   1.915   6.076   2.814
  105c3c     CT 1532   1.787   5.975   2.678
  105c3c     HC 1533   1.712   6.054   2.673
  105c3c     HC 1534   1.739   5.878   2.666
  105c3c     HC 1535   1.858   5.989   2.596
  106c3c     N4 1536   1.953   1.799   7.007
  106c3c     C1 1537   1.847   1.707   7.050
  106c3c     C1 1538   1.901   1.937   7.004
  106c3c     C2 1539   1.718   1.788   7.067
  106c3c     C2 1540   1.752   1.933   7.038
  106c3c     C1 1541   2.063   1.793   7.103
  106c3c     C1 1542   2.003   1.761   6.874
  106c3c     H1 1543   1.871   1.655   7.143
  106c3c     H1 1544   1.830   1.625   6.981
  106c3c     H1 1545   1.954   2.004   7.072
  106c3c     H1 1546   1.916   1.987   6.908
  106c3c     HC 1547   1.681   1.776   7.169
  106c3c     HC 1548   1.640   1.752   7.000
  106c3c     HC 1549   1.733   1.997   7.124
  106c3c     HC 1550   1.692   1.971   6.955
  106c3c     H1 1551   2.105   1.693   7.111
  106c3c     H1 1552   2.144   1.862   7.076
  106c3c     H1 1553   2.028   1.822   7.203
  106c3c     H1 1554   2.085   1.827   6.845
  106c3c     H1 1555   2.046   1.660   6.878
  106c3c     C2 1556   1.893   1.765   6.766
  106c3c     HC 1557   1.848   1.864   6.756
  106c3c     HC 1558   1.809   1.699   6.789
  106c3c     CT 1559   1.947   1.724   6.631
  106c3c     HC 1560   1.986   1.623   6.635
  106c3c     HC 1561   2.026   1.793   6.600
  106c3c     HC 1562   1.866   1.729   6.558
  107c3c     N4 1563   5.464   7.026   6.883
  107c3c     C1 1564   5.391   6.909   6.935
  107c3c     C1 1565   5.384   7.148   6.904
  107c3c     C2 1566   5.253   6.956   6.983
  107c3c     C2 1567   5.249   7.107   6.963
  107c3c     C1 1568   5.589   7.039   6.957
  107c3c     C1 1569   5.494   7.009   6.740
  107c3c     H1 1570   5.444   6.859   7.015
  107c3c     H1 1571   5.379   6.829   6.861
  107c3c     H1 1572   5.433   7.220   6.969
  107c3c     H1 1573   5.369   7.205   6.812
  107c3c     HC 1574   5.240   6.930   7.088
  107c3c     HC 1575   5.174   6.907   6.927
  107c3c     HC 1576   5.234   7.158   7.058
  107c3c     HC 1577   5.167   7.135   6.897
  107c3c     H1 1578   5.652   6.951   6.946
  107c3c     H1 1579   5.647   7.125   6.924
  107c3c     H1 1580   5.570   7.052   7.064
  107c3c     H1 1581   5.553   7.093   6.704
  107c3c     H1 1582   5.558   6.921   6.726
  107c3c     C2 1583   5.366   6.994   6.654
  107c3c     HC 1584   5.301   7.080   6.663
  107c3c     HC 1585   5.306   6.909   6.685
  107c3c     CT 1586   5.400   6.976   6.508
  107c3c     HC 1587   5.460   6.886   6.494
  107c3c     HC 1588   5.455   7.063   6.471
  107c3c     HC 1589   5.308   6.966   6.451
  108c3c     N4 1590   3.911   2.674   0.828
  108c3c     C1 1591   4.011   2.580   0.883
  108c3c     C1 1592   3.849   2.750   0.938
  108c3c     C2 1593   4.007   2.590   1.035
  108c3c     C2 1594   3.904   2.697   1.070
  108c3c     C1 1595   3.979   2.768   0.739
  108c3c     C1 1596   3.809   2.601   0.752
  108c3c     H1 1597   4.112   2.600   0.846
  108c3c     H1 1598   3.995   2.477   0.851
  108c3c     H1 1599   3.867   2.857   0.930
  108c3c     H1 1600   3.740   2.744   0.938
  108c3c     HC 1601   4.106   2.616   1.073
  108c3c     HC 1602   3.980   2.494   1.080
  108c3c     HC 1603   3.951   2.778   1.126
  108c3c     HC 1604   3.825   2.656   1.132
  108c3c     H1 1605   4.028   2.717   0.656
  108c3c     H1 1606   3.910   2.840   0.696
  108c3c     H1 1607   4.056   2.823   0.792
  108c3c     H1 1608   3.738   2.671   0.708
  108c3c     H1 1609   3.855   2.549   0.668
  108c3c     C2 1610   3.732   2.499   0.840
  108c3c     HC 1611   3.682   2.547   0.924
  108c3c     HC 1612   3.798   2.425   0.884
  108c3c     CT 1613   3.627   2.425   0.760
  108c3c     HC 1614   3.674   2.371   0.678
  108c3c     HC 1615   3.555   2.496   0.719
  108c3c     HC 1616   3.575   2.355   0.825
  109c3c     N4 1617   6.611   0.889   3.389
  109c3c     C1 1618   6.566   1.026   3.423
  109c3c     C1 1619   6.498   0.812   3.335
  109c3c     C2 1620   6.415   1.034   3.398
  109c3c     C2 1621   6.372   0.898   3.342
  109c3c     C1 1622   6.715   0.899   3.287
  109c3c     C1 1623   6.667   0.823   3.508
  109c3c     H1 1624   6.618   1.102   3.366
  109c3c     H1 1625   6.589   1.054   3.526
  109c3c     H1 1626   6.515   0.778   3.233
  109c3c     H1 1627   6.482   0.717   3.387
  109c3c     HC 1628   6.394   1.113   3.327
  109c3c     HC 1629   6.362   1.056   3.490
  109c3c     HC 1630   6.329   0.909   3.243
  109c3c     HC 1631   6.297   0.852   3.406
  109c3c     H1 1632   6.801   0.957   3.321
  109c3c     H1 1633   6.751   0.800   3.257
  109c3c     H1 1634   6.676   0.948   3.197
  109c3c     H1 1635   6.704   0.724   3.481
  109c3c     H1 1636   6.753   0.878   3.545
  109c3c     C2 1637   6.562   0.809   3.622
  109c3c     HC 1638   6.475   0.751   3.591
  109c3c     HC 1639   6.523   0.905   3.654
  109c3c     CT 1640   6.622   0.740   3.742
  109c3c     HC 1641   6.706   0.798   3.781
  109c3c     HC 1642   6.656   0.640   3.716
  109c3c     HC 1643   6.546   0.732   3.820
  110c3c     N4 1644   6.185   0.696   1.941
  110c3c     C1 1645   6.168   0.550   1.934
  110c3c     C1 1646   6.091   0.752   2.040
  110c3c     C2 1647   6.052   0.510   2.025
  110c3c     C2 1648   6.003   0.638   2.092
  110c3c     C1 1649   6.321   0.725   1.985
  110c3c     C1 1650   6.162   0.757   1.809
  110c3c     H1 1651   6.258   0.495   1.962
  110c3c     H1 1652   6.150   0.513   1.833
  110c3c     H1 1653   6.141   0.802   2.123
  110c3c     H1 1654   6.028   0.831   1.999
  110c3c     HC 1655   6.086   0.438   2.099
  110c3c     HC 1656   5.972   0.463   1.969
  110c3c     HC 1657   6.012   0.631   2.201
  110c3c     HC 1658   5.898   0.656   2.070
  110c3c     H1 1659   6.395   0.685   1.915
  110c3c     H1 1660   6.339   0.833   1.993
  110c3c     H1 1661   6.341   0.681   2.082
  110c3c     H1 1662   6.179   0.864   1.814
  110c3c     H1 1663   6.235   0.718   1.737
  110c3c     C2 1664   6.020   0.730   1.756
  110c3c     HC 1665   5.942   0.769   1.822
  110c3c     HC 1666   5.998   0.624   1.746
  110c3c     CT 1667   5.999   0.793   1.620
  110c3c     HC 1668   6.070   0.752   1.548
  110c3c     HC 1669   6.013   0.901   1.627
  110c3c     HC 1670   5.897   0.773   1.586
  111c3c     N4 1671   4.205   3.809   5.606
  111c3c     C1 1672   4.351   3.829   5.614
  111c3c     C1 1673   4.143   3.925   5.538
  111c3c     C2 1674   4.384   3.967   5.557
  111c3c     C2 1675   4.253   4.028   5.509
  111c3c     C1 1676   4.178   3.689   5.527
  111c3c     C1 1677   4.148   3.793   5.740
  111c3c     H1 1678   4.407   3.752   5.560
  111c3c     H1 1679   4.390   3.820   5.715
  111c3c     H1 1680   4.092   3.897   5.446
  111c3c     H1 1681   4.063   3.971   5.597
  111c3c     HC 1682   4.455   3.957   5.474
  111c3c     HC 1683   4.431   4.030   5.632
  111c3c     HC 1684   4.256   4.049   5.402
  111c3c     HC 1685   4.233   4.122   5.560
  111c3c     H1 1686   4.223   3.601   5.572
  111c3c     H1 1687   4.071   3.671   5.517
  111c3c     H1 1688   4.219   3.699   5.426
  111c3c     H1 1689   4.041   3.774   5.734
  111c3c     H1 1690   4.191   3.704   5.788
  111c3c     C2 1691   4.173   3.916   5.830
  111c3c     HC 1692   4.130   4.007   5.789
  111c3c     HC 1693   4.279   3.938   5.843
  111c3c     CT 1694   4.114   3.897   5.968
  111c3c     HC 1695   4.159   3.810   6.016
  111c3c     HC 1696   4.006   3.881   5.961
  111c3c     HC 1697   4.133   3.985   6.028
  112c3c     N4 1698   1.248   2.401   1.699
  112c3c     C1 1699   1.297   2.387   1.837
  112c3c     C1 1700   1.103   2.427   1.700
  112c3c     C2 1701   1.177   2.396   1.932
  112c3c     C2 1702   1.054   2.422   1.845
  112c3c     C1 1703   1.316   2.515   1.636
  112c3c     C1 1704   1.277   2.279   1.622
  112c3c     H1 1705   1.371   2.463   1.863
  112c3c     H1 1706   1.351   2.294   1.855
  112c3c     H1 1707   1.077   2.524   1.656
  112c3c     H1 1708   1.046   2.357   1.639
  112c3c     HC 1709   1.192   2.478   2.003
  112c3c     HC 1710   1.166   2.305   1.989
  112c3c     HC 1711   1.007   2.516   1.872
  112c3c     HC 1712   0.981   2.343   1.859
  112c3c     H1 1713   1.424   2.501   1.634
  112c3c     H1 1714   1.282   2.530   1.534
  112c3c     H1 1715   1.296   2.606   1.692
  112c3c     H1 1716   1.245   2.292   1.519
  112c3c     H1 1717   1.385   2.263   1.618
  112c3c     C2 1718   1.209   2.154   1.682
  112c3c     HC 1719   1.100   2.164   1.687
  112c3c     HC 1720   1.240   2.135   1.785
  112c3c     CT 1721   1.240   2.030   1.602
  112c3c     HC 1722   1.348   2.012   1.601
  112c3c     HC 1723   1.204   2.042   1.499
  112c3c     HC 1724   1.191   1.944   1.647
  113c3c     N4 1725   4.971   6.813   4.965
  113c3c     C1 1726   5.112   6.845   4.939
  113c3c     C1 1727   4.888   6.934   4.945
  113c3c     C2 1728   5.123   6.995   4.910
  113c3c     C2 1729   4.981   7.051   4.913
  113c3c     C1 1730   4.928   6.711   4.869
  113c3c     C1 1731   4.954   6.762   5.101
  113c3c     H1 1732   5.154   6.788   4.857
  113c3c     H1 1733   5.178   6.819   5.022
  113c3c     H1 1734   4.815   6.921   4.865
  113c3c     H1 1735   4.825   6.957   5.031
  113c3c     HC 1736   5.168   7.011   4.812
  113c3c     HC 1737   5.186   7.045   4.984
  113c3c     HC 1738   4.954   7.095   4.817
  113c3c     HC 1739   4.972   7.129   4.989
  113c3c     H1 1740   4.987   6.620   4.879
  113c3c     H1 1741   4.823   6.684   4.883
  113c3c     H1 1742   4.939   6.746   4.767
  113c3c     H1 1743   4.850   6.733   5.118
  113c3c     H1 1744   5.011   6.670   5.114
  113c3c     C2 1745   4.997   6.864   5.209
  113c3c     HC 1746   4.940   6.957   5.202
  113c3c     HC 1747   5.101   6.894   5.198
  113c3c     CT 1748   4.979   6.810   5.348
  113c3c     HC 1749   5.039   6.720   5.361
  113c3c     HC 1750   4.874   6.785   5.365
  113c3c     HC 1751   5.010   6.884   5.421
  114c3c     N4 1752   4.446   3.434   6.602
  114c3c     C1 1753   4.527   3.402   6.483
  114c3c     C1 1754   4.324   3.351   6.602
  114c3c     C2 1755   4.450   3.301   6.398
  114c3c     C2 1756   4.322   3.269   6.473
  114c3c     C1 1757   4.525   3.402   6.721
  114c3c     C1 1758   4.411   3.577   6.604
  114c3c     H1 1759   4.626   3.363   6.508
  114c3c     H1 1760   4.553   3.490   6.423
  114c3c     H1 1761   4.318   3.285   6.688
  114c3c     H1 1762   4.232   3.410   6.611
  114c3c     HC 1763   4.510   3.212   6.383
  114c3c     HC 1764   4.428   3.342   6.299
  114c3c     HC 1765   4.316   3.163   6.497
  114c3c     HC 1766   4.234   3.294   6.413
  114c3c     H1 1767   4.617   3.459   6.726
  114c3c     H1 1768   4.469   3.422   6.813
  114c3c     H1 1769   4.552   3.296   6.722
  114c3c     H1 1770   4.356   3.600   6.694
  114c3c     H1 1771   4.502   3.637   6.608
  114c3c     C2 1772   4.328   3.618   6.480
  114c3c     HC 1773   4.235   3.562   6.472
  114c3c     HC 1774   4.381   3.599   6.387
  114c3c     CT 1775   4.293   3.765   6.484
  114c3c     HC 1776   4.384   3.825   6.485
  114c3c     HC 1777   4.235   3.787   6.573
  114c3c     HC 1778   4.235   3.791   6.396
  115c3c     N4 1779   5.924   4.452   3.695
  115c3c     C1 1780   5.779   4.473   3.679
  115c3c     C1 1781   5.968   4.341   3.608
  115c3c     C2 1782   5.725   4.366   3.585
  115c3c     C2 1783   5.844   4.282   3.540
  115c3c     C1 1784   5.994   4.574   3.654
  115c3c     C1 1785   5.957   4.423   3.835
  115c3c     H1 1786   5.755   4.572   3.641
  115c3c     H1 1787   5.725   4.470   3.774
  115c3c     H1 1788   6.041   4.373   3.533
  115c3c     H1 1789   6.022   4.263   3.662
  115c3c     HC 1790   5.676   4.413   3.500
  115c3c     HC 1791   5.651   4.303   3.635
  115c3c     HC 1792   5.856   4.287   3.432
  115c3c     HC 1793   5.831   4.178   3.567
  115c3c     H1 1794   5.964   4.660   3.714
  115c3c     H1 1795   6.102   4.563   3.662
  115c3c     H1 1796   5.971   4.598   3.550
  115c3c     H1 1797   6.065   4.412   3.847
  115c3c     H1 1798   5.929   4.507   3.899
  115c3c     C2 1799   5.887   4.295   3.887
  115c3c     HC 1800   5.914   4.207   3.828
  115c3c     HC 1801   5.778   4.301   3.880
  115c3c     CT 1802   5.922   4.267   4.031
  115c3c     HC 1803   5.890   4.350   4.094
  115c3c     HC 1804   6.029   4.253   4.041
  115c3c     HC 1805   5.871   4.177   4.064
  116c3c     N4 1806   4.389   2.823   5.659
  116c3c     C1 1807   4.381   2.803   5.513
  116c3c     C1 1808   4.443   2.957   5.688
  116c3c     C2 1809   4.440   2.926   5.444
  116c3c     C2 1810   4.479   3.024   5.555
  116c3c     C1 1811   4.254   2.814   5.714
  116c3c     C1 1812   4.473   2.720   5.720
  116c3c     H1 1813   4.279   2.787   5.478
  116c3c     H1 1814   4.432   2.713   5.479
  116c3c     H1 1815   4.372   3.020   5.743
  116c3c     H1 1816   4.529   2.955   5.754
  116c3c     HC 1817   4.367   2.971   5.378
  116c3c     HC 1818   4.527   2.899   5.384
  116c3c     HC 1819   4.426   3.118   5.545
  116c3c     HC 1820   4.586   3.046   5.551
  116c3c     H1 1821   4.208   2.717   5.695
  116c3c     H1 1822   4.253   2.829   5.822
  116c3c     H1 1823   4.189   2.889   5.671
  116c3c     H1 1824   4.475   2.732   5.828
  116c3c     H1 1825   4.431   2.621   5.702
  116c3c     C2 1826   4.619   2.723   5.666
  116c3c     HC 1827   4.667   2.819   5.684
  116c3c     HC 1828   4.623   2.709   5.558
  116c3c     CT 1829   4.704   2.616   5.730
  116c3c     HC 1830   4.662   2.518   5.709
  116c3c     HC 1831   4.707   2.631   5.838
  116c3c     HC 1832   4.805   2.622   5.690
  117c3c     N4 1833   2.705   4.351   3.839
  117c3c     C1 1834   2.741   4.366   3.981
  117c3c     C1 1835   2.670   4.211   3.811
  117c3c     C2 1836   2.737   4.228   4.046
  117c3c     C2 1837   2.692   4.130   3.938
  117c3c     C1 1838   2.589   4.436   3.811
  117c3c     C1 1839   2.817   4.394   3.754
  117c3c     H1 1840   2.674   4.434   4.034
  117c3c     H1 1841   2.839   4.412   3.997
  117c3c     H1 1842   2.567   4.200   3.777
  117c3c     H1 1843   2.727   4.168   3.728
  117c3c     HC 1844   2.667   4.228   4.130
  117c3c     HC 1845   2.835   4.200   4.085
  117c3c     HC 1846   2.599   4.080   3.967
  117c3c     HC 1847   2.767   4.052   3.923
  117c3c     H1 1848   2.609   4.541   3.831
  117c3c     H1 1849   2.557   4.428   3.707
  117c3c     H1 1850   2.504   4.406   3.873
  117c3c     H1 1851   2.789   4.387   3.649
  117c3c     H1 1852   2.840   4.499   3.771
  117c3c     C2 1853   2.945   4.309   3.777
  117c3c     HC 1854   2.928   4.203   3.758
  117c3c     HC 1855   2.979   4.314   3.881
  117c3c     CT 1856   3.058   4.355   3.689
  117c3c     HC 1857   3.083   4.459   3.709
  117c3c     HC 1858   3.030   4.344   3.584
  117c3c     HC 1859   3.146   4.293   3.708
  118c3c     N4 1860   5.592   0.492   4.600
  118c3c     C1 1861   5.500   0.528   4.710
  118c3c     C1 1862   5.698   0.402   4.650
  118c3c     C2 1863   5.554   0.465   4.839
  118c3c     C2 1864   5.679   0.386   4.801
  118c3c     C1 1865   5.516   0.422   4.497
  118c3c     C1 1866   5.651   0.613   4.542
  118c3c     H1 1867   5.398   0.494   4.692
  118c3c     H1 1868   5.488   0.635   4.723
  118c3c     H1 1869   5.696   0.305   4.601
  118c3c     H1 1870   5.798   0.438   4.628
  118c3c     HC 1871   5.478   0.400   4.883
  118c3c     HC 1872   5.578   0.542   4.912
  118c3c     HC 1873   5.667   0.281   4.825
  118c3c     HC 1874   5.766   0.423   4.855
  118c3c     H1 1875   5.435   0.483   4.457
  118c3c     H1 1876   5.579   0.392   4.413
  118c3c     H1 1877   5.470   0.331   4.537
  118c3c     H1 1878   5.715   0.587   4.457
  118c3c     H1 1879   5.573   0.677   4.500
  118c3c     C2 1880   5.734   0.694   4.645
  118c3c     HC 1881   5.815   0.635   4.687
  118c3c     HC 1882   5.674   0.725   4.730
  118c3c     CT 1883   5.794   0.818   4.583
  118c3c     HC 1884   5.715   0.883   4.545
  118c3c     HC 1885   5.860   0.790   4.501
  118c3c     HC 1886   5.851   0.872   4.658
  119c3c     N4 1887   3.918   0.591   4.164
  119c3c     C1 1888   4.015   0.627   4.058
  119c3c     C1 1889   3.945   0.453   4.211
  119c3c     C2 1890   4.103   0.505   4.030
  119c3c     C2 1891   4.058   0.395   4.126
  119c3c     C1 1892   3.935   0.683   4.276
  119c3c     C1 1893   3.781   0.601   4.113
  119c3c     H1 1894   4.077   0.712   4.086
  119c3c     H1 1895   3.967   0.661   3.967
  119c3c     H1 1896   3.972   0.450   4.317
  119c3c     H1 1897   3.858   0.389   4.206
  119c3c     HC 1898   4.207   0.530   4.045
  119c3c     HC 1899   4.091   0.472   3.926
  119c3c     HC 1900   4.141   0.364   4.190
  119c3c     HC 1901   4.025   0.307   4.072
  119c3c     H1 1902   3.918   0.786   4.247
  119c3c     H1 1903   3.867   0.660   4.358
  119c3c     H1 1904   4.037   0.677   4.316
  119c3c     H1 1905   3.710   0.580   4.193
  119c3c     H1 1906   3.760   0.704   4.083
  119c3c     C2 1907   3.755   0.507   3.994
  119c3c     HC 1908   3.772   0.402   4.019
  119c3c     HC 1909   3.822   0.526   3.910
  119c3c     CT 1910   3.613   0.519   3.943
  119c3c     HC 1911   3.594   0.621   3.910
  119c3c     HC 1912   3.543   0.494   4.022
  119c3c     HC 1913   3.599   0.451   3.859
  120c3c     N4 1914   3.254   1.817   6.267
  120c3c     C1 1915   3.194   1.708   6.346
  120c3c     C1 1916   3.218   1.948   6.327
  120c3c     C2 1917   3.108   1.771   6.456
  120c3c     C2 1918   3.124   1.922   6.444
  120c3c     C1 1919   3.399   1.803   6.270
  120c3c     C1 1920   3.207   1.811   6.128
  120c3c     H1 1921   3.268   1.642   6.389
  120c3c     H1 1922   3.133   1.641   6.286
  120c3c     H1 1923   3.306   2.004   6.360
  120c3c     H1 1924   3.172   2.016   6.256
  120c3c     HC 1925   3.143   1.736   6.554
  120c3c     HC 1926   3.004   1.742   6.446
  120c3c     HC 1927   3.166   1.964   6.535
  120c3c     HC 1928   3.027   1.970   6.428
  120c3c     H1 1929   3.431   1.707   6.228
  120c3c     H1 1930   3.449   1.882   6.214
  120c3c     H1 1931   3.436   1.807   6.372
  120c3c     H1 1932   3.255   1.889   6.068
  120c3c     H1 1933   3.237   1.716   6.082
  120c3c     C2 1934   3.054   1.826   6.116
  120c3c     HC 1935   3.018   1.920   6.157
  120c3c     HC 1936   3.000   1.749   6.171
  120c3c     CT 1937   3.009   1.819   5.972
  120c3c     HC 1938   3.036   1.723   5.928
  120c3c     HC 1939   3.054   1.899   5.914
  120c3c     HC 1940   2.900   1.830   5.967
  121c3c     N4 1941   6.210   1.760   3.588
  121c3c     C1 1942   6.285   1.633   3.586
  121c3c     C1 1943   6.303   1.873   3.569
  121c3c     C2 1944   6.433   1.665   3.573
  121c3c     C2 1945   6.445   1.817   3.563
  121c3c     C1 1946   6.114   1.760   3.477
  121c3c     C1 1947   6.137   1.775   3.715
  121c3c     H1 1948   6.254   1.568   3.504
  121c3c     H1 1949   6.267   1.571   3.674
  121c3c     H1 1950   6.282   1.930   3.478
  121c3c     H1 1951   6.296   1.949   3.647
  121c3c     HC 1952   6.475   1.617   3.485
  121c3c     HC 1953   6.489   1.628   3.660
  121c3c     HC 1954   6.492   1.846   3.469
  121c3c     HC 1955   6.506   1.857   3.644
  121c3c     H1 1956   6.043   1.677   3.485
  121c3c     H1 1957   6.057   1.853   3.473
  121c3c     H1 1958   6.165   1.750   3.382
  121c3c     H1 1959   6.079   1.867   3.713
  121c3c     H1 1960   6.065   1.694   3.726
  121c3c     C2 1961   6.232   1.776   3.837
  121c3c     HC 1962   6.305   1.857   3.832
  121c3c     HC 1963   6.292   1.685   3.844
  121c3c     CT 1964   6.155   1.791   3.966
  121c3c     HC 1965   6.086   1.708   3.978
  121c3c     HC 1966   6.100   1.885   3.966
  121c3c     HC 1967   6.225   1.792   4.050
  122c3c     N4 1968   2.136   1.620   5.408
  122c3c     C1 1969   2.154   1.474   5.402
  122c3c     C1 1970   2.268   1.687   5.406
  122c3c     C2 1971   2.304   1.444   5.406
  122c3c     C2 1972   2.376   1.579   5.408
  122c3c     C1 1973   2.060   1.663   5.290
  122c3c     C1 1974   2.062   1.658   5.529
  122c3c     H1 1975   2.109   1.429   5.314
  122c3c     H1 1976   2.104   1.422   5.484
  122c3c     H1 1977   2.281   1.752   5.319
  122c3c     H1 1978   2.282   1.756   5.489
  122c3c     HC 1979   2.333   1.387   5.318
  122c3c     HC 1980   2.331   1.385   5.493
  122c3c     HC 1981   2.441   1.590   5.321
  122c3c     HC 1982   2.439   1.588   5.497
  122c3c     H1 1983   1.962   1.615   5.287
  122c3c     H1 1984   2.045   1.771   5.290
  122c3c     H1 1985   2.114   1.636   5.199
  122c3c     H1 1986   2.045   1.766   5.531
  122c3c     H1 1987   1.963   1.613   5.529
  122c3c     C2 1988   2.136   1.617   5.659
  122c3c     HC 1989   2.235   1.662   5.666
  122c3c     HC 1990   2.154   1.509   5.664
  122c3c     CT 1991   2.058   1.656   5.782
  122c3c     HC 1992   1.960   1.608   5.782
  122c3c     HC 1993   2.044   1.764   5.784
  122c3c     HC 1994   2.113   1.626   5.871
  123c3c     N4 1995   0.926   4.696   6.400
  123c3c     C1 1996   0.931   4.783   6.519
  123c3c     C1 1997   1.000   4.571   6.426
  123c3c     C2 1998   1.019   4.714   6.624
  123c3c     C2 1999   1.063   4.581   6.565
  123c3c     C1 2000   0.786   4.663   6.372
  123c3c     C1 2001   0.983   4.766   6.284
  123c3c     H1 2002   0.832   4.802   6.561
  123c3c     H1 2003   0.968   4.883   6.498
  123c3c     H1 2004   0.937   4.483   6.420
  123c3c     H1 2005   1.077   4.550   6.352
  123c3c     HC 2006   0.962   4.699   6.716
  123c3c     HC 2007   1.105   4.776   6.649
  123c3c     HC 2008   1.028   4.498   6.627
  123c3c     HC 2009   1.171   4.574   6.559
  123c3c     H1 2010   0.726   4.752   6.353
  123c3c     H1 2011   0.777   4.598   6.285
  123c3c     H1 2012   0.741   4.611   6.456
  123c3c     H1 2013   0.975   4.704   6.195
  123c3c     H1 2014   0.925   4.856   6.262
  123c3c     C2 2015   1.132   4.805   6.306
  123c3c     HC 2016   1.195   4.718   6.325
  123c3c     HC 2017   1.145   4.869   6.393
  123c3c     CT 2018   1.188   4.876   6.186
  123c3c     HC 2019   1.132   4.968   6.167
  123c3c     HC 2020   1.183   4.812   6.098
  123c3c     HC 2021   1.293   4.902   6.205
  124c3c     N4 2022   0.980   6.360   2.772
  124c3c     C1 2023   0.901   6.272   2.684
  124c3c     C1 2024   0.988   6.301   2.907
  124c3c     C2 2025   0.848   6.156   2.768
  124c3c     C2 2026   0.903   6.175   2.909
  124c3c     C1 2027   1.116   6.370   2.718
  124c3c     C1 2028   0.920   6.494   2.778
  124c3c     H1 2029   0.958   6.234   2.600
  124c3c     H1 2030   0.818   6.324   2.635
  124c3c     H1 2031   1.090   6.278   2.937
  124c3c     H1 2032   0.955   6.370   2.986
  124c3c     HC 2033   0.881   6.061   2.726
  124c3c     HC 2034   0.739   6.155   2.769
  124c3c     HC 2035   0.964   6.089   2.938
  124c3c     HC 2036   0.822   6.183   2.982
  124c3c     H1 2037   1.116   6.412   2.617
  124c3c     H1 2038   1.179   6.434   2.780
  124c3c     H1 2039   1.162   6.272   2.712
  124c3c     H1 2040   0.982   6.560   2.839
  124c3c     H1 2041   0.919   6.539   2.679
  124c3c     C2 2042   0.776   6.492   2.835
  124c3c     HC 2043   0.772   6.450   2.935
  124c3c     HC 2044   0.709   6.429   2.775
  124c3c     CT 2045   0.717   6.630   2.840
  124c3c     HC 2046   0.713   6.673   2.740
  124c3c     HC 2047   0.777   6.695   2.904
  124c3c     HC 2048   0.616   6.625   2.880
  125c3c     N4 2049   5.767   1.061   3.611
  125c3c     C1 2050   5.830   1.172   3.683
  125c3c     C1 2051   5.623   1.089   3.592
  125c3c     C2 2052   5.721   1.273   3.722
  125c3c     C2 2053   5.590   1.220   3.664
  125c3c     C1 2054   5.829   1.050   3.478
  125c3c     C1 2055   5.786   0.935   3.684
  125c3c     H1 2056   5.908   1.222   3.625
  125c3c     H1 2057   5.884   1.140   3.772
  125c3c     H1 2058   5.595   1.095   3.487
  125c3c     H1 2059   5.559   1.009   3.629
  125c3c     HC 2060   5.745   1.371   3.680
  125c3c     HC 2061   5.714   1.283   3.830
  125c3c     HC 2062   5.547   1.291   3.593
  125c3c     HC 2063   5.517   1.203   3.743
  125c3c     H1 2064   5.936   1.030   3.486
  125c3c     H1 2065   5.785   0.969   3.420
  125c3c     H1 2066   5.817   1.142   3.422
  125c3c     H1 2067   5.743   0.852   3.627
  125c3c     H1 2068   5.892   0.912   3.692
  125c3c     C2 2069   5.722   0.939   3.825
  125c3c     HC 2070   5.615   0.958   3.821
  125c3c     HC 2071   5.763   1.018   3.887
  125c3c     CT 2072   5.742   0.808   3.898
  125c3c     HC 2073   5.849   0.788   3.909
  125c3c     HC 2074   5.696   0.726   3.842
  125c3c     HC 2075   5.696   0.814   3.996
  126fsi    FSI 2076   3.361   7.024   5.134
  126fsi    SBT 2077   3.436   6.887   5.157
  126fsi    NBT 2078   3.419   6.868   5.311
  126fsi    OBT 2079   3.365   6.792   5.077
  126fsi    OBT 2080   3.572   6.916   5.121
  126fsi    SBT 2081   3.291   6.809   5.378
  126fsi    OBT 2082   3.173   6.813   5.296
  126fsi    OBT 2083   3.276   6.850   5.515
  126fsi    FSI 2084   3.328   6.656   5.387
  127fsi    FSI 2085   7.022   2.231   3.249
  127fsi    SBT 2086   6.962   2.224   3.103
  127fsi    NBT 2087   6.823   2.160   3.129
  127fsi    OBT 2088   6.957   2.361   3.058
  127fsi    OBT 2089   7.050   2.135   3.032
  127fsi    SBT 2090   6.697   2.240   3.176
  127fsi    OBT 2091   6.726   2.367   3.236
  127fsi    OBT 2092   6.601   2.156   3.242
  127fsi    FSI 2093   6.629   2.275   3.038
  128fsi    FSI 2094   5.943   3.474   5.430
  128fsi    SBT 2095   6.099   3.464   5.450
  128fsi    NBT 2096   6.135   3.342   5.359
  128fsi    OBT 2097   6.151   3.590   5.404
  128fsi    OBT 2098   6.115   3.434   5.589
  128fsi    SBT 2099   6.156   3.352   5.205
  128fsi    OBT 2100   6.100   3.468   5.144
  128fsi    OBT 2101   6.137   3.224   5.140
  128fsi    FSI 2102   6.312   3.375   5.196
  129fsi    FSI 2103   0.381   5.819   6.311
  129fsi    SBT 2104   0.237   5.874   6.278
  129fsi    NBT 2105   0.228   5.996   6.376
  129fsi    OBT 2106   0.242   5.911   6.139
  129fsi    OBT 2107   0.149   5.767   6.315
  129fsi    SBT 2108   0.288   6.136   6.346
  129fsi    OBT 2109   0.389   6.139   6.244
  129fsi    OBT 2110   0.315   6.212   6.465
  129fsi    FSI 2111   0.165   6.210   6.280
  130fsi    FSI 2112   4.598   0.839   1.193
  130fsi    SBT 2113   4.684   0.750   1.095
  130fsi    NBT 2114   4.694   0.617   1.176
  130fsi    OBT 2115   4.605   0.741   0.976
  130fsi    OBT 2116   4.809   0.820   1.086
  130fsi    SBT 2117   4.584   0.507   1.178
  130fsi    OBT 2118   4.454   0.552   1.138
  130fsi    OBT 2119   4.591   0.424   1.295
  130fsi    FSI 2120   4.632   0.413   1.061
  131fsi    FSI 2121   4.219   5.450   5.996
  131fsi    SBT 2122   4.322   5.523   6.090
  131fsi    NBT 2123   4.251   5.660   6.114
  131fsi    OBT 2124   4.333   5.440   6.206
  131fsi    OBT 2125   4.441   5.537   6.009
  131fsi    SBT 2126   4.139   5.682   6.221
  131fsi    OBT 2127   4.075   5.562   6.267
  131fsi    OBT 2128   4.054   5.794   6.190
  131fsi    FSI 2129   4.223   5.731   6.345
  132fsi    FSI 2130   5.906   1.760   4.633
  132fsi    SBT 2131   5.874   1.733   4.785
  132fsi    NBT 2132   6.012   1.766   4.852
  132fsi    OBT 2133   5.768   1.824   4.818
  132fsi    OBT 2134   5.843   1.592   4.789
  132fsi    SBT 2135   6.059   1.910   4.888
  132fsi    OBT 2136   5.989   2.014   4.819
  132fsi    OBT 2137   6.202   1.920   4.896
  132fsi    FSI 2138   6.010   1.922   5.038
  133fsi    FSI 2139   1.061   7.162   4.011
  133fsi    SBT 2140   1.028   7.067   4.132
  133fsi    NBT 2141   0.873   7.060   4.125
  133fsi    OBT 2142   1.095   6.943   4.100
  133fsi    OBT 2143   1.075   7.139   4.248
  133fsi    SBT 2144   0.793   6.965   4.030
  133fsi    OBT 2145   0.869   6.915   3.918
  133fsi    OBT 2146   0.661   7.012   4.003
  133fsi    FSI 2147   0.772   6.839   4.123
  134fsi    FSI 2148   4.812   6.381   5.229
  134fsi    SBT 2149   4.756   6.388   5.377
  134fsi    NBT 2150   4.707   6.536   5.387
  134fsi    OBT 2151   4.650   6.292   5.383
  134fsi    OBT 2152   4.869   6.367   5.462
  134fsi    SBT 2153   4.571   6.587   5.330
  134fsi    OBT 2154   4.510   6.499   5.234
  134fsi    OBT 2155   4.575   6.727   5.299
  134fsi    FSI 2156   4.480   6.577   5.458
  135fsi    FSI 2157   0.144   2.538   2.676
  135fsi    SBT 2158   0.204   2.394   2.655
  135fsi    NBT 2159   0.356   2.425   2.641
  135fsi    OBT 2160   0.167   2.322   2.774
  135fsi    OBT 2161   0.146   2.351   2.531
  135fsi    SBT 2162   0.452   2.446   2.763
  135fsi    OBT 2163   0.385   2.481   2.885
  135fsi    OBT 2164   0.568   2.524   2.727
  135fsi    FSI 2165   0.508   2.301   2.786
  136fsi    FSI 2166   1.017   2.882   6.392
  136fsi    SBT 2167   1.065   2.734   6.366
  136fsi    NBT 2168   1.183   2.757   6.268
  136fsi    OBT 2169   1.102   2.685   6.496
  136fsi    OBT 2170   0.951   2.672   6.303
  136fsi    SBT 2171   1.328   2.795   6.312
  136fsi    OBT 2172   1.335   2.852   6.444
  136fsi    OBT 2173   1.399   2.863   6.207
  136fsi    FSI 2174   1.396   2.654   6.324
  137fsi    FSI 2175   6.653   2.889   0.672
  137fsi    SBT 2176   6.571   2.762   0.717
  137fsi    NBT 2177   6.425   2.815   0.710
  137fsi    OBT 2178   6.604   2.661   0.620
  137fsi    OBT 2179   6.614   2.739   0.852
  137fsi    SBT 2180   6.340   2.821   0.579
  137fsi    OBT 2181   6.418   2.818   0.459
  137fsi    OBT 2182   6.235   2.919   0.588
  137fsi    FSI 2183   6.266   2.683   0.583
  138fsi    FSI 2184   7.076   0.673   5.040
  138fsi    SBT 2185   7.146   0.584   5.149
  138fsi    NBT 2186   7.023   0.517   5.218
  138fsi    OBT 2187   7.230   0.494   5.075
  138fsi    OBT 2188   7.212   0.679   5.235
  138fsi    SBT 2189   6.951   0.390   5.163
  138fsi    OBT 2190   6.974   0.364   5.023
  138fsi    OBT 2191   6.815   0.380   5.210
  138fsi    FSI 2192   7.027   0.275   5.238
  139fsi    FSI 2193   5.697   3.635   6.702
  139fsi    SBT 2194   5.599   3.757   6.722
  139fsi    NBT 2195   5.666   3.833   6.841
  139fsi    OBT 2196   5.602   3.828   6.597
  139fsi    OBT 2197   5.474   3.697   6.760
  139fsi    SBT 2198   5.785   3.932   6.825
  139fsi    OBT 2199   5.859   3.918   6.702
  139fsi    OBT 2200   5.861   3.946   6.946
  139fsi    FSI 2201   5.709   4.069   6.810
  140fsi    FSI 2202   6.017   7.293   6.002
  140fsi    SBT 2203   5.951   7.224   5.877
  140fsi    NBT 2204   5.922   7.082   5.933
  140fsi    OBT 2205   5.835   7.303   5.849
  140fsi    OBT 2206   6.056   7.222   5.777
  140fsi    SBT 2207   5.797   7.045   6.018
  140fsi    OBT 2208   5.732   7.157   6.080
  140fsi    OBT 2209   5.819   6.929   6.100
  140fsi    FSI 2210   5.696   6.996   5.908
  141fsi    FSI 2211   5.551   0.962   1.621
  141fsi    SBT 2212   5.464   0.835   1.584
  141fsi    NBT 2213   5.321   0.877   1.625
  141fsi    OBT 2214   5.479   0.817   1.442
  141fsi    OBT 2215   5.514   0.729   1.666
  141fsi    SBT 2216   5.228   0.970   1.540
  141fsi    OBT 2217   5.296   1.043   1.437
  141fsi    OBT 2218   5.131   1.040   1.619
  141fsi    FSI 2219   5.144   0.861   1.463
  142fsi    FSI 2220   5.312   3.570   3.787
  142fsi    SBT 2221   5.367   3.454   3.879
  142fsi    NBT 2222   5.283   3.476   4.009
  142fsi    OBT 2223   5.338   3.333   3.808
  142fsi    OBT 2224   5.505   3.488   3.899
  142fsi    SBT 2225   5.138   3.422   4.028
  142fsi    OBT 2226   5.069   3.390   3.906
  142fsi    OBT 2227   5.064   3.496   4.127
  142fsi    FSI 2228   5.165   3.282   4.097
  143fsi    FSI 2229   4.205   2.372   4.704
  143fsi    SBT 2230   4.352   2.317   4.691
  143fsi    NBT 2231   4.431   2.446   4.654
  143fsi    OBT 2232   4.384   2.264   4.821
  143fsi    OBT 2233   4.346   2.223   4.583
  143fsi    SBT 2234   4.480   2.552   4.757
  143fsi    OBT 2235   4.414   2.547   4.884
  143fsi    OBT 2236   4.500   2.681   4.699
  143fsi    FSI 2237   4.626   2.500   4.787
  144fsi    FSI 2238   5.603   0.742   2.369
  144fsi    SBT 2239   5.490   0.680   2.277
  144fsi    NBT 2240   5.563   0.555   2.221
  144fsi    OBT 2241   5.381   0.653   2.367
  144fsi    OBT 2242   5.469   0.781   2.177
  144fsi    SBT 2243   5.574   0.419   2.297
  144fsi    OBT 2244   5.555   0.430   2.439
  144fsi    OBT 2245   5.686   0.342   2.252
  144fsi    FSI 2246   5.447   0.341   2.244
  145fsi    FSI 2247   5.590   3.633   5.073
  145fsi    SBT 2248   5.732   3.596   5.129
  145fsi    NBT 2249   5.790   3.738   5.158
  145fsi    OBT 2250   5.704   3.515   5.245
  145fsi    OBT 2251   5.796   3.534   5.016
  145fsi    SBT 2252   5.762   3.819   5.288
  145fsi    OBT 2253   5.644   3.778   5.359
  145fsi    OBT 2254   5.781   3.960   5.270
  145fsi    FSI 2255   5.882   3.775   5.381
  146fsi    FSI 2256   3.584   1.246   4.344
  146fsi    SBT 2257   3.574   1.376   4.433
  146fsi    NBT 2258   3.478   1.327   4.546
  146fsi    OBT 2259   3.708   1.401   4.476
  146fsi    OBT 2260   3.512   1.474   4.348
  146fsi    SBT 2261   3.524   1.247   4.671
  146fsi    OBT 2262   3.651   1.180   4.657
  146fsi    OBT 2263   3.418   1.170   4.731
  146fsi    FSI 2264   3.551   1.362   4.775
  147fsi    FSI 2265   2.533   1.925   5.706
  147fsi    SBT 2266   2.448   2.056   5.720
  147fsi    NBT 2267   2.548   2.145   5.799
  147fsi    OBT 2268   2.423   2.097   5.585
  147fsi    OBT 2269   2.335   2.013   5.798
  147fsi    SBT 2270   2.661   2.231   5.734
  147fsi    OBT 2271   2.701   2.185   5.604
  147fsi    OBT 2272   2.768   2.261   5.826
  147fsi    FSI 2273   2.590   2.369   5.709
  148fsi    FSI 2274   1.231   1.714   6.624
  148fsi    SBT 2275   1.241   1.862   6.676
  148fsi    NBT 2276   1.393   1.891   6.655
  148fsi    OBT 2277   1.153   1.936   6.590
  148fsi    OBT 2278   1.205   1.852   6.815
  148fsi    SBT 2279   1.456   1.935   6.519
  148fsi    OBT 2280   1.375   1.904   6.405
  148fsi    OBT 2281   1.596   1.902   6.512
  148fsi    FSI 2282   1.452   2.092   6.531
  149fsi    FSI 2283   2.648   2.416   4.018
  149fsi    SBT 2284   2.534   2.307   4.014
  149fsi    NBT 2285   2.406   2.396   4.010
  149fsi    OBT 2286   2.558   2.233   3.894
  149fsi    OBT 2287   2.547   2.237   4.139
  149fsi    SBT 2288   2.348   2.459   3.880
  149fsi    OBT 2289   2.441   2.470   3.771
  149fsi    OBT 2290   2.266   2.575   3.907
  149fsi    FSI 2291   2.245   2.349   3.834
  150fsi    FSI 2292   1.501   1.446   5.951
  150fsi    SBT 2293   1.648   1.499   5.971
  150fsi    NBT 2294   1.723   1.366   6.004
  150fsi    OBT 2295   1.682   1.557   5.844
  150fsi    OBT 2296   1.637   1.586   6.085
  150fsi    SBT 2297   1.776   1.266   5.897
  150fsi    OBT 2298   1.713   1.278   5.768
  150fsi    OBT 2299   1.793   1.133   5.948
  150fsi    FSI 2300   1.923   1.319   5.874
  151fsi    FSI 2301   6.392   5.069   1.554
  151fsi    SBT 2302   6.331   4.988   1.674
  151fsi    NBT 2303   6.227   4.897   1.600
  151fsi    OBT 2304   6.442   4.916   1.730
  151fsi    OBT 2305   6.268   5.087   1.756
  151fsi    SBT 2306   6.263   4.764   1.529
  151fsi    OBT 2307   6.401   4.747   1.496
  151fsi    OBT 2308   6.167   4.727   1.427
  151fsi    FSI 2309   6.237   4.659   1.644
  152fsi    FSI 2310   2.006   4.683   5.663
  152fsi    SBT 2311   2.144   4.649   5.731
  152fsi    NBT 2312   2.144   4.493   5.725
  152fsi    OBT 2313   2.242   4.712   5.647
  152fsi    OBT 2314   2.129   4.699   5.865
  152fsi    SBT 2315   2.186   4.411   5.599
  152fsi    OBT 2316   2.184   4.484   5.476
  152fsi    OBT 2317   2.129   4.279   5.598
  152fsi    FSI 2318   2.340   4.386   5.628
  153fsi    FSI 2319   3.463   1.599   3.815
  153fsi    SBT 2320   3.457   1.600   3.973
  153fsi    NBT 2321   3.572   1.500   4.007
  153fsi    OBT 2322   3.483   1.737   4.009
  153fsi    OBT 2323   3.327   1.547   4.003
  153fsi    SBT 2324   3.723   1.540   4.015
  153fsi    OBT 2325   3.757   1.660   3.943
  153fsi    OBT 2326   3.811   1.427   3.997
  153fsi    FSI 2327   3.740   1.578   4.167
  154fsi    FSI 2328   1.870   2.523   6.903
  154fsi    SBT 2329   1.730   2.583   6.944
  154fsi    NBT 2330   1.759   2.736   6.936
  154fsi    OBT 2331   1.638   2.533   6.845
  154fsi    OBT 2332   1.710   2.538   7.079
  154fsi    SBT 2333   1.757   2.818   6.803
  154fsi    OBT 2334   1.770   2.739   6.684
  154fsi    OBT 2335   1.837   2.937   6.813
  154fsi    FSI 2336   1.609   2.870   6.801
  155fsi    FSI 2337   1.923   1.183   4.048
  155fsi    SBT 2338   1.838   1.316   4.054
  155fsi    NBT 2339   1.692   1.260   4.057
  155fsi    OBT 2340   1.879   1.381   4.176
  155fsi    OBT 2341   1.869   1.383   3.930
  155fsi    SBT 2342   1.620   1.210   4.185
  155fsi    OBT 2343   1.708   1.177   4.295
  155fsi    OBT 2344   1.514   1.117   4.157
  155fsi    FSI 2345   1.546   1.341   4.233
  156fsi    FSI 2346   3.256   2.507   3.650
  156fsi    SBT 2347   3.252   2.588   3.515
  156fsi    NBT 2348   3.393   2.656   3.515
  156fsi    OBT 2349   3.235   2.491   3.411
  156fsi    OBT 2350   3.146   2.684   3.534
  156fsi    SBT 2351   3.523   2.585   3.467
  156fsi    OBT 2352   3.516   2.442   3.462
  156fsi    OBT 2353   3.642   2.643   3.524
  156fsi    FSI 2354   3.528   2.628   3.316
  157fsi    FSI 2355   1.528   2.352   3.249
  157fsi    SBT 2356   1.670   2.311   3.195
  157fsi    NBT 2357   1.762   2.355   3.313
  157fsi    OBT 2358   1.663   2.168   3.176
  157fsi    OBT 2359   1.690   2.392   3.078
  157fsi    SBT 2360   1.786   2.271   3.442
  157fsi    OBT 2361   1.687   2.170   3.467
  157fsi    OBT 2362   1.829   2.352   3.553
  157fsi    FSI 2363   1.916   2.189   3.402
  158fsi    FSI 2364   1.856   1.453   0.571
  158fsi    SBT 2365   1.918   1.574   0.493
  158fsi    NBT 2366   2.068   1.561   0.534
  158fsi    OBT 2367   1.891   1.546   0.355
  158fsi    OBT 2368   1.855   1.689   0.552
  158fsi    SBT 2369   2.170   1.466   0.464
  158fsi    OBT 2370   2.109   1.357   0.392
  158fsi    OBT 2371   2.281   1.433   0.549
  158fsi    FSI 2372   2.231   1.560   0.353
  159fsi    FSI 2373   0.694   2.017   3.480
  159fsi    SBT 2374   0.559   1.941   3.450
  159fsi    NBT 2375   0.499   2.026   3.334
  159fsi    OBT 2376   0.598   1.808   3.413
  159fsi    OBT 2377   0.483   1.954   3.572
  159fsi    SBT 2378   0.541   2.010   3.184
  159fsi    OBT 2379   0.665   1.942   3.164
  159fsi    OBT 2380   0.516   2.129   3.108
  159fsi    FSI 2381   0.432   1.909   3.133
  160fsi    FSI 2382   3.763   4.123   0.665
  160fsi    SBT 2383   3.816   3.975   0.672
  160fsi    NBT 2384   3.970   3.996   0.655
  160fsi    OBT 2385   3.776   3.928   0.802
  160fsi    OBT 2386   3.756   3.911   0.558
  160fsi    SBT 2387   4.066   4.035   0.772
  160fsi    OBT 2388   4.001   4.093   0.886
  160fsi    OBT 2389   4.186   4.098   0.726
  160fsi    FSI 2390   4.114   3.893   0.822
  161fsi    FSI 2391   4.961   0.514   3.942
  161fsi    SBT 2392   5.075   0.407   3.956
  161fsi    NBT 2393   5.154   0.427   3.823
  161fsi    OBT 2394   5.147   0.446   4.075
  161fsi    OBT 2395   5.005   0.281   3.961
  161fsi    SBT 2396   5.262   0.538   3.801
  161fsi    OBT 2397   5.255   0.647   3.894
  161fsi    OBT 2398   5.280   0.572   3.663
  161fsi    FSI 2399   5.394   0.461   3.840
  162fsi    FSI 2400   1.770   5.677   3.865
  162fsi    SBT 2401   1.841   5.813   3.901
  162fsi    NBT 2402   1.742   5.872   4.006
  162fsi    OBT 2403   1.969   5.774   3.953
  162fsi    OBT 2404   1.840   5.886   3.777
  162fsi    SBT 2405   1.741   5.833   4.157
  162fsi    OBT 2406   1.806   5.708   4.186
  162fsi    OBT 2407   1.614   5.856   4.219
  162fsi    FSI 2408   1.836   5.942   4.219
  163fsi    FSI 2409   6.129   1.904   0.388
  163fsi    SBT 2410   6.048   1.770   0.367
  163fsi    NBT 2411   5.901   1.823   0.367
  163fsi    OBT 2412   6.093   1.718   0.241
  163fsi    OBT 2413   6.077   1.693   0.485
  163fsi    SBT 2414   5.831   1.884   0.242
  163fsi    OBT 2415   5.921   1.930   0.140
  163fsi    OBT 2416   5.722   1.971   0.279
  163fsi    FSI 2417   5.760   1.758   0.180
  164fsi    FSI 2418   6.723   4.533   5.967
  164fsi    SBT 2419   6.701   4.676   6.030
  164fsi    NBT 2420   6.585   4.731   5.941
  164fsi    OBT 2421   6.665   4.650   6.167
  164fsi    OBT 2422   6.825   4.744   6.006
  164fsi    SBT 2423   6.434   4.698   5.964
  164fsi    OBT 2424   6.410   4.580   6.043
  164fsi    OBT 2425   6.356   4.714   5.844
  164fsi    FSI 2426   6.389   4.818   6.056
  165fsi    FSI 2427   5.792   2.737   6.941
  165fsi    SBT 2428   5.802   2.843   7.057
  165fsi    NBT 2429   5.867   2.758   7.171
  165fsi    OBT 2430   5.890   2.946   7.009
  165fsi    OBT 2431   5.666   2.879   7.086
  165fsi    SBT 2432   6.020   2.732   7.183
  165fsi    OBT 2433   6.095   2.749   7.061
  165fsi    OBT 2434   6.049   2.614   7.260
  165fsi    FSI 2435   6.066   2.851   7.275
  166fsi    FSI 2436   6.834   1.782   0.548
  166fsi    SBT 2437   6.947   1.875   0.492
  166fsi    NBT 2438   7.031   1.903   0.621
  166fsi    OBT 2439   7.015   1.796   0.393
  166fsi    OBT 2440   6.877   1.992   0.446
  166fsi    SBT 2441   7.139   1.807   0.677
  166fsi    OBT 2442   7.129   1.671   0.631
  166fsi    OBT 2443   7.162   1.826   0.818
  166fsi    FSI 2444   7.270   1.862   0.608
  167fsi    FSI 2445   2.062   3.176   1.206
  167fsi    SBT 2446   2.058   3.315   1.279
  167fsi    NBT 2447   1.911   3.320   1.328
  167fsi    OBT 2448   2.157   3.305   1.383
  167fsi    OBT 2449   2.084   3.410   1.174
  167fsi    SBT 2450   1.860   3.251   1.459
  167fsi    OBT 2451   1.946   3.147   1.508
  167fsi    OBT 2452   1.719   3.223   1.455
  167fsi    FSI 2453   1.874   3.368   1.564
  168fsi    FSI 2454   6.879   6.490   1.856
  168fsi    SBT 2455   7.037   6.496   1.860
  168fsi    NBT 2456   7.075   6.404   1.740
  168fsi    OBT 2457   7.069   6.635   1.841
  168fsi    OBT 2458   7.071   6.438   1.987
  168fsi    SBT 2459   7.077   6.451   1.592
  168fsi    OBT 2460   7.002   6.571   1.565
  168fsi    OBT 2461   7.062   6.343   1.499
  168fsi    FSI 2462   7.228   6.495   1.575
  169fsi    FSI 2463   6.549   6.520   4.582
  169fsi    SBT 2464   6.539   6.541   4.426
  169fsi    NBT 2465   6.652   6.448   4.373
  169fsi    OBT 2466   6.405   6.499   4.392
  169fsi    OBT 2467   6.569   6.681   4.408
  169fsi    SBT 2468   6.636   6.294   4.353
  169fsi    OBT 2469   6.525   6.235   4.423
  169fsi    OBT 2470   6.762   6.224   4.356
  169fsi    FSI 2471   6.593   6.288   4.202
  170fsi    FSI 2472   6.062   4.020   4.611
  170fsi    SBT 2473   6.088   4.161   4.677
  170fsi    NBT 2474   6.027   4.257   4.569
  170fsi    OBT 2475   6.015   4.158   4.801
  170fsi    OBT 2476   6.231   4.171   4.683
  170fsi    SBT 2477   5.875   4.291   4.559
  170fsi    OBT 2478   5.787   4.197   4.622
  170fsi    OBT 2479   5.838   4.336   4.427
  170fsi    FSI 2480   5.866   4.421   4.648
  171fsi    FSI 2481   6.657   5.989   4.621
  171fsi    SBT 2482   6.807   6.003   4.666
  171fsi    NBT 2483   6.816   6.154   4.703
  171fsi    OBT 2484   6.820   5.913   4.778
  171fsi    OBT 2485   6.882   5.969   4.548
  171fsi    SBT 2486   6.770   6.213   4.840
  171fsi    OBT 2487   6.681   6.130   4.915
  171fsi    OBT 2488   6.737   6.353   4.832
  171fsi    FSI 2489   6.905   6.210   4.922
  172fsi    FSI 2490   4.222   3.475   3.545
  172fsi    SBT 2491   4.120   3.595   3.550
  172fsi    NBT 2492   4.215   3.719   3.537
  172fsi    OBT 2493   4.033   3.576   3.438
  172fsi    OBT 2494   4.061   3.588   3.681
  172fsi    SBT 2495   4.271   3.771   3.401
  172fsi    OBT 2496   4.265   3.677   3.292
  172fsi    OBT 2497   4.393   3.846   3.417
  172fsi    FSI 2498   4.164   3.881   3.364
  173fsi    FSI 2499   0.604   1.423   2.140
  173fsi    SBT 2500   0.648   1.516   2.020
  173fsi    NBT 2501   0.518   1.521   1.935
  173fsi    OBT 2502   0.685   1.640   2.082
  173fsi    OBT 2503   0.753   1.441   1.956
  173fsi    SBT 2504   0.398   1.617   1.964
  173fsi    OBT 2505   0.395   1.668   2.098
  173fsi    OBT 2506   0.275   1.568   1.909
  173fsi    FSI 2507   0.435   1.741   1.874
  174fsi    FSI 2508   3.376   4.070   2.376
  174fsi    SBT 2509   3.386   3.967   2.495
  174fsi    NBT 2510   3.272   4.017   2.588
  174fsi    OBT 2511   3.363   3.839   2.434
  174fsi    OBT 2512   3.517   3.991   2.550
  174fsi    SBT 2513   3.122   3.979   2.570
  174fsi    OBT 2514   3.087   3.934   2.438
  174fsi    OBT 2515   3.033   4.076   2.631
  174fsi    FSI 2516   3.109   3.852   2.662
  175fsi    FSI 2517   5.134   0.154   5.126
  175fsi    SBT 2518   5.162   0.296   5.063
  175fsi    NBT 2519   5.184   0.260   4.913
  175fsi    OBT 2520   5.042   0.371   5.090
  175fsi    OBT 2521   5.282   0.340   5.128
  175fsi    SBT 2522   5.069   0.237   4.811
  175fsi    OBT 2523   4.941   0.208   4.870
  175fsi    OBT 2524   5.109   0.154   4.700
  175fsi    FSI 2525   5.053   0.381   4.749
  176fsi    FSI 2526   5.356   7.283   5.685
  176fsi    SBT 2527   5.336   7.143   5.615
  176fsi    NBT 2528   5.356   7.180   5.465
  176fsi    OBT 2529   5.439   7.059   5.671
  176fsi    OBT 2530   5.200   7.109   5.645
  176fsi    SBT 2531   5.496   7.193   5.396
  176fsi    OBT 2532   5.605   7.214   5.487
  176fsi    OBT 2533   5.490   7.277   5.280
  176fsi    FSI 2534   5.517   7.048   5.339
  177fsi    FSI 2535   5.820   1.867   6.337
  177fsi    SBT 2536   5.663   1.848   6.329
  177fsi    NBT 2537   5.647   1.698   6.370
  177fsi    OBT 2538   5.610   1.942   6.424
  177fsi    OBT 2539   5.632   1.870   6.190
  177fsi    SBT 2540   5.646   1.648   6.518
  177fsi    OBT 2541   5.702   1.740   6.613
  177fsi    OBT 2542   5.684   1.510   6.529
  177fsi    FSI 2543   5.491   1.648   6.549
  178fsi    FSI 2544   3.338   5.259   5.880
  178fsi    SBT 2545   3.245   5.360   5.801
  178fsi    NBT 2546   3.105   5.296   5.825
  178fsi    OBT 2547   3.265   5.487   5.866
  178fsi    OBT 2548   3.289   5.348   5.665
  178fsi    SBT 2549   3.019   5.319   5.953
  178fsi    OBT 2550   3.093   5.365   6.067
  178fsi    OBT 2551   2.925   5.212   5.975
  178fsi    FSI 2552   2.930   5.442   5.910
  179fsi    FSI 2553   1.828   6.517   3.037
  179fsi    SBT 2554   1.920   6.539   3.163
  179fsi    NBT 2555   2.046   6.602   3.096
  179fsi    OBT 2556   1.843   6.627   3.246
  179fsi    OBT 2557   1.943   6.405   3.210
  179fsi    SBT 2558   2.060   6.753   3.062
  179fsi    OBT 2559   1.935   6.822   3.050
  179fsi    OBT 2560   2.156   6.777   2.958
  179fsi    FSI 2561   2.128   6.811   3.193
  180fsi    FSI 2562   2.899   1.529   5.783
  180fsi    SBT 2563   2.747   1.553   5.815
  180fsi    NBT 2564   2.685   1.417   5.769
  180fsi    OBT 2565   2.743   1.576   5.957
  180fsi    OBT 2566   2.710   1.661   5.728
  180fsi    SBT 2567   2.682   1.288   5.857
  180fsi    OBT 2568   2.778   1.287   5.964
  180fsi    OBT 2569   2.671   1.168   5.779
  180fsi    FSI 2570   2.542   1.302   5.929
  181fsi    FSI 2571   3.923   0.405   3.311
  181fsi    SBT 2572   4.048   0.313   3.339
  181fsi    NBT 2573   4.165   0.416   3.327
  181fsi    OBT 2574   4.027   0.262   3.471
  181fsi    OBT 2575   4.047   0.219   3.230
  181fsi    SBT 2576   4.210   0.510   3.443
  181fsi    OBT 2577   4.112   0.531   3.546
  181fsi    OBT 2578   4.279   0.628   3.395
  181fsi    FSI 2579   4.323   0.424   3.511
  182fsi    FSI 2580   5.609   3.105   6.647
  182fsi    SBT 2581   5.745   3.025   6.639
  182fsi    NBT 2582   5.694   2.877   6.634
  182fsi    OBT 2583   5.807   3.070   6.517
  182fsi    OBT 2584   5.812   3.058   6.761
  182fsi    SBT 2585   5.645   2.807   6.505
  182fsi    OBT 2586   5.608   2.896   6.398
  182fsi    OBT 2587   5.555   2.697   6.531
  182fsi    FSI 2588   5.777   2.737   6.455
  183fsi    FSI 2589   2.740   0.491   6.688
  183fsi    SBT 2590   2.705   0.456   6.538
  183fsi    NBT 2591   2.816   0.350   6.506
  183fsi    OBT 2592   2.571   0.404   6.543
  183fsi    OBT 2593   2.727   0.580   6.468
  183fsi    SBT 2594   2.805   0.199   6.543
  183fsi    OBT 2595   2.711   0.170   6.647
  183fsi    OBT 2596   2.934   0.136   6.552
  183fsi    FSI 2597   2.741   0.138   6.412
  184fsi    FSI 2598   4.158   2.513   0.261
  184fsi    SBT 2599   4.253   2.388   0.272
  184fsi    NBT 2600   4.388   2.456   0.314
  184fsi    OBT 2601   4.194   2.307   0.375
  184fsi    OBT 2602   4.257   2.334   0.139
  184fsi    SBT 2603   4.425   2.495   0.460
  184fsi    OBT 2604   4.312   2.508   0.548
  184fsi    OBT 2605   4.523   2.600   0.466
  184fsi    FSI 2606   4.501   2.367   0.509
  185fsi    FSI 2607   4.332   4.616   5.452
  185fsi    SBT 2608   4.454   4.642   5.547
  185fsi    NBT 2609   4.549   4.724   5.455
  185fsi    OBT 2610   4.400   4.716   5.658
  185fsi    OBT 2611   4.505   4.510   5.575
  185fsi    SBT 2612   4.536   4.877   5.430
  185fsi    OBT 2613   4.407   4.932   5.463
  185fsi    OBT 2614   4.595   4.919   5.306
  185fsi    FSI 2615   4.633   4.935   5.540
  186fsi    FSI 2616   3.997   1.511   6.346
  186fsi    SBT 2617   3.889   1.626   6.347
  186fsi    NBT 2618   3.757   1.542   6.346
  186fsi    OBT 2619   3.914   1.698   6.469
  186fsi    OBT 2620   3.910   1.694   6.222
  186fsi    SBT 2621   3.692   1.482   6.474
  186fsi    OBT 2622   3.782   1.465   6.585
  186fsi    OBT 2623   3.607   1.370   6.443
  186fsi    FSI 2624   3.593   1.597   6.518
  187fsi    FSI 2625   2.301   6.088   5.506
  187fsi    SBT 2626   2.328   5.954   5.427
  187fsi    NBT 2627   2.211   5.865   5.479
  187fsi    OBT 2628   2.320   5.991   5.289
  187fsi    OBT 2629   2.456   5.911   5.476
  187fsi    SBT 2630   2.066   5.868   5.421
  187fsi    OBT 2631   2.034   5.988   5.349
  187fsi    OBT 2632   1.969   5.820   5.515
  187fsi    FSI 2633   2.073   5.756   5.311
  188fsi    FSI 2634   2.635   5.557   4.467
  188fsi    SBT 2635   2.548   5.603   4.344
  188fsi    NBT 2636   2.530   5.468   4.268
  188fsi    OBT 2637   2.428   5.656   4.402
  188fsi    OBT 2638   2.634   5.694   4.273
  188fsi    SBT 2639   2.421   5.362   4.303
  188fsi    OBT 2640   2.368   5.372   4.436
  188fsi    OBT 2641   2.457   5.230   4.257
  188fsi    FSI 2642   2.303   5.405   4.208
  189fsi    FSI 2643   5.951   1.081   6.504
  189fsi    SBT 2644   5.857   0.982   6.427
  189fsi    NBT 2645   5.716   1.042   6.457
  189fsi    OBT 2646   5.898   0.989   6.290
  189fsi    OBT 2647   5.876   0.855   6.493
  189fsi    SBT 2648   5.656   1.163   6.380
  189fsi    OBT 2649   5.751   1.241   6.305
  189fsi    OBT 2650   5.555   1.231   6.455
  189fsi    FSI 2651   5.573   1.088   6.268
  190fsi    FSI 2652   2.786   1.132   3.880
  190fsi    SBT 2653   2.866   1.231   3.787
  190fsi    NBT 2654   2.861   1.155   3.650
  190fsi    OBT 2655   2.791   1.353   3.790
  190fsi    OBT 2656   2.999   1.233   3.843
  190fsi    SBT 2657   2.740   1.161   3.552
  190fsi    OBT 2658   2.616   1.203   3.611
  190fsi    OBT 2659   2.736   1.047   3.464
  190fsi    FSI 2660   2.782   1.280   3.458
  191fsi    FSI 2661   2.881   0.707   4.457
  191fsi    SBT 2662   2.885   0.563   4.394
  191fsi    NBT 2663   2.785   0.577   4.276
  191fsi    OBT 2664   3.022   0.543   4.355
  191fsi    OBT 2665   2.835   0.478   4.499
  191fsi    SBT 2666   2.821   0.638   4.137
  191fsi    OBT 2667   2.940   0.719   4.137
  191fsi    OBT 2668   2.706   0.689   4.068
  191fsi    FSI 2669   2.861   0.509   4.056
  192fsi    FSI 2670   0.180   2.416   4.754
  192fsi    SBT 2671   0.286   2.336   4.839
  192fsi    NBT 2672   0.336   2.231   4.735
  192fsi    OBT 2673   0.384   2.435   4.877
  192fsi    OBT 2674   0.209   2.276   4.944
  192fsi    SBT 2675   0.445   2.261   4.627
  192fsi    OBT 2676   0.465   2.400   4.599
  192fsi    OBT 2677   0.435   2.172   4.514
  192fsi    FSI 2678   0.577   2.215   4.701
  193fsi    FSI 2679   4.655   6.693   1.158
  193fsi    SBT 2680   4.607   6.741   1.016
  193fsi    NBT 2681   4.673   6.635   0.922
  193fsi    OBT 2682   4.463   6.733   1.020
  193fsi    OBT 2683   4.665   6.871   1.000
  193fsi    SBT 2684   4.614   6.494   0.895
  193fsi    OBT 2685   4.517   6.447   0.990
  193fsi    OBT 2686   4.712   6.401   0.846
  193fsi    FSI 2687   4.529   6.522   0.765
  194fsi    FSI 2688   1.320   2.497   3.897
  194fsi    SBT 2689   1.437   2.602   3.903
  194fsi    NBT 2690   1.359   2.737   3.896
  194fsi    OBT 2691   1.504   2.577   4.028
  194fsi    OBT 2692   1.514   2.578   3.783
  194fsi    SBT 2693   1.292   2.805   4.020
  194fsi    OBT 2694   1.270   2.717   4.131
  194fsi    OBT 2695   1.185   2.893   3.983
  194fsi    FSI 2696   1.407   2.901   4.068
  195fsi    FSI 2697   1.054   4.932   2.939
  195fsi    SBT 2698   1.092   5.084   2.951
  195fsi    NBT 2699   0.953   5.153   2.949
  195fsi    OBT 2700   1.163   5.095   3.076
  195fsi    OBT 2701   1.168   5.111   2.832
  195fsi    SBT 2702   0.860   5.166   3.075
  195fsi    OBT 2703   0.891   5.076   3.182
  195fsi    OBT 2704   0.722   5.183   3.040
  195fsi    FSI 2705   0.903   5.308   3.129
  196fsi    FSI 2706   3.909   5.043   6.626
  196fsi    SBT 2707   3.809   4.929   6.668
  196fsi    NBT 2708   3.683   4.965   6.582
  196fsi    OBT 2709   3.874   4.807   6.630
  196fsi    OBT 2710   3.788   4.952   6.808
  196fsi    SBT 2711   3.665   4.924   6.433
  196fsi    OBT 2712   3.787   4.891   6.365
  196fsi    OBT 2713   3.572   5.008   6.362
  196fsi    FSI 2714   3.588   4.787   6.446
  197fsi    FSI 2715   2.360   2.096   6.818
  197fsi    SBT 2716   2.366   2.251   6.849
  197fsi    NBT 2717   2.215   2.288   6.847
  197fsi    OBT 2718   2.429   2.259   6.977
  197fsi    OBT 2719   2.439   2.305   6.737
  197fsi    SBT 2720   2.119   2.269   6.969
  197fsi    OBT 2721   2.166   2.175   7.067
  197fsi    OBT 2722   1.982   2.256   6.930
  197fsi    FSI 2723   2.129   2.410   7.040
  198fsi    FSI 2724   1.553   5.962   5.849
  198fsi    SBT 2725   1.489   6.048   5.733
  198fsi    NBT 2726   1.476   6.187   5.802
  198fsi    OBT 2727   1.585   6.043   5.626
  198fsi    OBT 2728   1.362   5.986   5.710
  198fsi    SBT 2729   1.592   6.290   5.814
  198fsi    OBT 2730   1.724   6.235   5.799
  198fsi    OBT 2731   1.572   6.383   5.922
  198fsi    FSI 2732   1.570   6.378   5.684
  199fsi    FSI 2733   2.307   6.635   1.563
  199fsi    SBT 2734   2.299   6.479   1.542
  199fsi    NBT 2735   2.451   6.442   1.537
  199fsi    OBT 2736   2.229   6.429   1.657
  199fsi    OBT 2737   2.236   6.464   1.414
  199fsi    SBT 2738   2.540   6.418   1.663
  199fsi    OBT 2739   2.489   6.479   1.783
  199fsi    OBT 2740   2.680   6.435   1.636
  199fsi    FSI 2741   2.524   6.263   1.686
  200fsi    FSI 2742   3.179   1.992   3.369
  200fsi    SBT 2743   3.025   1.965   3.344
  200fsi    NBT 2744   2.959   2.061   3.448
  200fsi    OBT 2745   3.005   2.003   3.206
  200fsi    OBT 2746   3.008   1.826   3.375
  200fsi    SBT 2747   2.937   2.213   3.425
  200fsi    OBT 2748   3.015   2.269   3.319
  200fsi    OBT 2749   2.927   2.288   3.547
  200fsi    FSI 2750   2.789   2.214   3.368
  201fsi    FSI 2751   1.924   4.144   6.289
  201fsi    SBT 2752   2.033   4.102   6.395
  201fsi    NBT 2753   2.039   3.948   6.374
  201fsi    OBT 2754   2.151   4.174   6.356
  201fsi    OBT 2755   1.974   4.138   6.521
  201fsi    SBT 2756   2.122   3.878   6.261
  201fsi    OBT 2757   2.158   3.965   6.152
  201fsi    OBT 2758   2.071   3.748   6.228
  201fsi    FSI 2759   2.258   3.849   6.336
  202fsi    FSI 2760   6.667   6.242   2.777
  202fsi    SBT 2761   6.700   6.354   2.671
  202fsi    NBT 2762   6.563   6.366   2.596
  202fsi    OBT 2763   6.736   6.469   2.750
  202fsi    OBT 2764   6.803   6.295   2.589
  202fsi    SBT 2765   6.443   6.451   2.647
  202fsi    OBT 2766   6.447   6.481   2.788
  202fsi    OBT 2767   6.317   6.405   2.595
  202fsi    FSI 2768   6.468   6.589   2.576
  203fsi    FSI 2769   6.997   3.688   3.009
  203fsi    SBT 2770   6.884   3.798   3.001
  203fsi    NBT 2771   6.767   3.717   2.935
  203fsi    OBT 2772   6.861   3.838   3.136
  203fsi    OBT 2773   6.937   3.897   2.911
  203fsi    SBT 2774   6.671   3.624   3.015
  203fsi    OBT 2775   6.721   3.581   3.143
  203fsi    OBT 2776   6.611   3.525   2.930
  203fsi    FSI 2777   6.553   3.723   3.048
  204fsi    FSI 2778   1.843   1.265   7.152
  204fsi    SBT 2779   1.687   1.285   7.163
  204fsi    NBT 2780   1.656   1.355   7.028
  204fsi    OBT 2781   1.635   1.151   7.176
  204fsi    OBT 2782   1.671   1.372   7.276
  204fsi    SBT 2783   1.636   1.280   6.892
  204fsi    OBT 2784   1.691   1.147   6.890
  204fsi    OBT 2785   1.662   1.364   6.779
  204fsi    FSI 2786   1.480   1.259   6.890
  205fsi    FSI 2787   5.185   2.239   0.915
  205fsi    SBT 2788   5.033   2.274   0.937
  205fsi    NBT 2789   4.966   2.135   0.910
  205fsi    OBT 2790   5.025   2.317   1.074
  205fsi    OBT 2791   5.003   2.371   0.835
  205fsi    SBT 2792   4.954   2.021   1.015
  205fsi    OBT 2793   5.047   2.031   1.125
  205fsi    OBT 2794   4.940   1.891   0.955
  205fsi    FSI 2795   4.813   2.051   1.079
  206fsi    FSI 2796   6.578   3.381   4.115
  206fsi    SBT 2797   6.586   3.514   4.030
  206fsi    NBT 2798   6.693   3.595   4.109
  206fsi    OBT 2799   6.628   3.471   3.899
  206fsi    OBT 2800   6.455   3.571   4.041
  206fsi    SBT 2801   6.847   3.576   4.092
  206fsi    OBT 2802   6.886   3.451   4.033
  206fsi    OBT 2803   6.921   3.620   4.208
  206fsi    FSI 2804   6.881   3.685   3.982
  207fsi    FSI 2805   0.963   5.548   4.266
  207fsi    SBT 2806   0.957   5.400   4.212
  207fsi    NBT 2807   1.002   5.319   4.338
  207fsi    OBT 2808   0.820   5.381   4.173
  207fsi    OBT 2809   1.056   5.397   4.107
  207fsi    SBT 2810   0.906   5.279   4.454
  207fsi    OBT 2811   0.785   5.357   4.461
  207fsi    OBT 2812   0.975   5.255   4.578
  207fsi    FSI 2813   0.858   5.136   4.408
  208fsi    FSI 2814   4.297   3.899   1.783
  208fsi    SBT 2815   4.303   3.741   1.794
  208fsi    NBT 2816   4.454   3.717   1.819
  208fsi    OBT 2817   4.217   3.708   1.905
  208fsi    OBT 2818   4.261   3.692   1.665
  208fsi    SBT 2819   4.523   3.728   1.959
  208fsi    OBT 2820   4.448   3.804   2.055
  208fsi    OBT 2821   4.663   3.755   1.948
  208fsi    FSI 2822   4.515   3.579   2.010
  209fsi    FSI 2823   2.297   3.213   5.860
  209fsi    SBT 2824   2.272   3.325   5.752
  209fsi    NBT 2825   2.120   3.306   5.721
  209fsi    OBT 2826   2.305   3.449   5.817
  209fsi    OBT 2827   2.355   3.286   5.641
  209fsi    SBT 2828   2.005   3.365   5.809
  209fsi    OBT 2829   2.045   3.402   5.942
  209fsi    OBT 2830   1.882   3.293   5.795
  209fsi    FSI 2831   1.978   3.502   5.735
  210fsi    FSI 2832   5.657   6.854   4.874
  210fsi    SBT 2833   5.707   6.788   5.008
  210fsi    NBT 2834   5.849   6.740   4.967
  210fsi    OBT 2835   5.704   6.894   5.104
  210fsi    OBT 2836   5.616   6.678   5.027
  210fsi    SBT 2837   5.975   6.832   4.966
  210fsi    OBT 2838   5.946   6.972   4.962
  210fsi    OBT 2839   6.077   6.782   4.877
  210fsi    FSI 2840   6.034   6.807   5.111
  211fsi    FSI 2841   3.213   3.531   3.556
  211fsi    SBT 2842   3.275   3.415   3.468
  211fsi    NBT 2843   3.339   3.498   3.352
  211fsi    OBT 2844   3.369   3.350   3.555
  211fsi    OBT 2845   3.160   3.340   3.425
  211fsi    SBT 2846   3.480   3.565   3.360
  211fsi    OBT 2847   3.527   3.588   3.494
  211fsi    OBT 2848   3.493   3.674   3.267
  211fsi    FSI 2849   3.573   3.452   3.301
  212fsi    FSI 2850   0.547   4.517   2.734
  212fsi    SBT 2851   0.497   4.659   2.688
  212fsi    NBT 2852   0.511   4.648   2.533
  212fsi    OBT 2853   0.362   4.668   2.736
  212fsi    OBT 2854   0.593   4.750   2.745
  212fsi    SBT 2855   0.405   4.581   2.441
  212fsi    OBT 2856   0.314   4.492   2.508
  212fsi    OBT 2857   0.461   4.536   2.316
  212fsi    FSI 2858   0.316   4.706   2.401
  213fsi    FSI 2859   3.686   2.569   6.697
  213fsi    SBT 2860   3.805   2.670   6.675
  213fsi    NBT 2861   3.729   2.804   6.653
  213fsi    OBT 2862   3.881   2.664   6.797
  213fsi    OBT 2863   3.869   2.623   6.555
  213fsi    SBT 2864   3.674   2.894   6.768
  213fsi    OBT 2865   3.660   2.827   6.894
  213fsi    OBT 2866   3.566   2.978   6.726
  213fsi    FSI 2867   3.795   2.993   6.790
  214fsi    FSI 2868   4.480   3.054   3.651
  214fsi    SBT 2869   4.568   3.027   3.524
  214fsi    NBT 2870   4.545   3.158   3.442
  214fsi    OBT 2871   4.702   3.011   3.574
  214fsi    OBT 2872   4.507   2.912   3.462
  214fsi    SBT 2873   4.621   3.292   3.467
  214fsi    OBT 2874   4.683   3.301   3.597
  214fsi    OBT 2875   4.549   3.407   3.421
  214fsi    FSI 2876   4.742   3.278   3.366
  215fsi    FSI 2877   1.789   5.518   2.439
  215fsi    SBT 2878   1.926   5.594   2.426
  215fsi    NBT 2879   1.957   5.575   2.275
  215fsi    OBT 2880   1.896   5.729   2.465
  215fsi    OBT 2881   2.016   5.519   2.510
  215fsi    SBT 2882   1.898   5.665   2.162
  215fsi    OBT 2883   1.779   5.737   2.199
  215fsi    OBT 2884   1.895   5.598   2.034
  215fsi    FSI 2885   2.009   5.776   2.147
  216fsi    FSI 2886   5.899   3.093   4.852
  216fsi    SBT 2887   5.856   3.240   4.888
  216fsi    NBT 2888   5.979   3.319   4.834
  216fsi    OBT 2889   5.734   3.260   4.814
  216fsi    OBT 2890   5.846   3.236   5.031
  216fsi    SBT 2891   5.997   3.362   4.685
  216fsi    OBT 2892   5.919   3.286   4.592
  216fsi    OBT 2893   6.135   3.384   4.649
  216fsi    FSI 2894   5.933   3.506   4.683
  217fsi    FSI 2895   6.222   5.641   6.337
  217fsi    SBT 2896   6.209   5.792   6.293
  217fsi    NBT 2897   6.190   5.779   6.139
  217fsi    OBT 2898   6.094   5.842   6.364
  217fsi    OBT 2899   6.336   5.851   6.327
  217fsi    SBT 2900   6.053   5.746   6.070
  217fsi    OBT 2901   5.955   5.689   6.157
  217fsi    OBT 2902   6.069   5.687   5.940
  217fsi    FSI 2903   5.999   5.891   6.040
  218fsi    FSI 2904   0.958   3.687   6.192
  218fsi    SBT 2905   0.909   3.835   6.168
  218fsi    NBT 2906   0.780   3.841   6.255
  218fsi    OBT 2907   1.015   3.920   6.214
  218fsi    OBT 2908   0.879   3.841   6.027
  218fsi    SBT 2909   0.780   3.866   6.409
  218fsi    OBT 2910   0.906   3.843   6.474
  218fsi    OBT 2911   0.662   3.814   6.473
  218fsi    FSI 2912   0.761   4.022   6.414
  219fsi    FSI 2913   1.845   2.177   5.711
  219fsi    SBT 2914   1.716   2.089   5.686
  219fsi    NBT 2915   1.603   2.197   5.685
  219fsi    OBT 2916   1.739   2.025   5.559
  219fsi    OBT 2917   1.708   2.003   5.801
  219fsi    SBT 2918   1.568   2.284   5.561
  219fsi    OBT 2919   1.669   2.289   5.459
  219fsi    OBT 2920   1.503   2.408   5.596
  219fsi    FSI 2921   1.452   2.199   5.496
  220fsi    FSI 2922   1.429   6.143   1.127
  220fsi    SBT 2923   1.376   6.179   1.271
  220fsi    NBT 2924   1.503   6.245   1.334
  220fsi    OBT 2925   1.267   6.270   1.248
  220fsi    OBT 2926   1.346   6.052   1.330
  220fsi    SBT 2927   1.544   6.394   1.312
  220fsi    OBT 2928   1.485   6.456   1.196
  220fsi    OBT 2929   1.684   6.416   1.333
  220fsi    FSI 2930   1.474   6.465   1.435
  221fsi    FSI 2931   2.633   2.493   4.841
  221fsi    SBT 2932   2.604   2.615   4.744
  221fsi    NBT 2933   2.724   2.605   4.644
  221fsi    OBT 2934   2.475   2.587   4.686
  221fsi    OBT 2935   2.614   2.731   4.829
  221fsi    SBT 2936   2.727   2.508   4.522
  221fsi    OBT 2937   2.633   2.400   4.529
  221fsi    OBT 2938   2.861   2.478   4.480
  221fsi    FSI 2939   2.671   2.602   4.408
  222fsi    FSI 2940   4.979   5.595   1.731
  222fsi    SBT 2941   5.136   5.606   1.743
  222fsi    NBT 2942   5.178   5.608   1.593
  222fsi    OBT 2943   5.158   5.728   1.815
  222fsi    OBT 2944   5.173   5.484   1.810
  222fsi    SBT 2945   5.178   5.736   1.504
  222fsi    OBT 2946   5.094   5.842   1.554
  222fsi    OBT 2947   5.167   5.705   1.364
  222fsi    FSI 2948   5.325   5.789   1.523
  223fsi    FSI 2949   4.202   5.990   2.755
  223fsi    SBT 2950   4.122   5.985   2.619
  223fsi    NBT 2951   3.983   6.039   2.663
  223fsi    OBT 2952   4.195   6.072   2.531
  223fsi    OBT 2953   4.119   5.845   2.585
  223fsi    SBT 2954   3.948   6.191   2.678
  223fsi    OBT 2955   4.063   6.276   2.691
  223fsi    OBT 2956   3.838   6.213   2.768
  223fsi    FSI 2957   3.889   6.223   2.535
  224fsi    FSI 2958   3.396   2.668   5.692
  224fsi    SBT 2959   3.336   2.777   5.789
  224fsi    NBT 2960   3.403   2.907   5.734
  224fsi    OBT 2961   3.194   2.769   5.770
  224fsi    OBT 2962   3.388   2.738   5.918
  224fsi    SBT 2963   3.349   2.988   5.612
  224fsi    OBT 2964   3.263   2.913   5.525
  224fsi    OBT 2965   3.452   3.067   5.550
  224fsi    FSI 2966   3.255   3.093   5.682
  225fsi    FSI 2967   5.087   6.849   2.357
  225fsi    SBT 2968   5.185   6.965   2.316
  225fsi    NBT 2969   5.088   7.086   2.307
  225fsi    OBT 2970   5.280   6.971   2.423
  225fsi    OBT 2971   5.234   6.925   2.187
  225fsi    SBT 2972   5.041   7.170   2.431
  225fsi    OBT 2973   5.057   7.104   2.557
  225fsi    OBT 2974   4.916   7.238   2.408
  225fsi    FSI 2975   5.148   7.286   2.432
  226fsi    FSI 2976   6.604   6.501   7.263
  226fsi    SBT 2977   6.753   6.491   7.212
  226fsi    NBT 2978   6.734   6.504   7.058
  226fsi    OBT 2979   6.820   6.603   7.275
  226fsi    OBT 2980   6.795   6.360   7.252
  226fsi    SBT 2981   6.719   6.640   6.983
  226fsi    OBT 2982   6.678   6.750   7.067
  226fsi    OBT 2983   6.651   6.626   6.857
  226fsi    FSI 2984   6.868   6.673   6.945
  227fsi    FSI 2985   2.794   0.320   3.304
  227fsi    SBT 2986   2.912   0.425   3.304
  227fsi    NBT 2987   2.832   0.559   3.306
  227fsi    OBT 2988   2.984   0.395   3.424
  227fsi    OBT 2989   2.977   0.402   3.178
  227fsi    SBT 2990   2.776   0.624   3.436
  227fsi    OBT 2991   2.765   0.532   3.546
  227fsi    OBT 2992   2.664   0.710   3.409
  227fsi    FSI 2993   2.894   0.722   3.476
  228fsi    FSI 2994   2.233   5.366   1.303
  228fsi    SBT 2995   2.383   5.391   1.342
  228fsi    NBT 2996   2.398   5.307   1.472
  228fsi    OBT 2997   2.459   5.343   1.229
  228fsi    OBT 2998   2.390   5.533   1.366
  228fsi    SBT 2999   2.423   5.153   1.474
  228fsi    OBT 3000   2.391   5.086   1.351
  228fsi    OBT 3001   2.379   5.091   1.596
  228fsi    FSI 3002   2.580   5.147   1.482
  229fsi    FSI 3003   3.849   5.034   4.573
  229fsi    SBT 3004   3.750   4.918   4.533
  229fsi    NBT 3005   3.808   4.798   4.614
  229fsi    OBT 3006   3.620   4.963   4.576
  229fsi    OBT 3007   3.769   4.902   4.391
  229fsi    SBT 3008   3.777   4.772   4.765
  229fsi    OBT 3009   3.728   4.887   4.836
  229fsi    OBT 3010   3.879   4.693   4.829
  229fsi    FSI 3011   3.653   4.675   4.755
  230fsi    FSI 3012   3.997   6.888   2.974
  230fsi    SBT 3013   4.145   6.942   2.973
  230fsi    NBT 3014   4.122   7.096   2.974
  230fsi    OBT 3015   4.204   6.889   3.093
  230fsi    OBT 3016   4.199   6.894   2.848
  230fsi    SBT 3017   4.093   7.180   3.102
  230fsi    OBT 3018   4.045   7.102   3.213
  230fsi    OBT 3019   4.023   7.302   3.073
  230fsi    FSI 3020   4.238   7.226   3.143
  231fsi    FSI 3021   2.654   4.554   7.065
  231fsi    SBT 3022   2.553   4.530   6.945
  231fsi    NBT 3023   2.521   4.677   6.904
  231fsi    OBT 3024   2.630   4.455   6.849
  231fsi    OBT 3025   2.441   4.464   7.007
  231fsi    SBT 3026   2.611   4.763   6.810
  231fsi    OBT 3027   2.747   4.718   6.800
  231fsi    OBT 3028   2.591   4.904   6.830
  231fsi    FSI 3029   2.548   4.733   6.668
  232fsi    FSI 3030   2.226   2.370   6.240
  232fsi    SBT 3031   2.145   2.394   6.107
  232fsi    NBT 3032   2.231   2.504   6.038
  232fsi    OBT 3033   2.146   2.266   6.040
  232fsi    OBT 3034   2.018   2.444   6.152
  232fsi    SBT 3035   2.359   2.475   5.954
  232fsi    OBT 3036   2.419   2.347   5.982
  232fsi    OBT 3037   2.448   2.587   5.947
  232fsi    FSI 3038   2.300   2.462   5.808
  233fsi    FSI 3039   2.550   6.014   2.692
  233fsi    SBT 3040   2.632   6.147   2.716
  233fsi    NBT 3041   2.779   6.095   2.703
  233fsi    OBT 3042   2.591   6.235   2.609
  233fsi    OBT 3043   2.598   6.186   2.850
  233fsi    SBT 3044   2.853   6.074   2.568
  233fsi    OBT 3045   2.767   6.063   2.454
  233fsi    OBT 3046   2.961   5.979   2.577
  233fsi    FSI 3047   2.926   6.213   2.550
  234fsi    FSI 3048   2.421   6.625   3.931
  234fsi    SBT 3049   2.577   6.606   3.945
  234fsi    NBT 3050   2.585   6.456   3.987
  234fsi    OBT 3051   2.629   6.635   3.815
  234fsi    OBT 3052   2.613   6.695   4.052
  234fsi    SBT 3053   2.580   6.337   3.886
  234fsi    OBT 3054   2.524   6.370   3.758
  234fsi    OBT 3055   2.536   6.214   3.947
  234fsi    FSI 3056   2.733   6.313   3.857
  235fsi    FSI 3057   6.721   5.815   3.596
  235fsi    SBT 3058   6.596   5.722   3.618
  235fsi    NBT 3059   6.494   5.820   3.686
  235fsi    OBT 3060   6.559   5.682   3.485
  235fsi    OBT 3061   6.642   5.620   3.708
  235fsi    SBT 3062   6.407   5.922   3.608
  235fsi    OBT 3063   6.451   5.949   3.474
  235fsi    OBT 3064   6.366   6.033   3.690
  235fsi    FSI 3065   6.274   5.839   3.591
  236fsi    FSI 3066   1.277   2.155   2.926
  236fsi    SBT 3067   1.174   2.039   2.956
  236fsi    NBT 3068   1.256   1.913   2.912
  236fsi    OBT 3069   1.149   2.048   3.097
  236fsi    OBT 3070   1.065   2.065   2.866
  236fsi    SBT 3071   1.362   1.843   3.003
  236fsi    OBT 3072   1.412   1.923   3.111
  236fsi    OBT 3073   1.458   1.767   2.927
  236fsi    FSI 3074   1.274   1.732   3.074
  237fsi    FSI 3075   5.330   6.041   0.711
  237fsi    SBT 3076   5.356   5.970   0.849
  237fsi    NBT 3077   5.512   5.973   0.856
  237fsi    OBT 3078   5.289   6.053   0.945
  237fsi    OBT 3079   5.304   5.837   0.829
  237fsi    SBT 3080   5.594   6.096   0.905
  237fsi    OBT 3081   5.523   6.221   0.900
  237fsi    OBT 3082   5.728   6.097   0.853
  237fsi    FSI 3083   5.611   6.065   1.058
  238fsi    FSI 3084   4.333   6.887   2.025
  238fsi    SBT 3085   4.240   6.856   2.148
  238fsi    NBT 3086   4.329   6.756   2.229
  238fsi    OBT 3087   4.219   6.983   2.211
  238fsi    OBT 3088   4.125   6.792   2.090
  238fsi    SBT 3089   4.443   6.800   2.327
  238fsi    OBT 3090   4.491   6.934   2.304
  238fsi    OBT 3091   4.541   6.697   2.346
  238fsi    FSI 3092   4.366   6.808   2.464
  239fsi    FSI 3093   5.764   5.624   6.805
  239fsi    SBT 3094   5.848   5.753   6.770
  239fsi    NBT 3095   5.743   5.840   6.694
  239fsi    OBT 3096   5.889   5.807   6.897
  239fsi    OBT 3097   5.953   5.706   6.685
  239fsi    SBT 3098   5.636   5.928   6.765
  239fsi    OBT 3099   5.611   5.894   6.902
  239fsi    OBT 3100   5.521   5.954   6.682
  239fsi    FSI 3101   5.710   6.067   6.772
  240fsi    FSI 3102   5.512   3.189   2.285
  240fsi    SBT 3103   5.379   3.272   2.263
  240fsi    NBT 3104   5.434   3.418   2.268
  240fsi    OBT 3105   5.331   3.231   2.135
  240fsi    OBT 3106   5.298   3.240   2.378
  240fsi    SBT 3107   5.499   3.492   2.147
  240fsi    OBT 3108   5.546   3.404   2.043
  240fsi    OBT 3109   5.586   3.599   2.187
  240fsi    FSI 3110   5.374   3.565   2.083
  241fsi    FSI 3111   2.389   4.415   2.166
  241fsi    SBT 3112   2.453   4.537   2.243
  241fsi    NBT 3113   2.332   4.594   2.324
  241fsi    OBT 3114   2.557   4.481   2.324
  241fsi    OBT 3115   2.493   4.629   2.140
  241fsi    SBT 3116   2.283   4.531   2.458
  241fsi    OBT 3117   2.328   4.397   2.485
  241fsi    OBT 3118   2.145   4.564   2.482
  241fsi    FSI 3119   2.360   4.621   2.562
  242fsi    FSI 3120   4.277   1.958   6.601
  242fsi    SBT 3121   4.267   2.113   6.569
  242fsi    NBT 3122   4.399   2.165   6.633
  242fsi    OBT 3123   4.263   2.119   6.425
  242fsi    OBT 3124   4.150   2.155   6.640
  242fsi    SBT 3125   4.538   2.160   6.563
  242fsi    OBT 3126   4.548   2.065   6.456
  242fsi    OBT 3127   4.647   2.163   6.657
  242fsi    FSI 3128   4.544   2.301   6.493
  243fsi    FSI 3129   6.813   2.338   6.888
  243fsi    SBT 3130   6.864   2.486   6.898
  243fsi    NBT 3131   7.013   2.465   6.938
  243fsi    OBT 3132   6.843   2.540   6.766
  243fsi    OBT 3133   6.784   2.543   7.003
  243fsi    SBT 3134   7.128   2.433   6.837
  243fsi    OBT 3135   7.082   2.382   6.711
  243fsi    OBT 3136   7.239   2.366   6.899
  243fsi    FSI 3137   7.182   2.577   6.804
  244fsi    FSI 3138   1.545   2.913   4.671
  244fsi    SBT 3139   1.418   2.990   4.722
  244fsi    NBT 3140   1.480   3.128   4.761
  244fsi    OBT 3141   1.329   2.994   4.610
  244fsi    OBT 3142   1.376   2.915   4.837
  244fsi    SBT 3143   1.508   3.243   4.659
  244fsi    OBT 3144   1.515   3.201   4.522
  244fsi    OBT 3145   1.609   3.334   4.704
  244fsi    FSI 3146   1.374   3.326   4.669
  245fsi    FSI 3147   5.801   6.841   2.879
  245fsi    SBT 3148   5.756   6.967   2.796
  245fsi    NBT 3149   5.823   7.082   2.878
  245fsi    OBT 3150   5.812   6.946   2.666
  245fsi    OBT 3151   5.613   6.966   2.809
  245fsi    SBT 3152   5.971   7.127   2.862
  245fsi    OBT 3153   6.057   7.028   2.803
  245fsi    OBT 3154   6.021   7.193   2.979
  245fsi    FSI 3155   5.959   7.240   2.754
  246fsi    FSI 3156   4.961   3.875   5.814
  246fsi    SBT 3157   4.941   3.721   5.783
  246fsi    NBT 3158   5.088   3.673   5.769
  246fsi    OBT 3159   4.871   3.670   5.898
  246fsi    OBT 3160   4.869   3.720   5.658
  246fsi    SBT 3161   5.180   3.636   5.889
  246fsi    OBT 3162   5.136   3.690   6.015
  246fsi    OBT 3163   5.320   3.648   5.858
  246fsi    FSI 3164   5.156   3.481   5.901
  247fsi    FSI 3165   6.240   0.522   3.675
  247fsi    SBT 3166   6.232   0.448   3.536
  247fsi    NBT 3167   6.384   0.425   3.506
  247fsi    OBT 3168   6.157   0.328   3.563
  247fsi    OBT 3169   6.173   0.545   3.449
  247fsi    SBT 3170   6.467   0.307   3.563
  247fsi    OBT 3171   6.411   0.246   3.681
  247fsi    OBT 3172   6.608   0.337   3.566
  247fsi    FSI 3173   6.452   0.198   3.451
  248fsi    FSI 3174   2.004   3.986   1.683
  248fsi    SBT 3175   1.943   4.082   1.793
  248fsi    NBT 3176   1.792   4.045   1.786
  248fsi    OBT 3177   2.010   4.044   1.914
  248fsi    OBT 3178   1.970   4.214   1.742
  248fsi    SBT 3179   1.729   3.923   1.859
  248fsi    OBT 3180   1.823   3.821   1.897
  248fsi    OBT 3181   1.606   3.880   1.798
  248fsi    FSI 3182   1.683   3.987   1.996
  249fsi    FSI 3183   1.281   4.726   0.937
  249fsi    SBT 3184   1.292   4.882   0.919
  249fsi    NBT 3185   1.168   4.913   0.830
  249fsi    OBT 3186   1.285   4.936   1.053
  249fsi    OBT 3187   1.416   4.902   0.849
  249fsi    SBT 3188   1.023   4.930   0.885
  249fsi    OBT 3189   1.003   4.875   1.016
  249fsi    OBT 3190   0.922   4.903   0.786
  249fsi    FSI 3191   1.015   5.086   0.907
  250fsi    FSI 3192   6.380   1.261   6.728
  250fsi    SBT 3193   6.225   1.242   6.743
  250fsi    NBT 3194   6.176   1.390   6.751
  250fsi    OBT 3195   6.187   1.171   6.624
  250fsi    OBT 3196   6.211   1.171   6.868
  250fsi    SBT 3197   6.151   1.481   6.627
  250fsi    OBT 3198   6.217   1.436   6.507
  250fsi    OBT 3199   6.162   1.620   6.658
  250fsi    FSI 3200   5.997   1.457   6.601
   7.43690   7.43690   7.43690
