; created by fftool

[ defaults ]
; nbfunc   comb-rule   gen-pairs   fudgeLJ fudgeQQ
  1        3           yes         0.5     0.5

[ atomtypes ]
; name  at.nr     mass   charge  ptype  sigma        epsilon
Li          3   6.9410   0.7500      A  2.12600e-01  7.64800e-02
N4          7  14.0070   0.0900      A  3.25000e-01  7.11280e-01
C1          6  12.0110  -0.1275      A  3.50000e-01  2.76140e-01
C2          6  12.0110   0.0075      A  3.50000e-01  2.76140e-01
H1          1   1.0080   0.0975      A  2.50000e-01  1.25520e-01
HC          1   1.0080   0.0450      A  2.50000e-01  1.25520e-01
CT          6  12.0110  -0.1350      A  3.50000e-01  2.76140e-01
FSI         9  18.9980  -0.0975      A  3.11800e-01  2.55400e-01
SBT        16  32.0660   0.7650      A  3.55000e-01  1.04600e+00
NBT         7  14.0000  -0.49500      A  3.25000e-01  7.11280e-01
OBT         8  15.9990  -0.3975      A  3.15000e-01  8.37360e-01
P          15  30.9740   1.0050      A  3.74000e-01  8.36800e-01
FP          9  18.9980  -0.2925      A  3.12000e-01  2.55200e-01
opls_806  O806    15.9990     0.000    A    2.90000E-01   5.85760E-01
  opls_800  F800    18.9984     0.000    A    2.90000E-01   2.51040E-01
  opls_809  C809    12.0110     0.000    A    3.50000E-01   2.76144E-01
  opls_801  C801    12.0110     0.000    A    3.50000E-01   2.76144E-01
  opls_805  F805    18.9984     0.000    A    2.90000E-01   2.51040E-01
  opls_810  F810    18.9984     0.000    A    2.90000E-01   2.51040E-01
  opls_817  H817     1.0080     0.000    A    2.50000E-01   1.25520E-01
  opls_803  C803    12.0110     0.000    A    3.50000E-01   2.76144E-01
  opls_802  F802    18.9984     0.000    A    2.90000E-01   2.51040E-01
  opls_812  F812    18.9984     0.000    A    2.90000E-01   2.51040E-01
  opls_814  H814     1.0080     0.000    A    2.50000E-01   1.25520E-01
  opls_804  F804    18.9984     0.000    A    2.90000E-01   2.51040E-01
  opls_815  H815     1.0080     0.000    A    2.50000E-01   1.25520E-01
  opls_813  F813    18.9984     0.000    A    2.90000E-01   2.51040E-01
  opls_808  C808    12.0110     0.000    A    3.50000E-01   2.76144E-01
  opls_807  C807    12.0110     0.000    A    3.50000E-01   2.76144E-01
  opls_816  H816     1.0080     0.000    A    2.50000E-01   1.25520E-01
  opls_811  F811    18.9984     0.000    A    2.90000E-01   2.51040E-01

[ moleculetype ]
; name       nrexcl
Li+               3

[ atoms ]
;  nr   type  resnr  residu   atom  cgnr    charge
    1   Li        1  Li+     Li        1    0.750000

[ bonds ]
;  ai    aj   func    b0        kb

[ constraints ]
;  ai    aj   func    b0

[ pairs ]
;   ai   aj   func

[ angles ]
;  ai    aj    ak   func    th0        cth

[ dihedrals ]
;  ai    aj    ak    al   func    coefficients

[ moleculetype ]
; name       nrexcl
c3c1pyrr+         3

[ atoms ]
;  nr   type  resnr  residu   atom  cgnr    charge
    1   N4        1  c3c     N4        1    0.090000
    2   C1        1  c3c     C1        2   -0.127500
    3   C1        1  c3c     C1        3   -0.127500
    4   C2        1  c3c     C2        4    0.007500
    5   C2        1  c3c     C2        5    0.007500
    6   C1        1  c3c     C1        6   -0.127500
    7   C1        1  c3c     C1        7   -0.127500
    8   H1        1  c3c     H1        8    0.097500
    9   H1        1  c3c     H1        9    0.097500
   10   H1        1  c3c     H1       10    0.097500
   11   H1        1  c3c     H1       11    0.097500
   12   HC        1  c3c     HC       12    0.045000
   13   HC        1  c3c     HC       13    0.045000
   14   HC        1  c3c     HC       14    0.045000
   15   HC        1  c3c     HC       15    0.045000
   16   H1        1  c3c     H1       16    0.097500
   17   H1        1  c3c     H1       17    0.097500
   18   H1        1  c3c     H1       18    0.097500
   19   H1        1  c3c     H1       19    0.097500
   20   H1        1  c3c     H1       20    0.097500
   21   C2        1  c3c     C2       21    0.007500
   22   HC        1  c3c     HC       22    0.045000
   23   HC        1  c3c     HC       23    0.045000
   24   CT        1  c3c     CT       24   -0.135000
   25   HC        1  c3c     HC       25    0.045000
   26   HC        1  c3c     HC       26    0.045000
   27   HC        1  c3c     HC       27    0.045000

[ bonds ]
;  ai    aj   func    b0        kb
    2     1      1    0.14480   319660.0
    3     1      1    0.14480   319660.0
    4     2      1    0.15290   224200.0
    5     3      1    0.15290   224200.0
    6     1      1    0.14480   319660.0
    7     1      1    0.14480   319660.0
   21     7      1    0.15290   224200.0
   24    21      1    0.15290   224200.0
    5     4      1    0.15290   224200.0

[ constraints ]
;  ai    aj   func    b0
    8     2      1    0.10900
    9     2      1    0.10900
   10     3      1    0.10900
   11     3      1    0.10900
   12     4      1    0.10900
   13     4      1    0.10900
   14     5      1    0.10900
   15     5      1    0.10900
   16     6      1    0.10900
   17     6      1    0.10900
   18     6      1    0.10900
   19     7      1    0.10900
   20     7      1    0.10900
   22    21      1    0.10900
   23    21      1    0.10900
   25    24      1    0.10900
   26    24      1    0.10900
   27    24      1    0.10900

[ pairs ]
;   ai   aj   func
    1    12      1
    1    13      1
    1    14      1
    1    15      1
    1    22      1
    1    23      1
    1    24      1
    2    10      1
    2    11      1
    2    14      1
    2    15      1
    2    16      1
    2    17      1
    2    18      1
    2    19      1
    2    20      1
    2    21      1
    3     8      1
    3     9      1
    3    12      1
    3    13      1
    3    16      1
    3    17      1
    3    18      1
    3    19      1
    3    20      1
    3    21      1
    4     6      1
    4     7      1
    4    10      1
    4    11      1
    5     6      1
    5     7      1
    5     8      1
    5     9      1
    6     8      1
    6     9      1
    6    10      1
    6    11      1
    6    19      1
    6    20      1
    6    21      1
    7     8      1
    7     9      1
    7    10      1
    7    11      1
    7    16      1
    7    17      1
    7    18      1
    7    25      1
    7    26      1
    7    27      1
    8    12      1
    8    13      1
    9    12      1
    9    13      1
   10    14      1
   10    15      1
   11    14      1
   11    15      1
   12    14      1
   12    15      1
   13    14      1
   13    15      1
   19    22      1
   19    23      1
   19    24      1
   20    22      1
   20    23      1
   20    24      1
   22    25      1
   22    26      1
   22    27      1
   23    25      1
   23    26      1
   23    27      1

[ angles ]
;  ai    aj    ak   func    th0        cth
    2     1     3      1    107.200    433.500
    2     1     6      1    107.200    433.500
    2     1     7      1    107.200    433.500
    3     1     6      1    107.200    433.500
    3     1     7      1    107.200    433.500
    6     1     7      1    107.200    433.500
    1     2     4      1    109.500    470.300
    1     2     8      1    109.500    292.900
    1     2     9      1    109.500    292.900
    4     2     8      1    110.700    313.800
    4     2     9      1    110.700    313.800
    8     2     9      1    107.800    276.100
    1     3     5      1    109.500    470.300
    1     3    10      1    109.500    292.900
    1     3    11      1    109.500    292.900
    5     3    10      1    110.700    313.800
    5     3    11      1    110.700    313.800
   10     3    11      1    107.800    276.100
    2     4    12      1    110.700    313.800
    2     4    13      1    110.700    313.800
    2     4     5      1    112.700    488.300
   12     4    13      1    107.800    276.100
   12     4     5      1    110.700    313.800
   13     4     5      1    110.700    313.800
    3     5    14      1    110.700    313.800
    3     5    15      1    110.700    313.800
    3     5     4      1    112.700    488.300
   14     5    15      1    107.800    276.100
   14     5     4      1    110.700    313.800
   15     5     4      1    110.700    313.800
    1     6    16      1    109.500    292.900
    1     6    17      1    109.500    292.900
    1     6    18      1    109.500    292.900
   16     6    17      1    107.800    276.100
   16     6    18      1    107.800    276.100
   17     6    18      1    107.800    276.100
    1     7    19      1    109.500    292.900
    1     7    20      1    109.500    292.900
    1     7    21      1    109.500    470.300
   19     7    20      1    107.800    276.100
   19     7    21      1    110.700    313.800
   20     7    21      1    110.700    313.800
    7    21    22      1    110.700    313.800
    7    21    23      1    110.700    313.800
    7    21    24      1    112.700    488.300
   22    21    23      1    107.800    276.100
   22    21    24      1    110.700    313.800
   23    21    24      1    110.700    313.800
   21    24    25      1    110.700    313.800
   21    24    26      1    110.700    313.800
   21    24    27      1    110.700    313.800
   25    24    26      1    107.800    276.100
   25    24    27      1    107.800    276.100
   26    24    27      1    107.800    276.100

[ dihedrals ]
;  ai    aj    ak    al   func    coefficients
    4     2     1     3      5    1.74050  -0.53560   2.90790   0.00000
    4     2     1     6      5    1.74050  -0.53560   2.90790   0.00000
    4     2     1     7      5    1.74050  -0.53560   2.90790   0.00000
    8     2     1     3      5    0.00000   0.00000   2.34300   0.00000
    8     2     1     6      5    0.00000   0.00000   2.34300   0.00000
    8     2     1     7      5    0.00000   0.00000   2.34300   0.00000
    9     2     1     3      5    0.00000   0.00000   2.34300   0.00000
    9     2     1     6      5    0.00000   0.00000   2.34300   0.00000
    9     2     1     7      5    0.00000   0.00000   2.34300   0.00000
    5     3     1     2      5    1.74050  -0.53560   2.90790   0.00000
    5     3     1     6      5    1.74050  -0.53560   2.90790   0.00000
    5     3     1     7      5    1.74050  -0.53560   2.90790   0.00000
   10     3     1     2      5    0.00000   0.00000   2.34300   0.00000
   10     3     1     6      5    0.00000   0.00000   2.34300   0.00000
   10     3     1     7      5    0.00000   0.00000   2.34300   0.00000
   11     3     1     2      5    0.00000   0.00000   2.34300   0.00000
   11     3     1     6      5    0.00000   0.00000   2.34300   0.00000
   11     3     1     7      5    0.00000   0.00000   2.34300   0.00000
   12     4     2     1      5   -4.23840  -2.96650   1.97900   0.00000
   12     4     2     8      5    0.00000   0.00000   1.25520   0.00000
   12     4     2     9      5    0.00000   0.00000   1.25520   0.00000
   13     4     2     1      5   -4.23840  -2.96650   1.97900   0.00000
   13     4     2     8      5    0.00000   0.00000   1.25520   0.00000
   13     4     2     9      5    0.00000   0.00000   1.25520   0.00000
    5     4     2     1      5   10.00810  -2.82000   2.30120   0.00000
    5     4     2     8      5    0.00000   0.00000   1.25520   0.00000
    5     4     2     9      5    0.00000   0.00000   1.25520   0.00000
   14     5     3     1      5   -4.23840  -2.96650   1.97900   0.00000
   14     5     3    10      5    0.00000   0.00000   1.25520   0.00000
   14     5     3    11      5    0.00000   0.00000   1.25520   0.00000
   15     5     3     1      5   -4.23840  -2.96650   1.97900   0.00000
   15     5     3    10      5    0.00000   0.00000   1.25520   0.00000
   15     5     3    11      5    0.00000   0.00000   1.25520   0.00000
    4     5     3     1      5   10.00810  -2.82000   2.30120   0.00000
    4     5     3    10      5    0.00000   0.00000   1.25520   0.00000
    4     5     3    11      5    0.00000   0.00000   1.25520   0.00000
   16     6     1     2      5    0.00000   0.00000   2.34300   0.00000
   16     6     1     3      5    0.00000   0.00000   2.34300   0.00000
   16     6     1     7      5    0.00000   0.00000   2.34300   0.00000
   17     6     1     2      5    0.00000   0.00000   2.34300   0.00000
   17     6     1     3      5    0.00000   0.00000   2.34300   0.00000
   17     6     1     7      5    0.00000   0.00000   2.34300   0.00000
   18     6     1     2      5    0.00000   0.00000   2.34300   0.00000
   18     6     1     3      5    0.00000   0.00000   2.34300   0.00000
   18     6     1     7      5    0.00000   0.00000   2.34300   0.00000
   19     7     1     2      5    0.00000   0.00000   2.34300   0.00000
   19     7     1     3      5    0.00000   0.00000   2.34300   0.00000
   19     7     1     6      5    0.00000   0.00000   2.34300   0.00000
   20     7     1     2      5    0.00000   0.00000   2.34300   0.00000
   20     7     1     3      5    0.00000   0.00000   2.34300   0.00000
   20     7     1     6      5    0.00000   0.00000   2.34300   0.00000
   21     7     1     2      5    1.74050  -0.53560   2.90790   0.00000
   21     7     1     3      5    1.74050  -0.53560   2.90790   0.00000
   21     7     1     6      5    1.74050  -0.53560   2.90790   0.00000
   22    21     7     1      5   -4.23840  -2.96650   1.97900   0.00000
   22    21     7    19      5    0.00000   0.00000   1.25520   0.00000
   22    21     7    20      5    0.00000   0.00000   1.25520   0.00000
   23    21     7     1      5   -4.23840  -2.96650   1.97900   0.00000
   23    21     7    19      5    0.00000   0.00000   1.25520   0.00000
   23    21     7    20      5    0.00000   0.00000   1.25520   0.00000
   24    21     7     1      5   10.00810  -2.82000   2.30120   0.00000
   24    21     7    19      5    0.00000   0.00000   1.25520   0.00000
   24    21     7    20      5    0.00000   0.00000   1.25520   0.00000
   25    24    21     7      5    0.00000   0.00000   1.25520   0.00000
   25    24    21    22      5    0.00000   0.00000   1.25520   0.00000
   25    24    21    23      5    0.00000   0.00000   1.25520   0.00000
   26    24    21     7      5    0.00000   0.00000   1.25520   0.00000
   26    24    21    22      5    0.00000   0.00000   1.25520   0.00000
   26    24    21    23      5    0.00000   0.00000   1.25520   0.00000
   27    24    21     7      5    0.00000   0.00000   1.25520   0.00000
   27    24    21    22      5    0.00000   0.00000   1.25520   0.00000
   27    24    21    23      5    0.00000   0.00000   1.25520   0.00000
    3     5     4     2      5    5.43920  -0.20920   0.83680   0.00000
    3     5     4    12      5    0.00000   0.00000   1.25520   0.00000
    3     5     4    13      5    0.00000   0.00000   1.25520   0.00000
   14     5     4     2      5    0.00000   0.00000   1.25520   0.00000
   14     5     4    12      5    0.00000   0.00000   1.25520   0.00000
   14     5     4    13      5    0.00000   0.00000   1.25520   0.00000
   15     5     4     2      5    0.00000   0.00000   1.25520   0.00000
   15     5     4    12      5    0.00000   0.00000   1.25520   0.00000
   15     5     4    13      5    0.00000   0.00000   1.25520   0.00000

[ moleculetype ]
; name       nrexcl
fsi-              3

[ atoms ]
;  nr   type  resnr  residu   atom  cgnr    charge
    1   FSI       1  fsi     FSI       1   -0.097500
    2   SBT       1  fsi     SBT       2    0.765000
    3   NBT       1  fsi     NBT       3   -0.495000
    4   OBT       1  fsi     OBT       4   -0.397500
    5   OBT       1  fsi     OBT       5   -0.397500
    6   SBT       1  fsi     SBT       6    0.765000
    7   OBT       1  fsi     OBT       7   -0.397500
    8   OBT       1  fsi     OBT       8   -0.397500
    9   FSI       1  fsi     FSI       9   -0.097500

[ bonds ]
;  ai    aj   func    b0        kb
    2     1      1    0.15750   187900.0
    3     2      1    0.15700   313700.0
    4     2      1    0.14370   533100.0
    5     2      1    0.14370   533100.0
    6     3      1    0.15700   313700.0
    7     6      1    0.14370   533100.0
    8     6      1    0.14370   533100.0
    9     6      1    0.15750   187900.0

[ constraints ]
;  ai    aj   func    b0

[ pairs ]
;   ai   aj   func
    1     6      1
    2     7      1
    2     8      1
    2     9      1
    4     6      1
    5     6      1

[ angles ]
;  ai    aj    ak   func    th0        cth
    1     2     3      1    103.000    902.000
    1     2     4      1    104.100   1077.000
    1     2     5      1    104.100   1077.000
    3     2     4      1    113.600    789.000
    3     2     5      1    113.600    789.000
    4     2     5      1    118.500    969.000
    2     3     6      1    125.600    671.000
    3     6     7      1    113.600    789.000
    3     6     8      1    113.600    789.000
    3     6     9      1    103.000    902.000
    7     6     8      1    118.500    969.000
    7     6     9      1    104.100   1077.000
    8     6     9      1    104.100   1077.000

[ dihedrals ]
;  ai    aj    ak    al   func    coefficients
    6     3     2     1      5   11.44500 -15.18600  -3.21200   0.00000
    6     3     2     4      5    0.00000   0.00000  -0.01500   0.00000
    6     3     2     5      5    0.00000   0.00000  -0.01500   0.00000
    7     6     3     2      5    0.00000   0.00000  -0.01500   0.00000
    8     6     3     2      5    0.00000   0.00000  -0.01500   0.00000
    9     6     3     2      5   11.44500 -15.18600  -3.21200   0.00000

[ moleculetype ]
; name       nrexcl
PF6-              3

[ atoms ]
;  nr   type  resnr  residu   atom  cgnr    charge
    1   P         1  PF6     P         1    1.005000
    2   FP        1  PF6     FP        2   -0.292500
    3   FP        1  PF6     FP        3   -0.292500
    4   FP        1  PF6     FP        4   -0.292500
    5   FP        1  PF6     FP        5   -0.292500
    6   FP        1  PF6     FP        6   -0.292500
    7   FP        1  PF6     FP        7   -0.292500

[ bonds ]
;  ai    aj   func    b0        kb
    2     1      1    0.16060   310000.0
    3     1      1    0.16060   310000.0
    4     1      1    0.16060   310000.0
    5     1      1    0.16060   310000.0
    6     1      1    0.16060   310000.0
    7     1      1    0.16060   310000.0

[ constraints ]
;  ai    aj   func    b0

[ pairs ]
;   ai   aj   func

[ angles ]
;  ai    aj    ak   func    th0        cth
    2     1     3      1     90.000   1165.000
    2     1     4      1     90.000   1165.000
    2     1     5      1     90.000   1165.000
    2     1     6      1     90.000   1165.000
    3     1     4      1     90.000   1165.000
    3     1     5      1     90.000   1165.000
    3     1     7      1     90.000   1165.000
    4     1     6      1     90.000   1165.000
    4     1     7      1     90.000   1165.000
    5     1     6      1     90.000   1165.000
    5     1     7      1     90.000   1165.000
    6     1     7      1     90.000   1165.000

[ dihedrals ]
;  ai    aj    ak    al   func    coefficients

[ moleculetype ]
; name       nrexcl
TTE               3

[ atoms ]
;   nr       type  resnr residue  atom   cgnr     charge       mass  
     1   opls_800      1    UNL   F00      1    -0.101700    18.9984 
     2   opls_801      1    UNL   C01      1     0.176550    12.0110 
     3   opls_802      1    UNL   F02      1    -0.101700    18.9984 
     4   opls_803      1    UNL   C03      1     0.271050    12.0110 
     5   opls_804      1    UNL   F04      1    -0.117300    18.9984 
     6   opls_805      1    UNL   F05      1    -0.117300    18.9984 
     7   opls_806      1    UNL   O06      1    -0.265050    15.9990 
     8   opls_807      1    UNL   C07      1    -0.068550    12.0110 
     9   opls_808      1    UNL   C08      1     0.192750    12.0110 
    10   opls_809      1    UNL   C09      1     0.142350    12.0110 
    11   opls_810      1    UNL   F0A      1    -0.107100    18.9984 
    12   opls_811      1    UNL   F0B      1    -0.107100    18.9984 
    13   opls_812      1    UNL   F0C      1    -0.097950    18.9984 
    14   opls_813      1    UNL   F0D      1    -0.097950    18.9984 
    15   opls_814      1    UNL   H0E      1     0.107250     1.0080 
    16   opls_815      1    UNL   H0F      1     0.099150     1.0080 
    17   opls_816      1    UNL   H0G      1     0.099150     1.0080 
    18   opls_817      1    UNL   H0H      1     0.093450     1.0080 
[ bonds ]
    2     1     1      0.1360 307105.600
    3     2     1      0.1360 307105.600
    4     2     1      0.1529 224262.400
    5     4     1      0.1360 307105.600
    6     4     1      0.1360 307105.600
    7     4     1      0.1410 267776.000
    8     7     1      0.1410 267776.000
    9     8     1      0.1529 224262.400
   10     9     1      0.1529 224262.400
   11    10     1      0.1360 307105.600
   12    10     1      0.1360 307105.600
   13     9     1      0.1360 307105.600
   14     9     1      0.1360 307105.600
   15     2     1      0.1090 284512.000
   16     8     1      0.1090 284512.000
   17     8     1      0.1090 284512.000
   18    10     1      0.1090 284512.000

[ angles ]
;  ai    aj    ak funct            c0            c1            c2            c3 
    1     2     3     1    109.100    644.336
    1     2     4     1    109.500    418.400
    2     4     5     1    109.500    418.400
    2     4     6     1    109.500    418.400
    2     4     7     1    109.500    418.400
    4     7     8     1    109.500    502.080
    7     8     9     1    109.500    418.400
    8     9    10     1    112.700    488.273
    9    10    11     1    109.500    418.400
    9    10    12     1    109.500    418.400
    8     9    13     1    109.500    418.400
    8     9    14     1    109.500    418.400
    1     2    15     1    107.000    334.720
    7     8    16     1    109.500    292.880
    7     8    17     1    109.500    292.880
    9    10    18     1    110.700    313.800
   13     9    14     1    109.100    644.336
    5     4     6     1    109.100    644.336
   10     9    14     1    109.500    418.400
    5     4     7     1    109.900    585.760
   10     9    13     1    109.500    418.400
    3     2    15     1    107.000    334.720
    6     4     7     1    109.900    585.760
   12    10    18     1    107.000    334.720
   16     8    17     1    107.800    276.144
   11    10    18     1    107.000    334.720
    4     2    15     1    110.700    313.800
    3     2     4     1    109.500    418.400
    9     8    16     1    110.700    313.800
    9     8    17     1    110.700    313.800
   11    10    12     1    109.100    644.336

[ dihedrals ]
; IMPROPER DIHEDRAL ANGLES 
;  ai    aj    ak    al funct            c0            c1            c2            c3            c4            c5

[ dihedrals ]
; PROPER DIHEDRAL ANGLES
;  ai    aj    ak    al funct            c0            c1            c2            c3            c4            c5
   10    9    8    7        3       2.874   0.582   2.092  -5.548  -0.000   0.000
    9    8    7    4        3       1.715   2.845   1.046  -5.607  -0.000   0.000
    8    7    4    2        3       1.715   2.845   1.046  -5.607  -0.000   0.000
    8    7    4    6        3      21.439   0.000  -21.439  -0.000  -0.000   0.000
    8    7    4    5        3      21.439   0.000  -21.439  -0.000  -0.000   0.000
   12   10    9    8        3       0.000   0.000   0.000  -0.000  -0.000   0.000
   11   10    9    8        3       0.000   0.000   0.000  -0.000  -0.000   0.000
    5    4    2    3        3      -4.707   6.799   0.000  -2.092  -0.000   0.000
    6    4    2    3        3      -4.707   6.799   0.000  -2.092  -0.000   0.000
   13    9   10   12        3      -4.707   6.799   0.000  -2.092  -0.000   0.000
    6    4    2    1        3      -4.707   6.799   0.000  -2.092  -0.000   0.000
   14    9   10   11        3      -4.707   6.799   0.000  -2.092  -0.000   0.000
   13    9   10   11        3      -4.707   6.799   0.000  -2.092  -0.000   0.000
    5    4    2    1        3      -4.707   6.799   0.000  -2.092  -0.000   0.000
   14    9   10   12        3      -4.707   6.799   0.000  -2.092  -0.000   0.000
   13    9    8    7        3       1.130   3.389   0.000  -4.519  -0.000   0.000
   14    9    8    7        3       1.130   3.389   0.000  -4.519  -0.000   0.000
   18   10    9    8        3       0.628   1.883   0.000  -2.510  -0.000   0.000
   15    2    4    5        3       0.753   2.259   0.000  -3.012  -0.000   0.000
   18   10    9   14        3       0.753   2.259   0.000  -3.012  -0.000   0.000
   18   10    9   13        3       0.753   2.259   0.000  -3.012  -0.000   0.000
   15    2    4    6        3       0.753   2.259   0.000  -3.012  -0.000   0.000
   15    2    4    7        3       0.979   2.937   0.000  -3.916  -0.000   0.000
   17    8    9   10        3       0.628   1.883   0.000  -2.510  -0.000   0.000
   16    8    9   10        3       0.628   1.883   0.000  -2.510  -0.000   0.000
   17    8    9   14        3       0.753   2.259   0.000  -3.012  -0.000   0.000
   17    8    9   13        3       0.753   2.259   0.000  -3.012  -0.000   0.000
   16    8    9   14        3       0.753   2.259   0.000  -3.012  -0.000   0.000
   16    8    9   13        3       0.753   2.259   0.000  -3.012  -0.000   0.000
   16    8    7    4        3       1.590   4.770   0.000  -6.360  -0.000   0.000
   17    8    7    4        3       1.590   4.770   0.000  -6.360  -0.000   0.000
    7    4    2    1        3       1.130   3.389   0.000  -4.519  -0.000   0.000
    7    4    2    3        3       1.130   3.389   0.000  -4.519  -0.000   0.000

[ pairs ]
     1     5    1
     1     6    1
     3     5    1
     1     7    1
     3     6    1
     3     7    1
     2     8    1
     5     8    1
     4     9    1
     6     8    1
     7    10    1
     8    11    1
     8    12    1
     7    13    1
     5    15    1
     4    16    1
     7    14    1
     6    15    1
     4    17    1
     7    15    1
    11    13    1
    12    13    1
    11    14    1
    12    14    1
    10    16    1
     8    18    1
    10    17    1
    13    16    1
    14    16    1
    13    17    1
    14    17    1
    13    18    1
    14    18    1

[ system ]
L1P2 short trajectory practice

[ molecules ]

Li+                50
c3c1pyrr+          75
fsi-               125
