L2P1 short trajectory practice
 1400
    1Li+     Li    1   4.458   4.188   1.530
    2Li+     Li    2   3.717   1.212   3.574
    3Li+     Li    3   1.709   1.827   4.267
    4Li+     Li    4   1.980   5.135   1.011
    5Li+     Li    5   3.983   1.317   3.740
    6Li+     Li    6   1.587   4.073   3.724
    7Li+     Li    7   4.233   1.930   2.729
    8Li+     Li    8   2.541   1.498   0.947
    9Li+     Li    9   2.986   5.335   4.014
   10Li+     Li   10   2.223   3.556   2.101
   11Li+     Li   11   5.463   0.805   0.584
   12Li+     Li   12   3.911   0.312   1.200
   13Li+     Li   13   5.395   1.000   3.938
   14Li+     Li   14   3.849   3.643   2.608
   15Li+     Li   15   2.299   1.245   2.409
   16Li+     Li   16   1.516   2.003   1.426
   17Li+     Li   17   4.755   0.743   1.414
   18Li+     Li   18   4.621   4.608   2.663
   19Li+     Li   19   0.750   3.980   4.910
   20Li+     Li   20   2.499   1.149   5.356
   21Li+     Li   21   4.426   5.229   2.610
   22Li+     Li   22   1.058   4.651   4.250
   23Li+     Li   23   4.753   5.216   4.170
   24Li+     Li   24   1.721   2.141   1.206
   25Li+     Li   25   1.475   5.392   4.179
   26Li+     Li   26   2.739   2.515   4.176
   27Li+     Li   27   2.890   1.550   1.912
   28Li+     Li   28   0.347   1.671   2.202
   29Li+     Li   29   4.307   3.210   5.233
   30Li+     Li   30   3.482   1.049   5.021
   31Li+     Li   31   4.754   4.834   0.535
   32Li+     Li   32   1.079   1.123   2.840
   33Li+     Li   33   5.036   3.242   3.957
   34Li+     Li   34   1.678   1.983   0.329
   35Li+     Li   35   2.885   1.672   4.783
   36Li+     Li   36   2.787   4.016   4.242
   37Li+     Li   37   2.055   0.941   1.015
   38Li+     Li   38   2.174   3.616   4.924
   39Li+     Li   39   5.377   3.683   0.249
   40Li+     Li   40   3.231   5.408   0.228
   41Li+     Li   41   2.144   0.891   0.463
   42Li+     Li   42   4.543   5.268   3.611
   43Li+     Li   43   0.406   0.374   0.190
   44Li+     Li   44   2.264   1.857   2.833
   45Li+     Li   45   2.825   2.338   2.787
   46Li+     Li   46   2.110   4.526   3.100
   47Li+     Li   47   4.625   2.691   2.789
   48Li+     Li   48   2.734   1.195   3.051
   49Li+     Li   49   2.753   1.487   2.914
   50Li+     Li   50   1.356   1.670   2.107
   51c3c     N4   51   1.906   3.111   1.301
   51c3c     C1   52   1.876   3.248   1.347
   51c3c     C1   53   1.784   3.029   1.306
   51c3c     C2   54   1.730   3.251   1.393
   51c3c     C2   55   1.672   3.113   1.367
   51c3c     C1   56   1.952   3.118   1.162
   51c3c     C1   57   2.012   3.051   1.383
   51c3c     H1   58   1.893   3.323   1.271
   51c3c     H1   59   1.941   3.280   1.429
   51c3c     H1   60   1.754   2.992   1.208
   51c3c     H1   61   1.796   2.936   1.362
   51c3c     HC   62   1.676   3.328   1.337
   51c3c     HC   63   1.723   3.277   1.499
   51c3c     HC   64   1.588   3.119   1.297
   51c3c     HC   65   1.635   3.068   1.459
   51c3c     H1   66   2.042   3.179   1.152
   51c3c     H1   67   1.974   3.019   1.122
   51c3c     H1   68   1.875   3.162   1.099
   51c3c     H1   69   2.036   2.951   1.345
   51c3c     H1   70   2.103   3.109   1.375
   51c3c     C2   71   1.971   3.039   1.532
   51c3c     HC   72   1.881   2.979   1.546
   51c3c     HC   73   1.947   3.136   1.576
   51c3c     CT   74   2.081   2.977   1.615
   51c3c     HC   75   2.171   3.038   1.609
   51c3c     HC   76   2.103   2.877   1.578
   51c3c     HC   77   2.048   2.971   1.718
   52c3c     N4   78   3.908   1.773   4.770
   52c3c     C1   79   3.769   1.737   4.804
   52c3c     C1   80   3.994   1.655   4.782
   52c3c     C2   81   3.767   1.591   4.849
   52c3c     C2   82   3.910   1.539   4.835
   52c3c     C1   83   3.911   1.820   4.631
   52c3c     C1   84   3.956   1.881   4.857
   52c3c     H1   85   3.700   1.752   4.721
   52c3c     H1   86   3.726   1.801   4.882
   52c3c     H1   87   4.042   1.627   4.688
   52c3c     H1   88   4.081   1.671   4.847
   52c3c     HC   89   3.699   1.534   4.787
   52c3c     HC   90   3.733   1.583   4.952
   52c3c     HC   91   3.914   1.455   4.766
   52c3c     HC   92   3.948   1.504   4.931
   52c3c     H1   93   3.847   1.907   4.616
   52c3c     H1   94   4.012   1.847   4.600
   52c3c     H1   95   3.876   1.741   4.564
   52c3c     H1   96   4.057   1.911   4.829
   52c3c     H1   97   3.894   1.970   4.845
   52c3c     C2   98   3.955   1.840   5.007
   52c3c     HC   99   4.018   1.753   5.026
   52c3c     HC  100   3.856   1.812   5.042
   52c3c     CT  101   4.005   1.952   5.095
   52c3c     HC  102   3.941   2.040   5.084
   52c3c     HC  103   4.107   1.979   5.067
   52c3c     HC  104   4.004   1.920   5.199
   53c3c     N4  105   3.719   2.195   2.377
   53c3c     C1  106   3.697   2.062   2.437
   53c3c     C1  107   3.589   2.260   2.352
   53c3c     C2  108   3.546   2.036   2.442
   53c3c     C2  109   3.478   2.162   2.387
   53c3c     C1  110   3.794   2.277   2.472
   53c3c     C1  111   3.796   2.183   2.253
   53c3c     H1  112   3.740   2.053   2.537
   53c3c     H1  113   3.746   1.982   2.383
   53c3c     H1  114   3.577   2.354   2.407
   53c3c     H1  115   3.578   2.293   2.248
   53c3c     HC  116   3.515   2.017   2.544
   53c3c     HC  117   3.520   1.949   2.382
   53c3c     HC  118   3.412   2.206   2.462
   53c3c     HC  119   3.417   2.138   2.300
   53c3c     H1  120   3.891   2.233   2.496
   53c3c     H1  121   3.812   2.377   2.433
   53c3c     H1  122   3.739   2.288   2.566
   53c3c     H1  123   3.816   2.282   2.211
   53c3c     H1  124   3.894   2.139   2.273
   53c3c     C2  125   3.722   2.097   2.147
   53c3c     HC  126   3.625   2.138   2.120
   53c3c     HC  127   3.702   1.996   2.182
   53c3c     CT  128   3.803   2.086   2.020
   53c3c     HC  129   3.899   2.039   2.040
   53c3c     HC  130   3.820   2.185   1.977
   53c3c     HC  131   3.749   2.026   1.948
   54c3c     N4  132   2.683   3.191   3.293
   54c3c     C1  133   2.615   3.143   3.171
   54c3c     C1  134   2.755   3.316   3.265
   54c3c     C2  135   2.652   3.237   3.057
   54c3c     C2  136   2.740   3.347   3.116
   54c3c     C1  137   2.582   3.217   3.396
   54c3c     C1  138   2.777   3.088   3.343
   54c3c     H1  139   2.507   3.139   3.183
   54c3c     H1  140   2.640   3.040   3.145
   54c3c     H1  141   2.718   3.400   3.324
   54c3c     H1  142   2.861   3.313   3.292
   54c3c     HC  143   2.561   3.280   3.014
   54c3c     HC  144   2.703   3.184   2.977
   54c3c     HC  145   2.695   3.445   3.102
   54c3c     HC  146   2.837   3.349   3.066
   54c3c     H1  147   2.525   3.128   3.421
   54c3c     H1  148   2.627   3.254   3.488
   54c3c     H1  149   2.512   3.293   3.362
   54c3c     H1  150   2.823   3.123   3.435
   54c3c     H1  151   2.722   2.998   3.369
   54c3c     C2  152   2.887   3.055   3.239
   54c3c     HC  153   2.946   3.142   3.212
   54c3c     HC  154   2.846   3.018   3.145
   54c3c     CT  155   2.982   2.949   3.292
   54c3c     HC  156   2.927   2.858   3.314
   54c3c     HC  157   3.030   2.985   3.383
   54c3c     HC  158   3.058   2.929   3.217
   55c3c     N4  159   3.035   4.420   1.065
   55c3c     C1  160   2.940   4.529   1.091
   55c3c     C1  161   3.145   4.425   1.163
   55c3c     C2  162   2.995   4.614   1.205
   55c3c     C2  163   3.125   4.549   1.251
   55c3c     C1  164   2.966   4.292   1.080
   55c3c     C1  165   3.088   4.430   0.928
   55c3c     H1  166   2.840   4.492   1.116
   55c3c     H1  167   2.920   4.591   1.004
   55c3c     H1  168   3.151   4.336   1.225
   55c3c     H1  169   3.244   4.428   1.117
   55c3c     HC  170   2.922   4.618   1.287
   55c3c     HC  171   3.012   4.716   1.173
   55c3c     HC  172   3.119   4.519   1.355
   55c3c     HC  173   3.208   4.618   1.241
   55c3c     H1  174   2.882   4.283   1.011
   55c3c     H1  175   3.032   4.207   1.063
   55c3c     H1  176   2.925   4.282   1.181
   55c3c     H1  177   3.155   4.346   0.908
   55c3c     H1  178   3.007   4.421   0.856
   55c3c     C2  179   3.164   4.563   0.904
   55c3c     HC  180   3.248   4.575   0.972
   55c3c     HC  181   3.100   4.650   0.920
   55c3c     CT  182   3.217   4.571   0.763
   55c3c     HC  183   3.135   4.565   0.691
   55c3c     HC  184   3.286   4.489   0.744
   55c3c     HC  185   3.269   4.665   0.749
   56c3c     N4  186   3.777   2.843   2.848
   56c3c     C1  187   3.877   2.754   2.785
   56c3c     C1  188   3.749   2.798   2.985
   56c3c     C2  189   3.907   2.641   2.883
   56c3c     C2  190   3.826   2.668   3.009
   56c3c     C1  191   3.833   2.978   2.854
   56c3c     C1  192   3.654   2.846   2.768
   56c3c     H1  193   3.968   2.806   2.758
   56c3c     H1  194   3.844   2.714   2.689
   56c3c     H1  195   3.775   2.872   3.060
   56c3c     H1  196   3.642   2.782   3.004
   56c3c     HC  197   4.014   2.639   2.905
   56c3c     HC  198   3.881   2.544   2.840
   56c3c     HC  199   3.891   2.680   3.096
   56c3c     HC  200   3.758   2.586   3.031
   56c3c     H1  201   3.858   3.017   2.755
   56c3c     H1  202   3.764   3.049   2.901
   56c3c     H1  203   3.925   2.980   2.913
   56c3c     H1  204   3.583   2.916   2.811
   56c3c     H1  205   3.675   2.884   2.668
   56c3c     C2  206   3.588   2.706   2.756
   56c3c     HC  207   3.563   2.664   2.854
   56c3c     HC  208   3.655   2.633   2.710
   56c3c     CT  209   3.462   2.711   2.674
   56c3c     HC  210   3.484   2.746   2.573
   56c3c     HC  211   3.390   2.779   2.720
   56c3c     HC  212   3.418   2.611   2.668
   57c3c     N4  213   3.981   0.638   3.037
   57c3c     C1  214   3.839   0.678   3.030
   57c3c     C1  215   3.998   0.530   3.136
   57c3c     C2  216   3.762   0.597   3.135
   57c3c     C2  217   3.862   0.504   3.202
   57c3c     C1  218   4.023   0.589   2.906
   57c3c     C1  219   4.064   0.754   3.074
   57c3c     H1  220   3.797   0.661   2.931
   57c3c     H1  221   3.824   0.785   3.044
   57c3c     H1  222   4.036   0.438   3.092
   57c3c     H1  223   4.073   0.552   3.212
   57c3c     HC  224   3.682   0.541   3.086
   57c3c     HC  225   3.715   0.664   3.208
   57c3c     HC  226   3.833   0.400   3.188
   57c3c     HC  227   3.866   0.523   3.309
   57c3c     H1  228   4.012   0.664   2.828
   57c3c     H1  229   4.127   0.557   2.906
   57c3c     H1  230   3.963   0.503   2.876
   57c3c     H1  231   4.169   0.725   3.074
   57c3c     H1  232   4.056   0.831   2.997
   57c3c     C2  233   4.026   0.813   3.212
   57c3c     HC  234   4.036   0.739   3.292
   57c3c     HC  235   3.922   0.845   3.215
   57c3c     CT  236   4.113   0.931   3.247
   57c3c     HC  237   4.101   1.010   3.173
   57c3c     HC  238   4.218   0.901   3.251
   57c3c     HC  239   4.084   0.970   3.345
   58c3c     N4  240   3.144   2.175   3.313
   58c3c     C1  241   3.130   2.315   3.270
   58c3c     C1  242   3.278   2.125   3.278
   58c3c     C2  243   3.258   2.355   3.197
   58c3c     C2  244   3.351   2.235   3.202
   58c3c     C1  245   3.128   2.168   3.459
   58c3c     C1  246   3.040   2.092   3.250
   58c3c     H1  247   3.112   2.383   3.354
   58c3c     H1  248   3.043   2.333   3.207
   58c3c     H1  249   3.336   2.095   3.366
   58c3c     H1  250   3.276   2.033   3.219
   58c3c     HC  251   3.303   2.442   3.245
   58c3c     HC  252   3.236   2.383   3.094
   58c3c     HC  253   3.444   2.260   3.253
   58c3c     HC  254   3.377   2.202   3.101
   58c3c     H1  255   3.030   2.206   3.490
   58c3c     H1  256   3.138   2.067   3.496
   58c3c     H1  257   3.203   2.229   3.508
   58c3c     H1  258   3.048   1.989   3.286
   58c3c     H1  259   2.941   2.126   3.280
   58c3c     C2  260   3.050   2.093   3.095
   58c3c     HC  261   3.147   2.057   3.060
   58c3c     HC  262   3.041   2.193   3.054
   58c3c     CT  263   2.943   2.007   3.032
   58c3c     HC  264   2.844   2.044   3.060
   58c3c     HC  265   2.953   1.904   3.066
   58c3c     HC  266   2.953   2.010   2.924
   59c3c     N4  267   0.713   1.113   4.791
   59c3c     C1  268   0.691   1.182   4.663
   59c3c     C1  269   0.773   0.980   4.767
   59c3c     C2  270   0.730   1.087   4.550
   59c3c     C2  271   0.781   0.959   4.615
   59c3c     C1  272   0.807   1.192   4.872
   59c3c     C1  273   0.587   1.099   4.865
   59c3c     H1  274   0.748   1.275   4.655
   59c3c     H1  275   0.589   1.217   4.650
   59c3c     H1  276   0.871   0.969   4.812
   59c3c     H1  277   0.717   0.899   4.813
   59c3c     HC  278   0.807   1.133   4.488
   59c3c     HC  279   0.644   1.066   4.486
   59c3c     HC  280   0.885   0.940   4.587
   59c3c     HC  281   0.722   0.873   4.584
   59c3c     H1  282   0.768   1.292   4.892
   59c3c     H1  283   0.828   1.144   4.968
   59c3c     H1  284   0.902   1.204   4.820
   59c3c     H1  285   0.604   1.052   4.961
   59c3c     H1  286   0.546   1.198   4.887
   59c3c     C2  287   0.482   1.017   4.786
   59c3c     HC  288   0.517   0.916   4.763
   59c3c     HC  289   0.459   1.061   4.689
   59c3c     CT  290   0.353   1.004   4.863
   59c3c     HC  291   0.311   1.103   4.882
   59c3c     HC  292   0.371   0.954   4.958
   59c3c     HC  293   0.282   0.945   4.805
   60c3c     N4  294   3.904   4.246   5.275
   60c3c     C1  295   3.986   4.259   5.397
   60c3c     C1  296   3.909   4.371   5.198
   60c3c     C2  297   4.039   4.402   5.403
   60c3c     C2  298   3.990   4.473   5.277
   60c3c     C1  299   3.959   4.138   5.193
   60c3c     C1  300   3.765   4.213   5.310
   60c3c     H1  301   4.068   4.188   5.399
   60c3c     H1  302   3.931   4.235   5.488
   60c3c     H1  303   3.952   4.357   5.098
   60c3c     H1  304   3.810   4.412   5.174
   60c3c     HC  305   4.148   4.401   5.407
   60c3c     HC  306   4.003   4.454   5.492
   60c3c     HC  307   4.074   4.508   5.217
   60c3c     HC  308   3.930   4.561   5.302
   60c3c     H1  309   3.959   4.042   5.245
   60c3c     H1  310   3.903   4.125   5.100
   60c3c     H1  311   4.062   4.159   5.165
   60c3c     H1  312   3.706   4.199   5.219
   60c3c     H1  313   3.761   4.118   5.363
   60c3c     C2  314   3.699   4.323   5.397
   60c3c     HC  315   3.697   4.420   5.347
   60c3c     HC  316   3.753   4.340   5.490
   60c3c     CT  317   3.556   4.287   5.432
   60c3c     HC  318   3.554   4.194   5.488
   60c3c     HC  319   3.497   4.276   5.341
   60c3c     HC  320   3.513   4.367   5.493
   61c3c     N4  321   2.414   0.881   3.672
   61c3c     C1  322   2.294   0.882   3.585
   61c3c     C1  323   2.477   0.748   3.668
   61c3c     C2  324   2.275   0.740   3.530
   61c3c     C2  325   2.390   0.656   3.582
   61c3c     C1  326   2.509   0.980   3.621
   61c3c     C1  327   2.377   0.916   3.810
   61c3c     H1  328   2.301   0.953   3.504
   61c3c     H1  329   2.204   0.914   3.637
   61c3c     H1  330   2.579   0.751   3.629
   61c3c     H1  331   2.491   0.704   3.767
   61c3c     HC  332   2.274   0.743   3.421
   61c3c     HC  333   2.179   0.699   3.562
   61c3c     HC  334   2.449   0.615   3.500
   61c3c     HC  335   2.354   0.572   3.640
   61c3c     H1  336   2.466   1.080   3.621
   61c3c     H1  337   2.600   0.982   3.681
   61c3c     H1  338   2.537   0.956   3.519
   61c3c     H1  339   2.466   0.920   3.872
   61c3c     H1  340   2.334   1.016   3.813
   61c3c     C2  341   2.276   0.816   3.871
   61c3c     HC  342   2.315   0.714   3.873
   61c3c     HC  343   2.184   0.810   3.814
   61c3c     CT  344   2.240   0.854   4.013
   61c3c     HC  345   2.194   0.953   4.014
   61c3c     HC  346   2.329   0.854   4.075
   61c3c     HC  347   2.169   0.781   4.052
   62c3c     N4  348   0.876   1.587   1.402
   62c3c     C1  349   0.755   1.650   1.346
   62c3c     C1  350   0.857   1.441   1.411
   62c3c     C2  351   0.650   1.541   1.326
   62c3c     C2  352   0.714   1.409   1.367
   62c3c     C1  353   0.989   1.614   1.312
   62c3c     C1  354   0.906   1.643   1.535
   62c3c     H1  355   0.775   1.702   1.252
   62c3c     H1  356   0.716   1.730   1.409
   62c3c     H1  357   0.929   1.386   1.349
   62c3c     H1  358   0.876   1.401   1.510
   62c3c     HC  359   0.619   1.539   1.221
   62c3c     HC  360   0.561   1.561   1.386
   62c3c     HC  361   0.716   1.339   1.283
   62c3c     HC  362   0.658   1.362   1.448
   62c3c     H1  363   1.006   1.721   1.301
   62c3c     H1  364   1.081   1.569   1.348
   62c3c     H1  365   0.970   1.575   1.213
   62c3c     H1  366   0.999   1.600   1.573
   62c3c     H1  367   0.925   1.750   1.527
   62c3c     C2  368   0.792   1.618   1.636
   62c3c     HC  369   0.771   1.512   1.649
   62c3c     HC  370   0.697   1.662   1.603
   62c3c     CT  371   0.825   1.676   1.772
   62c3c     HC  372   0.840   1.783   1.764
   62c3c     HC  373   0.915   1.630   1.811
   62c3c     HC  374   0.742   1.657   1.840
   63c3c     N4  375   2.411   0.345   2.133
   63c3c     C1  376   2.315   0.248   2.078
   63c3c     C1  377   2.355   0.405   2.257
   63c3c     C2  378   2.188   0.251   2.163
   63c3c     C2  379   2.214   0.350   2.276
   63c3c     C1  380   2.535   0.275   2.167
   63c3c     C1  381   2.441   0.450   2.035
   63c3c     H1  382   2.356   0.147   2.074
   63c3c     H1  383   2.291   0.267   1.973
   63c3c     H1  384   2.416   0.383   2.344
   63c3c     H1  385   2.353   0.514   2.254
   63c3c     HC  386   2.168   0.151   2.203
   63c3c     HC  387   2.102   0.281   2.104
   63c3c     HC  388   2.206   0.301   2.373
   63c3c     HC  389   2.140   0.430   2.275
   63c3c     H1  390   2.580   0.228   2.080
   63c3c     H1  391   2.609   0.342   2.210
   63c3c     H1  392   2.516   0.196   2.240
   63c3c     H1  393   2.515   0.519   2.074
   63c3c     H1  394   2.486   0.406   1.946
   63c3c     C2  395   2.314   0.529   1.994
   63c3c     HC  396   2.266   0.578   2.079
   63c3c     HC  397   2.238   0.465   1.950
   63c3c     CT  398   2.347   0.637   1.893
   63c3c     HC  399   2.389   0.592   1.803
   63c3c     HC  400   2.419   0.707   1.934
   63c3c     HC  401   2.256   0.690   1.866
   64c3c     N4  402   2.369   0.599   2.708
   64c3c     C1  403   2.222   0.600   2.708
   64c3c     C1  404   2.419   0.460   2.711
   64c3c     C2  405   2.174   0.455   2.720
   64c3c     C2  406   2.298   0.367   2.723
   64c3c     C1  407   2.417   0.663   2.585
   64c3c     C1  408   2.421   0.675   2.824
   64c3c     H1  409   2.180   0.645   2.618
   64c3c     H1  410   2.178   0.660   2.787
   64c3c     H1  411   2.478   0.434   2.624
   64c3c     H1  412   2.488   0.441   2.793
   64c3c     HC  413   2.109   0.430   2.636
   64c3c     HC  414   2.114   0.442   2.811
   64c3c     HC  415   2.298   0.297   2.639
   64c3c     HC  416   2.302   0.309   2.815
   64c3c     H1  417   2.382   0.766   2.576
   64c3c     H1  418   2.526   0.664   2.579
   64c3c     H1  419   2.380   0.609   2.498
   64c3c     H1  420   2.530   0.677   2.820
   64c3c     H1  421   2.387   0.778   2.818
   64c3c     C2  422   2.375   0.614   2.958
   64c3c     HC  423   2.407   0.510   2.970
   64c3c     HC  424   2.266   0.610   2.968
   64c3c     CT  425   2.429   0.693   3.076
   64c3c     HC  426   2.392   0.795   3.071
   64c3c     HC  427   2.538   0.692   3.074
   64c3c     HC  428   2.395   0.646   3.168
   65c3c     N4  429   4.675   1.134   3.286
   65c3c     C1  430   4.660   1.215   3.408
   65c3c     C1  431   4.552   1.055   3.264
   65c3c     C2  432   4.526   1.181   3.472
   65c3c     C2  433   4.458   1.080   3.381
   65c3c     C1  434   4.694   1.223   3.172
   65c3c     C1  435   4.792   1.045   3.298
   65c3c     H1  436   4.667   1.322   3.387
   65c3c     H1  437   4.741   1.201   3.479
   65c3c     H1  438   4.504   1.079   3.170
   65c3c     H1  439   4.572   0.948   3.253
   65c3c     HC  440   4.466   1.272   3.482
   65c3c     HC  441   4.540   1.141   3.572
   65c3c     HC  442   4.363   1.118   3.344
   65c3c     HC  443   4.437   0.987   3.435
   65c3c     H1  444   4.783   1.285   3.183
   65c3c     H1  445   4.705   1.168   3.078
   65c3c     H1  446   4.609   1.290   3.160
   65c3c     H1  447   4.805   0.988   3.206
   65c3c     H1  448   4.883   1.104   3.309
   65c3c     C2  449   4.779   0.947   3.417
   65c3c     HC  450   4.691   0.883   3.409
   65c3c     HC  451   4.768   0.998   3.512
   65c3c     CT  452   4.900   0.856   3.427
   65c3c     HC  453   4.990   0.916   3.442
   65c3c     HC  454   4.910   0.798   3.336
   65c3c     HC  455   4.887   0.789   3.512
   66c3c     N4  456   5.277   3.888   3.517
   66c3c     C1  457   5.390   3.880   3.422
   66c3c     C1  458   5.198   3.764   3.511
   66c3c     C2  459   5.378   3.748   3.345
   66c3c     C2  460   5.257   3.675   3.401
   66c3c     C1  461   5.330   3.903   3.652
   66c3c     C1  462   5.192   4.004   3.485
   66c3c     H1  463   5.487   3.886   3.472
   66c3c     H1  464   5.394   3.964   3.353
   66c3c     H1  465   5.196   3.711   3.606
   66c3c     H1  466   5.092   3.782   3.492
   66c3c     HC  467   5.469   3.689   3.359
   66c3c     HC  468   5.367   3.767   3.238
   66c3c     HC  469   5.286   3.579   3.443
   66c3c     HC  470   5.184   3.656   3.322
   66c3c     H1  471   5.391   3.993   3.663
   66c3c     H1  472   5.251   3.909   3.727
   66c3c     H1  473   5.394   3.818   3.679
   66c3c     H1  474   5.112   4.013   3.559
   66c3c     H1  475   5.251   4.096   3.495
   66c3c     C2  476   5.132   3.996   3.343
   66c3c     HC  477   5.071   3.907   3.329
   66c3c     HC  478   5.209   3.990   3.266
   66c3c     CT  479   5.046   4.116   3.313
   66c3c     HC  480   5.105   4.208   3.320
   66c3c     HC  481   4.963   4.122   3.385
   66c3c     HC  482   5.005   4.107   3.213
   67c3c     N4  483   2.717   2.839   2.690
   67c3c     C1  484   2.819   2.839   2.797
   67c3c     C1  485   2.775   2.782   2.567
   67c3c     C2  486   2.951   2.788   2.738
   67c3c     C2  487   2.923   2.752   2.592
   67c3c     C1  488   2.605   2.756   2.732
   67c3c     C1  489   2.670   2.976   2.666
   67c3c     H1  490   2.789   2.778   2.883
   67c3c     H1  491   2.834   2.937   2.842
   67c3c     H1  492   2.722   2.693   2.533
   67c3c     H1  493   2.764   2.848   2.481
   67c3c     HC  494   2.985   2.700   2.794
   67c3c     HC  495   3.029   2.864   2.745
   67c3c     HC  496   2.942   2.646   2.573
   67c3c     HC  497   2.986   2.810   2.525
   67c3c     H1  498   2.558   2.793   2.824
   67c3c     H1  499   2.527   2.752   2.656
   67c3c     H1  500   2.637   2.653   2.751
   67c3c     H1  501   2.591   2.975   2.590
   67c3c     H1  502   2.622   3.016   2.756
   67c3c     C2  503   2.783   3.071   2.621
   67c3c     HC  504   2.831   3.037   2.529
   67c3c     HC  505   2.864   3.078   2.694
   67c3c     CT  506   2.732   3.211   2.597
   67c3c     HC  507   2.688   3.251   2.688
   67c3c     HC  508   2.656   3.209   2.519
   67c3c     HC  509   2.814   3.275   2.565
   68c3c     N4  510   3.412   1.578   3.604
   68c3c     C1  511   3.551   1.580   3.554
   68c3c     C1  512   3.318   1.577   3.490
   68c3c     C2  513   3.547   1.588   3.401
   68c3c     C2  514   3.400   1.587   3.361
   68c3c     C1  515   3.392   1.457   3.683
   68c3c     C1  516   3.388   1.695   3.689
   68c3c     H1  517   3.607   1.492   3.585
   68c3c     H1  518   3.610   1.662   3.594
   68c3c     H1  519   3.256   1.488   3.489
   68c3c     H1  520   3.245   1.657   3.495
   68c3c     HC  521   3.600   1.504   3.357
   68c3c     HC  522   3.596   1.679   3.366
   68c3c     HC  523   3.378   1.501   3.297
   68c3c     HC  524   3.374   1.677   3.305
   68c3c     H1  525   3.459   1.452   3.768
   68c3c     H1  526   3.290   1.450   3.722
   68c3c     H1  527   3.408   1.368   3.622
   68c3c     H1  528   3.287   1.692   3.730
   68c3c     H1  529   3.454   1.693   3.776
   68c3c     C2  530   3.407   1.829   3.613
   68c3c     HC  531   3.341   1.837   3.527
   68c3c     HC  532   3.508   1.839   3.573
   68c3c     CT  533   3.381   1.948   3.703
   68c3c     HC  534   3.450   1.947   3.787
   68c3c     HC  535   3.279   1.945   3.740
   68c3c     HC  536   3.396   2.040   3.646
   69c3c     N4  537   1.604   1.014   4.449
   69c3c     C1  538   1.573   0.870   4.460
   69c3c     C1  539   1.533   1.071   4.333
   69c3c     C2  540   1.485   0.830   4.342
   69c3c     C2  541   1.459   0.957   4.261
   69c3c     C1  542   1.558   1.081   4.570
   69c3c     C1  543   1.749   1.034   4.434
   69c3c     H1  544   1.524   0.845   4.554
   69c3c     H1  545   1.662   0.807   4.463
   69c3c     H1  546   1.462   1.149   4.361
   69c3c     H1  547   1.598   1.123   4.263
   69c3c     HC  548   1.392   0.787   4.378
   69c3c     HC  549   1.534   0.755   4.281
   69c3c     HC  550   1.353   0.979   4.257
   69c3c     HC  551   1.495   0.946   4.159
   69c3c     H1  552   1.607   1.042   4.659
   69c3c     H1  553   1.577   1.189   4.566
   69c3c     H1  554   1.451   1.068   4.583
   69c3c     H1  555   1.771   1.141   4.430
   69c3c     H1  556   1.801   0.996   4.522
   69c3c     C2  557   1.806   0.965   4.307
   69c3c     HC  558   1.759   1.002   4.216
   69c3c     HC  559   1.788   0.858   4.307
   69c3c     CT  560   1.954   0.988   4.295
   69c3c     HC  561   2.006   0.946   4.381
   69c3c     HC  562   1.976   1.094   4.287
   69c3c     HC  563   1.990   0.938   4.204
   70c3c     N4  564   4.340   0.531   1.751
   70c3c     C1  565   4.194   0.553   1.761
   70c3c     C1  566   4.411   0.654   1.790
   70c3c     C2  567   4.170   0.700   1.798
   70c3c     C2  568   4.308   0.764   1.816
   70c3c     C1  569   4.377   0.425   1.845
   70c3c     C1  570   4.376   0.491   1.615
   70c3c     H1  571   4.146   0.488   1.834
   70c3c     H1  572   4.141   0.529   1.669
   70c3c     H1  573   4.474   0.641   1.877
   70c3c     H1  574   4.482   0.688   1.714
   70c3c     HC  575   4.112   0.706   1.890
   70c3c     HC  576   4.114   0.751   1.721
   70c3c     HC  577   4.319   0.802   1.918
   70c3c     HC  578   4.321   0.848   1.748
   70c3c     H1  579   4.325   0.331   1.822
   70c3c     H1  580   4.484   0.405   1.843
   70c3c     H1  581   4.350   0.453   1.947
   70c3c     H1  582   4.483   0.469   1.610
   70c3c     H1  583   4.326   0.397   1.590
   70c3c     C2  584   4.340   0.598   1.510
   70c3c     HC  585   4.389   0.694   1.530
   70c3c     HC  586   4.233   0.621   1.509
   70c3c     CT  587   4.378   0.555   1.371
   70c3c     HC  588   4.326   0.463   1.344
   70c3c     HC  589   4.486   0.537   1.365
   70c3c     HC  590   4.351   0.633   1.300
   71c3c     N4  591   4.686   4.069   0.869
   71c3c     C1  592   4.673   4.095   1.013
   71c3c     C1  593   4.827   4.037   0.837
   71c3c     C2  594   4.812   4.088   1.076
   71c3c     C2  595   4.909   4.051   0.965
   71c3c     C1  596   4.603   3.953   0.834
   71c3c     C1  597   4.641   4.185   0.791
   71c3c     H1  598   4.606   4.024   1.062
   71c3c     H1  599   4.626   4.191   1.035
   71c3c     H1  600   4.839   3.936   0.796
   71c3c     H1  601   4.868   4.099   0.758
   71c3c     HC  602   4.813   4.013   1.155
   71c3c     HC  603   4.839   4.183   1.121
   71c3c     HC  604   4.960   3.957   0.987
   71c3c     HC  605   4.986   4.128   0.953
   71c3c     H1  606   4.498   3.970   0.857
   71c3c     H1  607   4.610   3.928   0.728
   71c3c     H1  608   4.634   3.865   0.890
   71c3c     H1  609   4.647   4.163   0.685
   71c3c     H1  610   4.536   4.205   0.811
   71c3c     C2  611   4.725   4.312   0.822
   71c3c     HC  612   4.831   4.298   0.801
   71c3c     HC  613   4.720   4.339   0.927
   71c3c     CT  614   4.677   4.430   0.741
   71c3c     HC  615   4.573   4.452   0.765
   71c3c     HC  616   4.686   4.409   0.635
   71c3c     HC  617   4.738   4.517   0.766
   72c3c     N4  618   2.274   4.731   2.355
   72c3c     C1  619   2.158   4.683   2.432
   72c3c     C1  620   2.399   4.693   2.423
   72c3c     C2  621   2.210   4.618   2.561
   72c3c     C2  622   2.362   4.624   2.555
   72c3c     C1  623   2.272   4.668   2.223
   72c3c     C1  624   2.267   4.877   2.338
   72c3c     H1  625   2.097   4.612   2.376
   72c3c     H1  626   2.086   4.762   2.456
   72c3c     H1  627   2.461   4.627   2.363
   72c3c     H1  628   2.465   4.777   2.441
   72c3c     HC  629   2.175   4.515   2.567
   72c3c     HC  630   2.172   4.671   2.648
   72c3c     HC  631   2.405   4.524   2.558
   72c3c     HC  632   2.402   4.680   2.640
   72c3c     H1  633   2.180   4.692   2.168
   72c3c     H1  634   2.356   4.699   2.162
   72c3c     H1  635   2.276   4.559   2.232
   72c3c     H1  636   2.351   4.911   2.277
   72c3c     H1  637   2.177   4.904   2.283
   72c3c     C2  638   2.269   4.952   2.474
   72c3c     HC  639   2.359   4.929   2.532
   72c3c     HC  640   2.186   4.923   2.538
   72c3c     CT  641   2.263   5.101   2.455
   72c3c     HC  642   2.171   5.128   2.403
   72c3c     HC  643   2.348   5.135   2.396
   72c3c     HC  644   2.264   5.150   2.552
   73c3c     N4  645   4.817   3.389   3.300
   73c3c     C1  646   4.676   3.403   3.257
   73c3c     C1  647   4.887   3.517   3.283
   73c3c     C2  648   4.657   3.545   3.203
   73c3c     C2  649   4.791   3.617   3.219
   73c3c     C1  650   4.819   3.352   3.441
   73c3c     C1  651   4.883   3.283   3.221
   73c3c     H1  652   4.606   3.385   3.339
   73c3c     H1  653   4.646   3.330   3.183
   73c3c     H1  654   4.925   3.557   3.377
   73c3c     H1  655   4.978   3.509   3.223
   73c3c     HC  656   4.578   3.596   3.258
   73c3c     HC  657   4.627   3.542   3.098
   73c3c     HC  658   4.780   3.704   3.283
   73c3c     HC  659   4.828   3.651   3.122
   73c3c     H1  660   4.767   3.258   3.460
   73c3c     H1  661   4.921   3.341   3.478
   73c3c     H1  662   4.771   3.429   3.502
   73c3c     H1  663   4.985   3.270   3.256
   73c3c     H1  664   4.834   3.188   3.238
   73c3c     C2  665   4.884   3.315   3.070
   73c3c     HC  666   4.936   3.408   3.047
   73c3c     HC  667   4.784   3.327   3.029
   73c3c     CT  668   4.953   3.205   2.992
   73c3c     HC  669   4.901   3.111   3.006
   73c3c     HC  670   5.056   3.195   3.024
   73c3c     HC  671   4.952   3.231   2.886
   74c3c     N4  672   4.846   2.792   4.083
   74c3c     C1  673   4.956   2.816   3.989
   74c3c     C1  674   4.900   2.749   4.214
   74c3c     C2  675   5.087   2.778   4.058
   74c3c     C2  676   5.052   2.736   4.200
   74c3c     C1  677   4.773   2.917   4.103
   74c3c     C1  678   4.754   2.690   4.030
   74c3c     H1  679   4.961   2.919   3.954
   74c3c     H1  680   4.947   2.759   3.896
   74c3c     H1  681   4.875   2.817   4.295
   74c3c     H1  682   4.858   2.655   4.249
   74c3c     HC  683   5.155   2.863   4.058
   74c3c     HC  684   5.138   2.697   4.005
   74c3c     HC  685   5.101   2.799   4.273
   74c3c     HC  686   5.084   2.633   4.219
   74c3c     H1  687   4.731   2.955   4.009
   74c3c     H1  688   4.691   2.906   4.173
   74c3c     H1  689   4.839   2.994   4.143
   74c3c     H1  690   4.670   2.677   4.099
   74c3c     H1  691   4.710   2.725   3.936
   74c3c     C2  692   4.824   2.554   4.007
   74c3c     HC  693   4.867   2.514   4.099
   74c3c     HC  694   4.907   2.562   3.938
   74c3c     CT  695   4.727   2.452   3.953
   74c3c     HC  696   4.687   2.485   3.857
   74c3c     HC  697   4.646   2.436   4.023
   74c3c     HC  698   4.780   2.357   3.938
   75c3c     N4  699   4.076   1.426   0.822
   75c3c     C1  700   4.102   1.531   0.721
   75c3c     C1  701   3.935   1.433   0.865
   75c3c     C2  702   3.975   1.614   0.704
   75c3c     C2  703   3.869   1.552   0.795
   75c3c     C1  704   4.100   1.295   0.761
   75c3c     C1  705   4.165   1.443   0.937
   75c3c     H1  706   4.132   1.489   0.625
   75c3c     H1  707   4.186   1.595   0.746
   75c3c     H1  708   3.880   1.341   0.843
   75c3c     H1  709   3.924   1.441   0.973
   75c3c     HC  710   3.942   1.612   0.600
   75c3c     HC  711   3.992   1.718   0.731
   75c3c     HC  712   3.783   1.518   0.738
   75c3c     HC  713   3.833   1.625   0.868
   75c3c     H1  714   4.203   1.286   0.726
   75c3c     H1  715   4.081   1.214   0.831
   75c3c     H1  716   4.035   1.280   0.675
   75c3c     H1  717   4.149   1.363   1.009
   75c3c     H1  718   4.269   1.433   0.905
   75c3c     C2  719   4.146   1.580   1.007
   75c3c     HC  720   4.044   1.594   1.043
   75c3c     HC  721   4.163   1.664   0.940
   75c3c     CT  722   4.239   1.595   1.125
   75c3c     HC  723   4.342   1.589   1.092
   75c3c     HC  724   4.220   1.517   1.198
   75c3c     HC  725   4.222   1.692   1.172
   76fsi    FSI  726   2.818   1.213   1.598
   76fsi    SBT  727   2.666   1.173   1.611
   76fsi    NBT  728   2.649   1.072   1.493
   76fsi    OBT  729   2.654   1.116   1.742
   76fsi    OBT  730   2.596   1.296   1.588
   76fsi    SBT  731   2.690   0.922   1.501
   76fsi    OBT  732   2.781   0.891   1.607
   76fsi    OBT  733   2.717   0.866   1.371
   76fsi    FSI  734   2.554   0.855   1.544
   77fsi    FSI  735   1.626   2.613   2.014
   77fsi    SBT  736   1.500   2.676   1.944
   77fsi    NBT  737   1.455   2.780   2.051
   77fsi    OBT  738   1.551   2.732   1.822
   77fsi    OBT  739   1.409   2.565   1.932
   77fsi    SBT  740   1.516   2.923   2.065
   77fsi    OBT  741   1.646   2.937   2.005
   77fsi    OBT  742   1.499   2.977   2.198
   77fsi    FSI  743   1.420   3.008   1.975
   78fsi    FSI  744   4.522   1.183   1.901
   78fsi    SBT  745   4.615   1.056   1.899
   78fsi    NBT  746   4.738   1.107   1.981
   78fsi    OBT  747   4.539   0.953   1.963
   78fsi    OBT  748   4.646   1.036   1.760
   78fsi    SBT  749   4.745   1.109   2.137
   78fsi    OBT  750   4.616   1.104   2.201
   78fsi    OBT  751   4.839   1.206   2.187
   78fsi    FSI  752   4.811   0.970   2.167
   79fsi    FSI  753   2.577   3.019   2.093
   79fsi    SBT  754   2.480   2.919   2.017
   79fsi    NBT  755   2.582   2.813   1.967
   79fsi    OBT  756   2.391   2.873   2.120
   79fsi    OBT  757   2.426   2.999   1.911
   79fsi    SBT  758   2.634   2.694   2.053
   79fsi    OBT  759   2.622   2.712   2.196
   79fsi    OBT  760   2.760   2.643   2.007
   79fsi    FSI  761   2.530   2.580   2.018
   80fsi    FSI  762   2.891   1.552   0.494
   80fsi    SBT  763   2.795   1.659   0.558
   80fsi    NBT  764   2.662   1.628   0.482
   80fsi    OBT  765   2.790   1.628   0.698
   80fsi    OBT  766   2.852   1.785   0.519
   80fsi    SBT  767   2.562   1.516   0.523
   80fsi    OBT  768   2.616   1.414   0.609
   80fsi    OBT  769   2.479   1.472   0.414
   80fsi    FSI  770   2.464   1.594   0.617
   81fsi    FSI  771   0.894   0.436   2.546
   81fsi    SBT  772   0.853   0.532   2.665
   81fsi    NBT  773   0.952   0.651   2.643
   81fsi    OBT  774   0.715   0.562   2.641
   81fsi    OBT  775   0.885   0.455   2.782
   81fsi    SBT  776   0.926   0.767   2.542
   81fsi    OBT  777   0.832   0.737   2.438
   81fsi    OBT  778   1.048   0.833   2.502
   81fsi    FSI  779   0.854   0.873   2.633
   82fsi    FSI  780   3.857   1.279   2.967
   82fsi    SBT  781   3.835   1.362   3.099
   82fsi    NBT  782   3.962   1.327   3.183
   82fsi    OBT  783   3.827   1.500   3.058
   82fsi    OBT  784   3.717   1.307   3.159
   82fsi    SBT  785   4.101   1.395   3.162
   82fsi    OBT  786   4.116   1.464   3.037
   82fsi    OBT  787   4.209   1.312   3.208
   82fsi    FSI  788   4.093   1.510   3.269
   83fsi    FSI  789   3.974   1.158   1.165
   83fsi    SBT  790   4.025   1.008   1.168
   83fsi    NBT  791   4.147   1.016   1.073
   83fsi    OBT  792   4.058   0.984   1.306
   83fsi    OBT  793   3.917   0.932   1.112
   83fsi    SBT  794   4.289   1.064   1.116
   83fsi    OBT  795   4.291   1.144   1.236
   83fsi    OBT  796   4.367   1.112   1.005
   83fsi    FSI  797   4.358   0.928   1.157
   84fsi    FSI  798   1.950   4.632   4.770
   84fsi    SBT  799   1.999   4.508   4.855
   84fsi    NBT  800   2.151   4.540   4.871
   84fsi    OBT  801   1.924   4.514   4.977
   84fsi    OBT  802   1.976   4.395   4.769
   84fsi    SBT  803   2.209   4.637   4.979
   84fsi    OBT  804   2.113   4.728   5.035
   84fsi    OBT  805   2.336   4.691   4.941
   84fsi    FSI  806   2.242   4.537   5.096
   85fsi    FSI  807   4.271   3.588   5.022
   85fsi    SBT  808   4.240   3.741   5.046
   85fsi    NBT  809   4.324   3.807   4.932
   85fsi    OBT  810   4.098   3.752   5.032
   85fsi    OBT  811   4.294   3.767   5.177
   85fsi    SBT  812   4.276   3.821   4.784
   85fsi    OBT  813   4.171   3.729   4.749
   85fsi    OBT  814   4.386   3.833   4.693
   85fsi    FSI  815   4.209   3.963   4.786
   86fsi    FSI  816   1.284   2.680   1.332
   86fsi    SBT  817   1.217   2.579   1.231
   86fsi    NBT  818   1.298   2.447   1.258
   86fsi    OBT  819   1.079   2.572   1.271
   86fsi    OBT  820   1.246   2.634   1.101
   86fsi    SBT  821   1.268   2.349   1.375
   86fsi    OBT  822   1.192   2.404   1.484
   86fsi    OBT  823   1.381   2.265   1.409
   86fsi    FSI  824   1.169   2.248   1.306
   87fsi    FSI  825   1.585   2.734   1.352
   87fsi    SBT  826   1.653   2.592   1.357
   87fsi    NBT  827   1.630   2.537   1.212
   87fsi    OBT  828   1.791   2.616   1.387
   87fsi    OBT  829   1.579   2.516   1.454
   87fsi    SBT  830   1.717   2.578   1.089
   87fsi    OBT  831   1.799   2.695   1.108
   87fsi    OBT  832   1.649   2.563   0.964
   87fsi    FSI  833   1.821   2.458   1.089
   88fsi    FSI  834   3.036   2.031   4.442
   88fsi    SBT  835   3.101   1.912   4.524
   88fsi    NBT  836   2.981   1.813   4.539
   88fsi    OBT  837   3.208   1.864   4.440
   88fsi    OBT  838   3.137   1.970   4.650
   88fsi    SBT  839   2.937   1.714   4.426
   88fsi    OBT  840   2.986   1.745   4.295
   88fsi    OBT  841   2.799   1.676   4.439
   88fsi    FSI  842   3.016   1.585   4.469
   89fsi    FSI  843   4.366   3.278   2.310
   89fsi    SBT  844   4.218   3.319   2.276
   89fsi    NBT  845   4.217   3.470   2.313
   89fsi    OBT  846   4.203   3.291   2.136
   89fsi    OBT  847   4.138   3.241   2.368
   89fsi    SBT  848   4.270   3.583   2.218
   89fsi    OBT  849   4.358   3.537   2.114
   89fsi    OBT  850   4.309   3.701   2.291
   89fsi    FSI  851   4.138   3.625   2.143
   90fsi    FSI  852   3.121   0.866   0.316
   90fsi    SBT  853   3.035   0.767   0.230
   90fsi    NBT  854   3.146   0.691   0.150
   90fsi    OBT  855   2.964   0.686   0.325
   90fsi    OBT  856   2.956   0.852   0.145
   90fsi    SBT  857   3.227   0.570   0.207
   90fsi    OBT  858   3.226   0.559   0.350
   90fsi    OBT  859   3.354   0.553   0.141
   90fsi    FSI  860   3.141   0.448   0.157
   91fsi    FSI  861   0.623   3.560   2.838
   91fsi    SBT  862   0.690   3.681   2.913
   91fsi    NBT  863   0.601   3.691   3.041
   91fsi    OBT  864   0.825   3.639   2.938
   91fsi    OBT  865   0.670   3.793   2.826
   91fsi    SBT  866   0.620   3.602   3.168
   91fsi    OBT  867   0.694   3.481   3.145
   91fsi    OBT  868   0.500   3.591   3.246
   91fsi    FSI  869   0.716   3.692   3.256
   92fsi    FSI  870   1.571   2.685   4.953
   92fsi    SBT  871   1.664   2.674   4.827
   92fsi    NBT  872   1.799   2.729   4.883
   92fsi    OBT  873   1.668   2.535   4.793
   92fsi    OBT  874   1.605   2.762   4.731
   92fsi    SBT  875   1.900   2.644   4.966
   92fsi    OBT  876   1.846   2.525   5.025
   92fsi    OBT  877   1.986   2.725   5.047
   92fsi    FSI  878   1.996   2.590   4.852
   93fsi    FSI  879   2.535   5.021   3.671
   93fsi    SBT  880   2.641   5.113   3.598
   93fsi    NBT  881   2.752   5.127   3.707
   93fsi    OBT  882   2.680   5.039   3.481
   93fsi    OBT  883   2.571   5.237   3.577
   93fsi    SBT  884   2.862   5.020   3.732
   93fsi    OBT  885   2.832   4.890   3.680
   93fsi    OBT  886   2.916   5.030   3.866
   93fsi    FSI  887   2.979   5.074   3.641
   94fsi    FSI  888   4.260   1.111   2.379
   94fsi    SBT  889   4.228   0.957   2.373
   94fsi    NBT  890   4.370   0.896   2.354
   94fsi    OBT  891   4.168   0.927   2.500
   94fsi    OBT  892   4.145   0.942   2.257
   94fsi    SBT  893   4.472   0.871   2.469
   94fsi    OBT  894   4.444   0.944   2.590
   94fsi    OBT  895   4.609   0.867   2.426
   94fsi    FSI  896   4.440   0.721   2.506
   95fsi    FSI  897   1.890   2.442   2.598
   95fsi    SBT  898   1.951   2.586   2.576
   95fsi    NBT  899   1.824   2.675   2.588
   95fsi    OBT  900   2.047   2.600   2.682
   95fsi    OBT  901   2.005   2.579   2.443
   95fsi    SBT  902   1.763   2.723   2.723
   95fsi    OBT  903   1.805   2.645   2.837
   95fsi    OBT  904   1.623   2.754   2.714
   95fsi    FSI  905   1.834   2.863   2.742
   96fsi    FSI  906   1.668   3.539   3.592
   96fsi    SBT  907   1.538   3.523   3.505
   96fsi    NBT  908   1.596   3.535   3.361
   96fsi    OBT  909   1.487   3.394   3.540
   96fsi    OBT  910   1.458   3.638   3.542
   96fsi    SBT  911   1.661   3.416   3.283
   96fsi    OBT  912   1.706   3.308   3.367
   96fsi    OBT  913   1.753   3.460   3.181
   96fsi    FSI  914   1.538   3.358   3.204
   97fsi    FSI  915   3.892   4.167   4.439
   97fsi    SBT  916   4.024   4.128   4.515
   97fsi    NBT  917   4.035   3.976   4.483
   97fsi    OBT  918   4.126   4.209   4.455
   97fsi    OBT  919   3.993   4.154   4.653
   97fsi    SBT  920   4.095   3.918   4.351
   97fsi    OBT  921   4.100   4.011   4.242
   97fsi    OBT  922   4.047   3.785   4.321
   97fsi    FSI  923   4.246   3.896   4.392
   98fsi    FSI  924   0.808   4.652   4.846
   98fsi    SBT  925   0.941   4.726   4.886
   98fsi    NBT  926   0.886   4.865   4.929
   98fsi    OBT  927   0.996   4.646   4.992
   98fsi    OBT  928   1.015   4.731   4.762
   98fsi    SBT  929   0.828   4.896   5.071
   98fsi    OBT  930   0.785   4.780   5.144
   98fsi    OBT  931   0.738   5.009   5.070
   98fsi    FSI  932   0.955   4.948   5.148
   99fsi    FSI  933   3.041   2.307   1.821
   99fsi    SBT  934   3.176   2.249   1.879
   99fsi    NBT  935   3.261   2.379   1.897
   99fsi    OBT  936   3.139   2.185   2.003
   99fsi    OBT  937   3.226   2.165   1.775
   99fsi    SBT  938   3.249   2.475   2.020
   99fsi    OBT  939   3.129   2.460   2.098
   99fsi    OBT  940   3.293   2.609   1.992
   99fsi    FSI  941   3.362   2.417   2.114
  100fsi    FSI  942   3.133   1.420   0.549
  100fsi    SBT  943   3.084   1.281   0.604
  100fsi    NBT  944   3.216   1.198   0.595
  100fsi    OBT  945   3.038   1.307   0.737
  100fsi    OBT  946   2.986   1.237   0.507
  100fsi    SBT  947   3.328   1.201   0.703
  100fsi    OBT  948   3.325   1.317   0.789
  100fsi    OBT  949   3.457   1.164   0.651
  100fsi    FSI  950   3.287   1.081   0.796
  101fsi    FSI  951   4.014   0.721   5.204
  101fsi    SBT  952   3.892   0.655   5.128
  101fsi    NBT  953   3.791   0.774   5.123
  101fsi    OBT  954   3.945   0.617   5.000
  101fsi    OBT  955   3.848   0.550   5.216
  101fsi    SBT  956   3.794   0.887   5.016
  101fsi    OBT  957   3.920   0.904   4.949
  101fsi    OBT  958   3.724   1.006   5.058
  101fsi    FSI  959   3.699   0.829   4.906
  102fsi    FSI  960   1.911   1.668   2.247
  102fsi    SBT  961   2.028   1.636   2.145
  102fsi    NBT  962   2.072   1.493   2.192
  102fsi    OBT  963   1.967   1.640   2.015
  102fsi    OBT  964   2.129   1.733   2.175
  102fsi    SBT  965   1.999   1.362   2.149
  102fsi    OBT  966   1.864   1.380   2.103
  102fsi    OBT  967   2.026   1.257   2.244
  102fsi    FSI  968   2.081   1.321   2.022
  103fsi    FSI  969   2.781   5.174   5.474
  103fsi    SBT  970   2.717   5.045   5.409
  103fsi    NBT  971   2.798   5.035   5.277
  103fsi    OBT  972   2.741   4.941   5.504
  103fsi    OBT  973   2.580   5.084   5.387
  103fsi    SBT  974   2.939   4.968   5.266
  103fsi    OBT  975   3.009   4.957   5.391
  103fsi    OBT  976   3.014   5.016   5.153
  103fsi    FSI  977   2.901   4.819   5.227
  104fsi    FSI  978   1.741   3.821   4.203
  104fsi    SBT  979   1.895   3.854   4.203
  104fsi    NBT  980   1.957   3.711   4.198
  104fsi    OBT  981   1.916   3.933   4.086
  104fsi    OBT  982   1.917   3.917   4.330
  104fsi    SBT  983   1.976   3.628   4.067
  104fsi    OBT  984   1.894   3.672   3.957
  104fsi    OBT  985   1.983   3.487   4.092
  104fsi    FSI  986   2.123   3.668   4.026
  105fsi    FSI  987   5.446   4.182   4.263
  105fsi    SBT  988   5.323   4.099   4.316
  105fsi    NBT  989   5.353   4.094   4.469
  105fsi    OBT  990   5.208   4.177   4.280
  105fsi    OBT  991   5.338   3.971   4.252
  105fsi    SBT  992   5.318   4.208   4.569
  105fsi    OBT  993   5.297   4.336   4.508
  105fsi    OBT  994   5.400   4.205   4.687
  105fsi    FSI  995   5.175   4.164   4.619
  106fsi    FSI  996   5.302   2.560   3.348
  106fsi    SBT  997   5.191   2.672   3.353
  106fsi    NBT  998   5.165   2.685   3.507
  106fsi    OBT  999   5.251   2.789   3.294
  106fsi    OBT 1000   5.079   2.614   3.285
  106fsi    SBT 1001   5.254   2.769   3.604
  106fsi    OBT 1002   5.384   2.801   3.553
  106fsi    OBT 1003   5.243   2.725   3.740
  106fsi    FSI 1004   5.178   2.907   3.603
  107fsi    FSI 1005   4.780   1.824   4.969
  107fsi    SBT 1006   4.774   1.917   5.096
  107fsi    NBT 1007   4.763   2.058   5.030
  107fsi    OBT 1008   4.655   1.875   5.165
  107fsi    OBT 1009   4.899   1.894   5.162
  107fsi    SBT 1010   4.630   2.120   4.978
  107fsi    OBT 1011   4.524   2.026   4.956
  107fsi    OBT 1012   4.651   2.217   4.874
  107fsi    FSI 1013   4.584   2.204   5.103
  108fsi    FSI 1014   1.425   5.271   3.311
  108fsi    SBT 1015   1.564   5.201   3.286
  108fsi    NBT 1016   1.520   5.067   3.219
  108fsi    OBT 1017   1.637   5.290   3.201
  108fsi    OBT 1018   1.618   5.182   3.418
  108fsi    SBT 1019   1.488   5.054   3.067
  108fsi    OBT 1020   1.460   5.178   3.000
  108fsi    OBT 1021   1.401   4.943   3.037
  108fsi    FSI 1022   1.628   5.009   3.010
  109fsi    FSI 1023   3.464   1.449   1.796
  109fsi    SBT 1024   3.578   1.556   1.817
  109fsi    NBT 1025   3.494   1.685   1.839
  109fsi    OBT 1026   3.649   1.511   1.933
  109fsi    OBT 1027   3.649   1.556   1.691
  109fsi    SBT 1028   3.432   1.727   1.975
  109fsi    OBT 1029   3.417   1.620   2.070
  109fsi    OBT 1030   3.320   1.816   1.961
  109fsi    FSI 1031   3.546   1.818   2.036
  110fsi    FSI 1032   1.519   5.120   3.922
  110fsi    SBT 1033   1.670   5.139   3.883
  110fsi    NBT 1034   1.710   4.995   3.839
  110fsi    OBT 1035   1.668   5.238   3.779
  110fsi    OBT 1036   1.730   5.179   4.008
  110fsi    SBT 1037   1.680   4.936   3.698
  110fsi    OBT 1038   1.573   5.003   3.630
  110fsi    OBT 1039   1.676   4.792   3.697
  110fsi    FSI 1040   1.812   4.973   3.619
  111fsi    FSI 1041   3.426   4.867   4.093
  111fsi    SBT 1042   3.288   4.901   4.026
  111fsi    NBT 1043   3.334   4.966   3.891
  111fsi    OBT 1044   3.221   4.775   4.012
  111fsi    OBT 1045   3.229   4.999   4.113
  111fsi    SBT 1046   3.375   4.883   3.765
  111fsi    OBT 1047   3.409   4.746   3.791
  111fsi    OBT 1048   3.461   4.958   3.677
  111fsi    FSI 1049   3.238   4.876   3.687
  112fsi    FSI 1050   0.839   1.829   3.559
  112fsi    SBT 1051   0.785   1.717   3.657
  112fsi    NBT 1052   0.914   1.680   3.736
  112fsi    OBT 1053   0.683   1.781   3.735
  112fsi    OBT 1054   0.743   1.610   3.570
  112fsi    SBT 1055   0.967   1.760   3.859
  112fsi    OBT 1056   0.917   1.894   3.869
  112fsi    OBT 1057   1.108   1.741   3.880
  112fsi    FSI 1058   0.899   1.683   3.978
  113fsi    FSI 1059   4.080   5.137   5.170
  113fsi    SBT 1060   3.944   5.067   5.207
  113fsi    NBT 1061   3.856   5.103   5.084
  113fsi    OBT 1062   3.977   4.927   5.221
  113fsi    OBT 1063   3.902   5.135   5.327
  113fsi    SBT 1064   3.859   5.024   4.949
  113fsi    OBT 1065   3.977   4.945   4.930
  113fsi    OBT 1066   3.814   5.104   4.838
  113fsi    FSI 1067   3.743   4.919   4.971
  114fsi    FSI 1068   0.427   3.194   1.646
  114fsi    SBT 1069   0.572   3.249   1.620
  114fsi    NBT 1070   0.629   3.138   1.525
  114fsi    OBT 1071   0.552   3.377   1.559
  114fsi    OBT 1072   0.633   3.246   1.751
  114fsi    SBT 1073   0.605   3.135   1.371
  114fsi    OBT 1074   0.491   3.211   1.327
  114fsi    OBT 1075   0.619   3.003   1.316
  114fsi    FSI 1076   0.730   3.214   1.317
  115fsi    FSI 1077   5.083   2.575   1.209
  115fsi    SBT 1078   5.179   2.475   1.134
  115fsi    NBT 1079   5.222   2.380   1.250
  115fsi    OBT 1080   5.096   2.414   1.034
  115fsi    OBT 1081   5.286   2.559   1.088
  115fsi    SBT 1082   5.137   2.260   1.300
  115fsi    OBT 1083   4.998   2.265   1.265
  115fsi    OBT 1084   5.168   2.222   1.436
  115fsi    FSI 1085   5.195   2.142   1.213
  116fsi    FSI 1086   1.298   1.286   0.882
  116fsi    SBT 1087   1.323   1.411   0.975
  116fsi    NBT 1088   1.412   1.348   1.087
  116fsi    OBT 1089   1.393   1.504   0.891
  116fsi    OBT 1090   1.192   1.446   1.023
  116fsi    SBT 1091   1.566   1.327   1.076
  116fsi    OBT 1092   1.618   1.327   0.941
  116fsi    OBT 1093   1.615   1.224   1.163
  116fsi    FSI 1094   1.621   1.461   1.139
  117fsi    FSI 1095   5.351   4.993   4.181
  117fsi    SBT 1096   5.355   4.972   4.337
  117fsi    NBT 1097   5.244   5.071   4.383
  117fsi    OBT 1098   5.323   4.833   4.355
  117fsi    OBT 1099   5.487   5.015   4.374
  117fsi    SBT 1100   5.092   5.037   4.384
  117fsi    OBT 1101   5.054   4.930   4.297
  117fsi    OBT 1102   5.009   5.155   4.378
  117fsi    FSI 1103   5.072   4.981   4.530
  118fsi    FSI 1104   3.166   1.246   2.954
  118fsi    SBT 1105   3.016   1.290   2.938
  118fsi    NBT 1106   3.021   1.402   2.830
  118fsi    OBT 1107   2.940   1.175   2.899
  118fsi    OBT 1108   2.976   1.345   3.065
  118fsi    SBT 1109   3.033   1.374   2.677
  118fsi    OBT 1110   3.070   1.240   2.644
  118fsi    OBT 1111   3.095   1.482   2.606
  118fsi    FSI 1112   2.881   1.383   2.636
  119fsi    FSI 1113   4.727   5.004   3.704
  119fsi    SBT 1114   4.590   4.961   3.640
  119fsi    NBT 1115   4.612   4.808   3.619
  119fsi    OBT 1116   4.494   4.999   3.739
  119fsi    OBT 1117   4.587   5.039   3.519
  119fsi    SBT 1118   4.593   4.701   3.731
  119fsi    OBT 1119   4.598   4.756   3.864
  119fsi    OBT 1120   4.670   4.582   3.706
  119fsi    FSI 1121   4.443   4.658   3.709
  120fsi    FSI 1122   1.995   3.737   3.347
  120fsi    SBT 1123   2.061   3.866   3.284
  120fsi    NBT 1124   2.000   3.867   3.140
  120fsi    OBT 1125   2.017   3.975   3.367
  120fsi    OBT 1126   2.202   3.838   3.283
  120fsi    SBT 1127   1.858   3.921   3.106
  120fsi    OBT 1128   1.770   3.935   3.219
  120fsi    OBT 1129   1.804   3.864   2.986
  120fsi    FSI 1130   1.891   4.070   3.065
  121fsi    FSI 1131   3.674   0.487   1.790
  121fsi    SBT 1132   3.831   0.478   1.801
  121fsi    NBT 1133   3.857   0.329   1.760
  121fsi    OBT 1134   3.881   0.574   1.707
  121fsi    OBT 1135   3.859   0.501   1.940
  121fsi    SBT 1136   3.865   0.279   1.613
  121fsi    OBT 1137   3.809   0.367   1.514
  121fsi    OBT 1138   3.836   0.139   1.599
  121fsi    FSI 1139   4.021   0.288   1.586
  122fsi    FSI 1140   3.987   5.153   2.349
  122fsi    SBT 1141   3.956   5.002   2.386
  122fsi    NBT 1142   3.817   5.016   2.456
  122fsi    OBT 1143   3.954   4.934   2.260
  122fsi    OBT 1144   4.063   4.968   2.477
  122fsi    SBT 1145   3.681   5.024   2.380
  122fsi    OBT 1146   3.693   5.064   2.242
  122fsi    OBT 1147   3.579   5.089   2.457
  122fsi    FSI 1148   3.638   4.873   2.375
  123fsi    FSI 1149   1.169   2.880   0.381
  123fsi    SBT 1150   1.026   2.859   0.319
  123fsi    NBT 1151   1.049   2.733   0.231
  123fsi    OBT 1152   0.939   2.838   0.432
  123fsi    OBT 1153   1.004   2.977   0.240
  123fsi    SBT 1154   1.046   2.586   0.285
  123fsi    OBT 1155   1.066   2.575   0.427
  123fsi    OBT 1156   1.121   2.495   0.202
  123fsi    FSI 1157   0.895   2.547   0.262
  124fsi    FSI 1158   1.975   1.387   3.750
  124fsi    SBT 1159   1.854   1.294   3.791
  124fsi    NBT 1160   1.878   1.280   3.945
  124fsi    OBT 1161   1.738   1.369   3.755
  124fsi    OBT 1162   1.880   1.171   3.720
  124fsi    SBT 1163   1.832   1.385   4.050
  124fsi    OBT 1164   1.808   1.517   3.998
  124fsi    OBT 1165   1.908   1.377   4.172
  124fsi    FSI 1166   1.689   1.331   4.090
  125fsi    FSI 1167   4.545   2.802   5.091
  125fsi    SBT 1168   4.633   2.679   5.135
  125fsi    NBT 1169   4.589   2.572   5.031
  125fsi    OBT 1170   4.768   2.726   5.122
  125fsi    OBT 1171   4.586   2.650   5.268
  125fsi    SBT 1172   4.649   2.562   4.887
  125fsi    OBT 1173   4.710   2.682   4.839
  125fsi    OBT 1174   4.559   2.496   4.796
  125fsi    FSI 1175   4.769   2.462   4.909
  126fsi    FSI 1176   1.179   2.014   1.018
  126fsi    SBT 1177   1.144   1.871   0.963
  126fsi    NBT 1178   1.076   1.904   0.827
  126fsi    OBT 1179   1.271   1.805   0.953
  126fsi    OBT 1180   1.052   1.818   1.061
  126fsi    SBT 1181   1.153   1.935   0.696
  126fsi    OBT 1182   1.291   1.970   0.714
  126fsi    OBT 1183   1.077   2.013   0.602
  126fsi    FSI 1184   1.159   1.792   0.629
  127fsi    FSI 1185   0.827   2.070   3.331
  127fsi    SBT 1186   0.724   2.153   3.246
  127fsi    NBT 1187   0.707   2.280   3.335
  127fsi    OBT 1188   0.790   2.176   3.121
  127fsi    OBT 1189   0.606   2.071   3.244
  127fsi    SBT 1190   0.805   2.402   3.333
  127fsi    OBT 1191   0.935   2.372   3.280
  127fsi    OBT 1192   0.800   2.477   3.456
  127fsi    FSI 1193   0.737   2.496   3.226
  128fsi    FSI 1194   1.203   5.239   4.906
  128fsi    SBT 1195   1.355   5.249   4.865
  128fsi    NBT 1196   1.390   5.099   4.839
  128fsi    OBT 1197   1.356   5.332   4.748
  128fsi    OBT 1198   1.420   5.301   4.982
  128fsi    SBT 1199   1.358   5.024   4.706
  128fsi    OBT 1200   1.259   5.087   4.623
  128fsi    OBT 1201   1.349   4.881   4.722
  128fsi    FSI 1202   1.493   5.044   4.627
  129fsi    FSI 1203   5.084   3.833   1.348
  129fsi    SBT 1204   5.056   3.727   1.235
  129fsi    NBT 1205   5.105   3.595   1.303
  129fsi    OBT 1206   4.915   3.735   1.212
  129fsi    OBT 1207   5.141   3.770   1.126
  129fsi    SBT 1208   5.020   3.511   1.402
  129fsi    OBT 1209   4.910   3.583   1.460
  129fsi    OBT 1210   5.099   3.431   1.491
  129fsi    FSI 1211   4.952   3.407   1.305
  130fsi    FSI 1212   4.727   1.735   4.415
  130fsi    SBT 1213   4.694   1.837   4.530
  130fsi    NBT 1214   4.796   1.950   4.499
  130fsi    OBT 1215   4.556   1.871   4.507
  130fsi    OBT 1216   4.724   1.763   4.650
  130fsi    SBT 1217   4.773   2.064   4.395
  130fsi    OBT 1218   4.673   2.033   4.296
  130fsi    OBT 1219   4.895   2.121   4.346
  130fsi    FSI 1220   4.708   2.177   4.483
  131fsi    FSI 1221   0.717   4.560   1.431
  131fsi    SBT 1222   0.862   4.535   1.374
  131fsi    NBT 1223   0.935   4.665   1.420
  131fsi    OBT 1224   0.906   4.415   1.440
  131fsi    OBT 1225   0.843   4.530   1.232
  131fsi    SBT 1226   0.996   4.686   1.562
  131fsi    OBT 1227   0.942   4.600   1.664
  131fsi    OBT 1228   1.009   4.825   1.595
  131fsi    FSI 1229   1.144   4.636   1.541
  132fsi    FSI 1230   1.422   2.426   5.027
  132fsi    SBT 1231   1.436   2.283   4.961
  132fsi    NBT 1232   1.424   2.189   5.086
  132fsi    OBT 1233   1.327   2.273   4.869
  132fsi    OBT 1234   1.568   2.279   4.906
  132fsi    SBT 1235   1.289   2.145   5.149
  132fsi    OBT 1236   1.177   2.228   5.115
  132fsi    OBT 1237   1.304   2.106   5.287
  132fsi    FSI 1238   1.263   2.010   5.074
  133fsi    FSI 1239   0.237   1.118   0.643
  133fsi    SBT 1240   0.334   1.227   0.702
  133fsi    NBT 1241   0.463   1.143   0.726
  133fsi    OBT 1242   0.344   1.326   0.599
  133fsi    OBT 1243   0.270   1.266   0.825
  133fsi    SBT 1244   0.568   1.111   0.616
  133fsi    OBT 1245   0.518   1.123   0.481
  133fsi    OBT 1246   0.645   0.993   0.646
  133fsi    FSI 1247   0.670   1.230   0.633
  134fsi    FSI 1248   2.839   5.168   4.487
  134fsi    SBT 1249   2.942   5.052   4.464
  134fsi    NBT 1250   2.852   4.947   4.392
  134fsi    OBT 1251   3.044   5.112   4.382
  134fsi    OBT 1252   2.979   5.012   4.597
  134fsi    SBT 1253   2.822   4.948   4.239
  134fsi    OBT 1254   2.842   5.076   4.176
  134fsi    OBT 1255   2.699   4.879   4.208
  134fsi    FSI 1256   2.935   4.854   4.183
  135fsi    FSI 1257   5.310   2.283   5.225
  135fsi    SBT 1258   5.314   2.137   5.285
  135fsi    NBT 1259   5.224   2.060   5.184
  135fsi    OBT 1260   5.452   2.101   5.283
  135fsi    OBT 1261   5.251   2.151   5.414
  135fsi    SBT 1262   5.275   2.004   5.047
  135fsi    OBT 1263   5.397   2.064   5.000
  135fsi    OBT 1264   5.171   1.985   4.951
  135fsi    FSI 1265   5.317   1.857   5.087
  136fsi    FSI 1266   1.044   1.564   2.676
  136fsi    SBT 1267   1.017   1.566   2.520
  136fsi    NBT 1268   0.920   1.445   2.504
  136fsi    OBT 1269   0.958   1.694   2.493
  136fsi    OBT 1270   1.146   1.540   2.462
  136fsi    SBT 1271   0.766   1.452   2.529
  136fsi    OBT 1272   0.724   1.563   2.610
  136fsi    OBT 1273   0.710   1.324   2.559
  136fsi    FSI 1274   0.712   1.486   2.385
  137fsi    FSI 1275   2.956   4.837   2.089
  137fsi    SBT 1276   2.865   4.709   2.090
  137fsi    NBT 1277   2.723   4.771   2.101
  137fsi    OBT 1278   2.892   4.643   1.966
  137fsi    OBT 1279   2.903   4.640   2.211
  137fsi    SBT 1280   2.642   4.826   1.979
  137fsi    OBT 1281   2.722   4.856   1.864
  137fsi    OBT 1282   2.543   4.923   2.019
  137fsi    FSI 1283   2.558   4.700   1.938
  138fsi    FSI 1284   3.598   3.696   3.272
  138fsi    SBT 1285   3.678   3.577   3.337
  138fsi    NBT 1286   3.796   3.651   3.406
  138fsi    OBT 1287   3.584   3.514   3.426
  138fsi    OBT 1288   3.721   3.498   3.224
  138fsi    SBT 1289   3.786   3.721   3.545
  138fsi    OBT 1290   3.651   3.748   3.587
  138fsi    OBT 1291   3.884   3.825   3.561
  138fsi    FSI 1292   3.835   3.606   3.641
  139fsi    FSI 1293   4.005   5.429   0.930
  139fsi    SBT 1294   4.048   5.294   0.861
  139fsi    NBT 1295   4.201   5.293   0.888
  139fsi    OBT 1296   3.974   5.192   0.931
  139fsi    OBT 1297   4.016   5.314   0.722
  139fsi    SBT 1298   4.266   5.244   1.021
  139fsi    OBT 1299   4.177   5.242   1.134
  139fsi    OBT 1300   4.397   5.300   1.042
  139fsi    FSI 1301   4.294   5.092   0.989
  140fsi    FSI 1302   0.555   0.819   3.032
  140fsi    SBT 1303   0.710   0.821   3.059
  140fsi    NBT 1304   0.758   0.938   2.967
  140fsi    OBT 1305   0.722   0.848   3.200
  140fsi    OBT 1306   0.756   0.693   3.014
  140fsi    SBT 1307   0.748   1.088   3.005
  140fsi    OBT 1308   0.657   1.118   3.112
  140fsi    OBT 1309   0.748   1.174   2.890
  140fsi    FSI 1310   0.891   1.112   3.068
  141fsi    FSI 1311   1.218   1.900   2.283
  141fsi    SBT 1312   1.224   2.057   2.290
  141fsi    NBT 1313   1.378   2.080   2.291
  141fsi    OBT 1314   1.157   2.099   2.170
  141fsi    OBT 1315   1.162   2.088   2.416
  141fsi    SBT 1316   1.467   2.086   2.163
  141fsi    OBT 1317   1.410   2.017   2.050
  141fsi    OBT 1318   1.604   2.055   2.192
  141fsi    FSI 1319   1.465   2.239   2.127
  142fsi    FSI 1320   3.792   4.368   3.816
  142fsi    SBT 1321   3.763   4.495   3.906
  142fsi    NBT 1322   3.908   4.545   3.936
  142fsi    OBT 1323   3.687   4.582   3.821
  142fsi    OBT 1324   3.698   4.441   4.022
  142fsi    SBT 1325   3.991   4.634   3.839
  142fsi    OBT 1326   3.948   4.631   3.702
  142fsi    OBT 1327   4.133   4.623   3.862
  142fsi    FSI 1328   3.956   4.779   3.890
  143fsi    FSI 1329   4.148   5.115   3.048
  143fsi    SBT 1330   4.014   5.032   3.041
  143fsi    NBT 1331   4.070   4.887   3.054
  143fsi    OBT 1332   3.938   5.079   3.153
  143fsi    OBT 1333   3.965   5.060   2.909
  143fsi    SBT 1334   4.104   4.818   3.190
  143fsi    OBT 1335   4.127   4.911   3.297
  143fsi    OBT 1336   4.199   4.712   3.173
  143fsi    FSI 1337   3.968   4.746   3.226
  144fsi    FSI 1338   3.618   4.012   4.804
  144fsi    SBT 1339   3.657   3.893   4.899
  144fsi    NBT 1340   3.516   3.830   4.928
  144fsi    OBT 1341   3.743   3.809   4.822
  144fsi    OBT 1342   3.712   3.956   5.016
  144fsi    SBT 1343   3.444   3.730   4.832
  144fsi    OBT 1344   3.491   3.731   4.697
  144fsi    OBT 1345   3.302   3.728   4.852
  144fsi    FSI 1346   3.492   3.591   4.890
  145fsi    FSI 1347   2.841   0.346   1.681
  145fsi    SBT 1348   2.762   0.209   1.683
  145fsi    NBT 1349   2.614   0.259   1.680
  145fsi    OBT 1350   2.804   0.140   1.565
  145fsi    OBT 1351   2.796   0.152   1.810
  145fsi    SBT 1352   2.539   0.300   1.549
  145fsi    OBT 1353   2.624   0.332   1.438
  145fsi    OBT 1354   2.429   0.389   1.576
  145fsi    FSI 1355   2.469   0.164   1.509
  146fsi    FSI 1356   5.002   1.907   2.219
  146fsi    SBT 1357   5.077   2.042   2.250
  146fsi    NBT 1358   5.192   1.993   2.344
  146fsi    OBT 1359   5.119   2.091   2.122
  146fsi    OBT 1360   4.978   2.120   2.321
  146fsi    SBT 1361   5.326   1.932   2.292
  146fsi    OBT 1362   5.321   1.882   2.158
  146fsi    OBT 1363   5.389   1.848   2.390
  146fsi    FSI 1364   5.418   2.060   2.284
  147fsi    FSI 1365   1.028   3.890   1.534
  147fsi    SBT 1366   1.120   3.773   1.587
  147fsi    NBT 1367   1.059   3.650   1.513
  147fsi    OBT 1368   1.253   3.807   1.545
  147fsi    OBT 1369   1.095   3.770   1.728
  147fsi    SBT 1370   1.093   3.610   1.366
  147fsi    OBT 1371   1.151   3.716   1.287
  147fsi    OBT 1372   0.990   3.531   1.304
  147fsi    FSI 1373   1.212   3.509   1.388
  148fsi    FSI 1374   1.058   4.252   1.045
  148fsi    SBT 1375   1.171   4.143   1.065
  148fsi    NBT 1376   1.244   4.197   1.191
  148fsi    OBT 1377   1.099   4.020   1.082
  148fsi    OBT 1378   1.251   4.155   0.946
  148fsi    SBT 1379   1.196   4.171   1.337
  148fsi    OBT 1380   1.057   4.135   1.348
  148fsi    OBT 1381   1.246   4.270   1.429
  148fsi    FSI 1382   1.276   4.041   1.374
  149fsi    FSI 1383   1.621   3.432   2.284
  149fsi    SBT 1384   1.772   3.475   2.295
  149fsi    NBT 1385   1.827   3.375   2.402
  149fsi    OBT 1386   1.829   3.458   2.164
  149fsi    OBT 1387   1.768   3.610   2.345
  149fsi    SBT 1388   1.869   3.228   2.370
  149fsi    OBT 1389   1.821   3.178   2.245
  149fsi    OBT 1390   1.865   3.142   2.485
  149fsi    FSI 1391   2.024   3.248   2.345
  150fsi    FSI 1392   1.626   0.384   2.558
  150fsi    SBT 1393   1.578   0.360   2.706
  150fsi    NBT 1394   1.689   0.436   2.785
  150fsi    OBT 1395   1.448   0.421   2.712
  150fsi    OBT 1396   1.586   0.218   2.722
  150fsi    SBT 1397   1.688   0.589   2.812
  150fsi    OBT 1398   1.608   0.666   2.721
  150fsi    OBT 1399   1.820   0.640   2.840
  150fsi    FSI 1400   1.612   0.598   2.951
   5.64600   5.64600   5.64600
