L2P1 short trajectory practice
 1400
    1Li+     Li    1   1.131   3.242   1.846 -1.1238  0.3404 -0.5837
    2Li+     Li    2   3.234   0.387   2.216  0.6830 -1.6504 -0.3877
    3Li+     Li    3   2.851   3.126   3.036 -0.2472  0.9565 -0.5151
    4Li+     Li    4   2.132   2.054   2.476 -0.3193 -0.2951  0.1517
    5Li+     Li    5   1.164   3.407   2.845  0.6974 -0.7367  0.4655
    6Li+     Li    6   3.072   3.545   2.904  0.5180  1.1194  0.7919
    7Li+     Li    7   2.545   0.403   3.023  0.3233 -0.3059  0.0635
    8Li+     Li    8   3.198   5.289   1.616 -0.7684 -0.5319 -0.0799
    9Li+     Li    9   2.569   4.465   2.745 -0.4818  0.8360  0.2475
   10Li+     Li   10   1.834   1.976   2.866  1.1919  0.0891  0.0013
   11Li+     Li   11   1.744   3.214   2.859 -1.0296 -0.0026  0.4408
   12Li+     Li   12   2.821   0.856   2.502 -1.1303  0.1315  0.2479
   13Li+     Li   13   2.425   2.223   3.278  0.2778  0.3988 -0.7489
   14Li+     Li   14   2.700   2.911   2.474  0.1536 -0.5961 -0.6964
   15Li+     Li   15   1.517   2.710   3.016  0.5389 -0.4447  1.0439
   16Li+     Li   16   1.565   2.078   2.304 -0.1689 -0.1505 -1.0879
   17Li+     Li   17   3.683   0.892   2.023  0.1176 -0.3377  0.9927
   18Li+     Li   18   2.464   5.515   2.993  0.1018 -0.6459  0.0196
   19Li+     Li   19   2.456   4.423   3.202  0.3143 -0.6895 -0.5211
   20Li+     Li   20   2.656   5.510   1.690  0.4002  0.1369  0.3582
   21Li+     Li   21   2.731   5.043   2.950 -0.3852 -0.1858  0.5733
   22Li+     Li   22   2.351   4.933   3.014 -1.0662  0.8618 -0.3130
   23Li+     Li   23   3.512   3.326   2.251 -0.3615 -0.4676 -0.2281
   24Li+     Li   24   1.022   2.667   2.063 -0.0839 -1.2235 -0.6516
   25Li+     Li   25   2.968   4.014   3.319 -0.4770  0.0284  0.6723
   26Li+     Li   26   1.305   3.183   3.152  0.5485 -0.8859 -0.4904
   27Li+     Li   27   2.618   0.324   2.085  0.9145  0.8876  0.7401
   28Li+     Li   28   2.140   2.773   2.150 -0.1658  0.7900  0.1889
   29Li+     Li   29   3.122   3.122   2.567 -1.0924 -0.3978  0.2946
   30Li+     Li   30   2.908   0.212   1.535 -0.5583  0.7516  0.3711
   31Li+     Li   31   3.130   4.597   2.428 -0.2779  0.0038 -0.9664
   32Li+     Li   32   2.140   2.447   3.028 -0.1954  0.2837 -0.0614
   33Li+     Li   33   1.926   4.904   3.076 -0.0590 -0.5295 -1.2963
   34Li+     Li   34   1.325   3.371   2.411 -0.3428  0.0408 -0.1333
   35Li+     Li   35   3.069   1.341   2.748 -0.0792  1.2467 -0.0576
   36Li+     Li   36   3.004   5.131   2.554 -0.1870  0.2301  0.1205
   37Li+     Li   37   0.951   2.916   2.593  1.0077 -0.1816  0.4969
   38Li+     Li   38   2.490   3.794   3.258  0.1747  0.1319  1.1260
   39Li+     Li   39   1.355   1.781   2.772  0.2747 -0.2877  0.0622
   40Li+     Li   40   2.816   4.540   3.194 -0.5755  0.0079 -0.0795
   41Li+     Li   41   3.197   4.440   2.965  1.2709  0.0149  0.2726
   42Li+     Li   42   3.238   4.941   2.928  0.5756 -0.3008 -1.3959
   43Li+     Li   43   1.997   4.544   3.344  0.8426 -0.3123 -0.1723
   44Li+     Li   44   1.165   2.508   2.454  0.3316 -0.2594 -0.1891
   45Li+     Li   45   1.712   2.395   2.443 -0.0467 -0.5609 -0.7812
   46Li+     Li   46   2.673   3.828   2.755 -1.2135 -1.4983 -0.8796
   47Li+     Li   47   2.396   1.823   2.967  0.3779 -0.1845  0.8528
   48Li+     Li   48   3.007   5.414   3.197  0.1267  0.3994 -0.0678
   49Li+     Li   49   3.111   0.031   1.973 -0.1434 -0.2023 -0.5170
   50Li+     Li   50   1.329   2.242   2.955 -0.1829  0.6314  0.4140
   51c3c     N4   51   0.744   2.465   2.798 -0.3612 -0.2118  0.0294
   51c3c     C1   52   0.633   2.407   2.872 -0.0502  1.1598 -0.8982
   51c3c     C1   53   0.866   2.401   2.851  0.4091  1.3570 -0.7546
   51c3c     C2   54   0.674   2.266   2.903  0.5685  0.1885  0.1894
   51c3c     C2   55   0.823   2.271   2.924 -0.4632 -0.5822 -0.6922
   51c3c     C1   56   0.737   2.418   2.659 -0.0400 -0.0610 -0.2841
   51c3c     C1   57   0.745   2.611   2.804 -0.0740  0.1263  0.8058
   51c3c     H1   58   0.537   2.407   2.820 -0.3428  1.4955 -0.3523
   51c3c     H1   59   0.618   2.438   2.975  0.4621 -0.1259 -0.4404
   51c3c     H1   60   0.952   2.374   2.789 -0.6772 -0.5993 -1.4480
   51c3c     H1   61   0.914   2.453   2.935 -0.5123  0.2759  0.4686
   51c3c     HC   62   0.642   2.191   2.830  1.0002 -1.3044  1.5094
   51c3c     HC   63   0.615   2.232   2.988 -1.6547  1.9335 -0.5743
   51c3c     HC   64   0.883   2.187   2.889 -0.3683  0.2491 -2.6200
   51c3c     HC   65   0.847   2.270   3.030 -1.6731 -2.1087 -0.4307
   51c3c     H1   66   0.655   2.471   2.611 -1.4584  0.2490  2.3999
   51c3c     H1   67   0.828   2.442   2.603 -0.2286 -0.0285 -0.5789
   51c3c     H1   68   0.729   2.311   2.639  1.6761 -0.6657  2.0912
   51c3c     H1   69   0.832   2.640   2.745  0.9328 -1.9262  1.2411
   51c3c     H1   70   0.652   2.635   2.753  1.6390  2.3336 -1.3791
   51c3c     C2   71   0.768   2.683   2.937 -0.5788 -0.6005 -1.2179
   51c3c     HC   72   0.871   2.667   2.968 -0.4002 -0.3779 -1.6844
   51c3c     HC   73   0.700   2.640   3.010  1.8352 -2.7227 -0.1256
   51c3c     CT   74   0.740   2.836   2.922 -0.3862  0.7263 -0.2378
   51c3c     HC   75   0.638   2.854   2.888  0.3098  0.3896 -2.5309
   51c3c     HC   76   0.814   2.867   2.849 -0.4269 -0.0524 -0.6226
   51c3c     HC   77   0.742   2.880   3.022 -1.3348 -0.7194  0.4413
   52c3c     N4   78   3.787   2.113   2.986 -0.2064 -0.3440 -0.5378
   52c3c     C1   79   3.755   1.985   3.059  0.4438 -0.1781  0.5218
   52c3c     C1   80   3.923   2.094   2.943  0.1322  0.0792  0.3867
   52c3c     C2   81   3.815   1.879   2.966  0.2953  0.0714 -0.1414
   52c3c     C2   82   3.925   1.950   2.892 -0.1324 -0.1193  0.1332
   52c3c     C1   83   3.696   2.123   2.872  0.2365 -0.3922  0.2855
   52c3c     C1   84   3.761   2.233   3.069 -0.0294 -0.0980  0.0498
   52c3c     H1   85   3.649   1.975   3.085 -0.3865  2.5307 -1.5493
   52c3c     H1   86   3.809   1.985   3.153 -0.6261  2.6247  1.1903
   52c3c     H1   87   3.942   2.169   2.866 -1.9286  0.8186  0.5527
   52c3c     H1   88   3.992   2.115   3.025  0.4651  0.4390  0.0135
   52c3c     HC   89   3.745   1.834   2.896  0.1339  0.6240 -0.3372
   52c3c     HC   90   3.856   1.800   3.028  0.3839  0.4072  0.2326
   52c3c     HC   91   3.919   1.937   2.784 -0.7730 -0.7511  0.2448
   52c3c     HC   92   4.019   1.903   2.922  0.7569  0.0039 -2.3524
   52c3c     H1   93   3.591   2.130   2.902  0.2469  3.3333 -0.3841
   52c3c     H1   94   3.711   2.219   2.822 -1.2068  1.2146  2.7923
   52c3c     H1   95   3.700   2.044   2.797  3.3122 -0.4800  0.4742
   52c3c     H1   96   3.774   2.324   3.010 -0.4266 -0.1975 -0.1933
   52c3c     H1   97   3.658   2.238   3.103  0.5411  3.0184  1.5146
   52c3c     C2   98   3.848   2.253   3.203 -0.5110 -0.2729  0.4958
   52c3c     HC   99   3.954   2.270   3.188 -0.7740  0.9264 -0.0537
   52c3c     HC  100   3.834   2.167   3.269 -0.7528 -0.8075 -0.2452
   52c3c     CT  101   3.803   2.377   3.285  0.1040  0.0138 -0.0269
   52c3c     HC  102   3.824   2.466   3.226  0.6412 -0.4820 -0.5940
   52c3c     HC  103   3.860   2.383   3.377  2.5774 -2.0384 -1.3574
   52c3c     HC  104   3.698   2.386   3.313 -0.1809 -0.4140 -0.9371
   53c3c     N4  105   2.256   3.051   3.174  0.1167  0.0990  0.2447
   53c3c     C1  106   2.142   3.115   3.094  0.3490 -0.5303  0.0317
   53c3c     C1  107   2.189   2.926   3.215 -0.6603 -0.1574 -0.1605
   53c3c     C2  108   2.085   3.003   3.006  0.5208  0.9113  0.8148
   53c3c     C2  109   2.098   2.878   3.098  0.0447  0.0303  0.2559
   53c3c     C1  110   2.366   3.012   3.076  0.0271 -0.3038 -0.1214
   53c3c     C1  111   2.316   3.134   3.282  0.1270  0.3728 -0.4069
   53c3c     H1  112   2.177   3.201   3.036 -0.4467 -0.5164 -0.4429
   53c3c     H1  113   2.070   3.159   3.163 -0.9223 -2.8218  0.2328
   53c3c     H1  114   2.252   2.845   3.251 -1.9106 -1.5500 -0.9781
   53c3c     H1  115   2.114   2.957   3.287 -0.6380 -0.6097  0.0573
   53c3c     HC  116   2.142   2.989   2.915 -0.6967  1.5237 -0.0603
   53c3c     HC  117   1.979   3.008   2.979  0.8663  0.5782 -0.6277
   53c3c     HC  118   2.162   2.800   3.057  0.6392  0.1292  0.9900
   53c3c     HC  119   2.007   2.825   3.126  0.5843 -0.1578  1.6965
   53c3c     H1  120   2.395   3.104   3.026 -1.7505  1.0953  1.3735
   53c3c     H1  121   2.455   2.967   3.121  1.8922  1.1659 -2.2502
   53c3c     H1  122   2.327   2.950   2.995  0.2292  0.0209 -0.4671
   53c3c     H1  123   2.379   3.070   3.344 -1.4652 -0.4527  0.3621
   53c3c     H1  124   2.382   3.209   3.239 -0.9798  0.4575 -2.0096
   53c3c     C2  125   2.218   3.208   3.376 -0.4838 -0.3638  0.0492
   53c3c     HC  126   2.158   3.134   3.430 -1.7075 -0.7172 -1.7312
   53c3c     HC  127   2.156   3.279   3.322  1.3471  1.8441  0.7894
   53c3c     CT  128   2.294   3.299   3.470  0.6334 -0.4588  0.0209
   53c3c     HC  129   2.221   3.354   3.529  0.1917 -0.2368 -0.7267
   53c3c     HC  130   2.355   3.375   3.420  1.2736  0.4971  2.1774
   53c3c     HC  131   2.344   3.236   3.543  0.0750 -0.8579  0.0598
   54c3c     N4  132   2.439   3.439   2.369 -0.2017 -0.1717  0.1582
   54c3c     C1  133   2.452   3.557   2.452  0.1811  0.0560 -0.2477
   54c3c     C1  134   2.319   3.481   2.285 -0.5145 -0.2080 -0.1797
   54c3c     C2  135   2.410   3.684   2.379 -0.2081 -0.7035  0.4394
   54c3c     C2  136   2.327   3.636   2.261  0.1210 -0.0414 -0.2142
   54c3c     C1  137   2.557   3.429   2.280 -0.0630 -0.4684  0.5647
   54c3c     C1  138   2.425   3.311   2.440 -0.1800 -0.3173  0.2080
   54c3c     H1  139   2.550   3.580   2.493 -1.0116  3.5285  0.8227
   54c3c     H1  140   2.390   3.553   2.542  1.2446 -0.0593  0.4901
   54c3c     H1  141   2.319   3.421   2.195 -2.2105 -1.3883  0.5783
   54c3c     H1  142   2.223   3.462   2.334 -1.0215  0.7351 -0.7965
   54c3c     HC  143   2.499   3.738   2.347 -0.7176 -0.5138 -0.7069
   54c3c     HC  144   2.353   3.748   2.447 -0.5342  0.9554 -1.3407
   54c3c     HC  145   2.380   3.653   2.167  0.4182  0.4325  0.0350
   54c3c     HC  146   2.228   3.683   2.267 -0.3237 -0.8823 -0.8517
   54c3c     H1  147   2.646   3.407   2.338 -1.9104 -0.7742  3.4133
   54c3c     H1  148   2.554   3.353   2.202  0.1656 -3.1092  3.0281
   54c3c     H1  149   2.574   3.522   2.227  0.5871 -0.5725  0.5953
   54c3c     H1  150   2.452   3.222   2.382 -0.3660 -0.4953  0.3934
   54c3c     H1  151   2.503   3.313   2.516 -2.1263  0.5590  2.2261
   54c3c     C2  152   2.298   3.290   2.526  0.4800  0.3407 -0.0747
   54c3c     HC  153   2.218   3.267   2.456 -0.4794  0.6227  0.8995
   54c3c     HC  154   2.269   3.379   2.581 -1.8236  0.6124 -1.6527
   54c3c     CT  155   2.306   3.173   2.628  0.5215 -0.2038  0.5534
   54c3c     HC  156   2.213   3.178   2.684 -0.3416  1.5792 -0.9855
   54c3c     HC  157   2.381   3.188   2.705 -0.4342  0.7277  1.3095
   54c3c     HC  158   2.308   3.074   2.582 -1.2396  0.9169 -2.0926
   55c3c     N4  159   2.970   0.041   2.563  0.4018  0.6166 -0.2985
   55c3c     C1  160   2.921  -0.044   2.674  0.6622  0.8565 -0.3345
   55c3c     C1  161   2.850   0.061   2.480  0.7666 -0.2521 -0.8230
   55c3c     C2  162   2.783   0.020   2.712  0.7177  0.0768 -0.8792
   55c3c     C2  163   2.740   0.089   2.580  0.2910 -0.0196  0.9500
   55c3c     C1  164   3.009   0.178   2.609 -0.1403 -0.5707 -0.1051
   55c3c     C1  165   3.088  -0.027   2.510 -0.3625 -0.0324  0.3926
   55c3c     H1  166   2.993  -0.039   2.755 -0.0891 -0.9601  0.4562
   55c3c     H1  167   2.905  -0.147   2.644  0.5265  0.9283 -0.5125
   55c3c     H1  168   2.859   0.140   2.404  1.0961  1.6752  1.1601
   55c3c     H1  169   2.818  -0.024   2.419  1.2133  0.0038 -1.4231
   55c3c     HC  170   2.791   0.091   2.795 -0.9298 -0.3545 -0.3293
   55c3c     HC  171   2.709  -0.054   2.745  2.2399 -1.8519 -1.7001
   55c3c     HC  172   2.730   0.197   2.588  1.3556  0.2821 -1.4442
   55c3c     HC  173   2.652   0.032   2.549 -0.0987  1.4062 -0.6126
   55c3c     H1  174   3.081   0.168   2.691  0.3847 -1.1336 -0.6232
   55c3c     H1  175   3.064   0.222   2.526 -0.4932  1.3983  0.6651
   55c3c     H1  176   2.930   0.248   2.634 -0.1892 -1.2339  1.7006
   55c3c     H1  177   3.151   0.041   2.453 -0.4306 -1.0822 -0.9569
   55c3c     H1  178   3.154  -0.066   2.587  0.7222  0.1885 -0.4069
   55c3c     C2  179   3.061  -0.154   2.424 -0.0945 -0.2043 -0.1663
   55c3c     HC  180   3.002  -0.134   2.335 -0.4903 -3.1004 -0.6013
   55c3c     HC  181   3.006  -0.234   2.473 -0.9693  0.8862  0.6729
   55c3c     CT  182   3.188  -0.223   2.374  0.4701 -0.5729 -1.0038
   55c3c     HC  183   3.166  -0.330   2.370 -4.5764  0.3518 -1.5827
   55c3c     HC  184   3.261  -0.210   2.453  0.9751  0.5859 -1.6613
   55c3c     HC  185   3.235  -0.199   2.278 -0.3453  1.2626 -0.9589
   56c3c     N4  186   3.486   2.475   2.342  0.2950 -0.8090  0.7098
   56c3c     C1  187   3.580   2.394   2.262  0.2936 -0.3073 -0.5602
   56c3c     C1  188   3.430   2.380   2.441  0.9357  0.1287  0.0728
   56c3c     C2  189   3.641   2.291   2.358 -0.3797 -0.3467 -0.1777
   56c3c     C2  190   3.530   2.269   2.461  0.4726  0.0751  0.1295
   56c3c     C1  191   3.562   2.580   2.413 -0.2826  0.2510 -0.5082
   56c3c     C1  192   3.385   2.536   2.255  0.0757 -0.4979 -0.3295
   56c3c     H1  193   3.666   2.453   2.231  0.3667 -1.7671 -3.2630
   56c3c     H1  194   3.528   2.330   2.191  1.2168  0.6357 -2.1111
   56c3c     H1  195   3.403   2.419   2.539  1.2802 -0.7444  0.5244
   56c3c     H1  196   3.343   2.328   2.401 -0.1741  0.7282  1.6684
   56c3c     HC  197   3.731   2.327   2.408 -1.4104 -0.2102  1.6314
   56c3c     HC  198   3.663   2.202   2.300 -0.8064 -0.7140  0.2136
   56c3c     HC  199   3.571   2.265   2.561 -0.7377  0.9881  0.6752
   56c3c     HC  200   3.489   2.172   2.434  0.0049  0.2115  0.3434
   56c3c     H1  201   3.614   2.651   2.349  0.4223  1.1514  1.0453
   56c3c     H1  202   3.501   2.630   2.489 -0.1002 -0.6461  0.2368
   56c3c     H1  203   3.642   2.537   2.473  0.3925 -1.4933 -2.5947
   56c3c     H1  204   3.319   2.606   2.307  1.1505 -0.7619  1.4035
   56c3c     H1  205   3.434   2.607   2.189 -0.0391 -0.3841 -0.2924
   56c3c     C2  206   3.296   2.437   2.168  0.7177  0.6530 -0.3579
   56c3c     HC  207   3.202   2.431   2.224  0.6184 -0.0681 -0.5957
   56c3c     HC  208   3.325   2.333   2.154 -0.6916 -0.0308  1.6341
   56c3c     CT  209   3.255   2.501   2.032  0.0316  0.1647 -0.2405
   56c3c     HC  210   3.333   2.480   1.960  0.5764  0.1476  0.3535
   56c3c     HC  211   3.253   2.610   2.041  1.1200  0.3448 -2.0027
   56c3c     HC  212   3.158   2.462   2.000  0.1790 -2.8677  2.7724
   57c3c     N4  213   3.333   0.580   2.780 -0.1025 -0.1477 -0.0099
   57c3c     C1  214   3.235   0.475   2.763 -0.0620 -0.0607  0.6800
   57c3c     C1  215   3.371   0.622   2.645 -0.4824  0.4296 -0.6051
   57c3c     C2  216   3.153   0.522   2.641 -0.4824 -0.4206  0.1515
   57c3c     C2  217   3.237   0.625   2.567 -0.3631 -1.0086  0.7039
   57c3c     C1  218   3.283   0.691   2.858  0.2799  0.2859  1.0202
   57c3c     C1  219   3.448   0.534   2.857 -0.3016 -0.4914 -0.3560
   57c3c     H1  220   3.175   0.448   2.850 -0.7257  1.7804  0.8127
   57c3c     H1  221   3.292   0.385   2.741 -0.0391 -0.2991  1.6598
   57c3c     H1  222   3.432   0.711   2.633  1.9345 -1.4157 -2.7185
   57c3c     H1  223   3.432   0.543   2.599  0.6496  0.2042  1.2388
   57c3c     HC  224   3.064   0.579   2.670  0.1541 -0.3944  2.1753
   57c3c     HC  225   3.130   0.449   2.564  0.4461 -1.4137  0.8059
   57c3c     HC  226   3.191   0.722   2.583 -0.6196 -1.0578  0.2790
   57c3c     HC  227   3.241   0.607   2.459 -1.4789  3.7075 -0.2446
   57c3c     H1  228   3.272   0.657   2.961  0.5077 -2.7319  0.0959
   57c3c     H1  229   3.347   0.779   2.853 -0.3271  0.6475 -0.8258
   57c3c     H1  230   3.190   0.737   2.823  0.9458  0.3349 -0.6936
   57c3c     H1  231   3.511   0.620   2.882 -0.2942 -0.6355  0.1387
   57c3c     H1  232   3.416   0.498   2.955  0.1876  2.3426  0.8859
   57c3c     C2  233   3.553   0.431   2.801 -0.3201  0.1988  0.3241
   57c3c     HC  234   3.600   0.483   2.718  0.1974  1.0904  1.1602
   57c3c     HC  235   3.504   0.347   2.754  0.4253 -0.2928  0.4125
   57c3c     CT  236   3.663   0.390   2.903 -0.1209  0.1325  0.3428
   57c3c     HC  237   3.618   0.360   2.997  0.1473  0.1342  0.4750
   57c3c     HC  238   3.728   0.469   2.941 -0.9450  0.6280  0.7183
   57c3c     HC  239   3.734   0.312   2.874 -0.0777 -1.0516  3.4172
   58c3c     N4  240   2.985   1.944   3.106 -0.1026  0.6521 -0.3250
   58c3c     C1  241   2.930   1.852   3.205 -0.4207 -0.0609 -0.5897
   58c3c     C1  242   2.953   2.076   3.158  0.2510  0.1605 -0.4612
   58c3c     C2  243   2.967   1.908   3.338 -0.3843  0.1704  0.3761
   58c3c     C2  244   2.978   2.054   3.311  0.1370 -0.3770  0.8010
   58c3c     C1  245   3.132   1.923   3.095 -0.6973 -0.2277  0.3428
   58c3c     C1  246   2.924   1.913   2.973 -0.5813  0.2595 -0.5630
   58c3c     H1  247   2.973   1.752   3.200  0.5245  0.3177 -0.0356
   58c3c     H1  248   2.821   1.842   3.204 -0.2431 -2.4074 -0.4948
   58c3c     H1  249   3.005   2.163   3.117  1.9220  0.2772  1.8394
   58c3c     H1  250   2.846   2.096   3.151  0.4327  1.1961 -0.4790
   58c3c     HC  251   3.061   1.870   3.377 -0.3352  0.4833  0.5655
   58c3c     HC  252   2.893   1.899   3.417  0.6396  0.8622  1.4337
   58c3c     HC  253   3.071   2.100   3.347  1.8773 -2.3929 -0.9662
   58c3c     HC  254   2.901   2.110   3.363  0.9620  2.3903 -0.8365
   58c3c     H1  255   3.153   1.825   3.053  0.5334  0.6390 -1.1402
   58c3c     H1  256   3.176   1.998   3.028 -2.5477  0.6927  0.1343
   58c3c     H1  257   3.191   1.921   3.187  0.4507 -0.9228 -0.3871
   58c3c     H1  258   2.973   1.968   2.893  1.4878 -1.6236 -0.6676
   58c3c     H1  259   2.952   1.810   2.951 -0.3706 -0.5072  2.9220
   58c3c     C2  260   2.770   1.916   2.958 -0.4751 -0.3174  0.6700
   58c3c     HC  261   2.723   2.000   3.010 -0.5052 -0.9608  1.6903
   58c3c     HC  262   2.729   1.829   3.008  2.4625 -1.0036  1.9320
   58c3c     CT  263   2.724   1.906   2.811 -0.1215 -0.7089 -0.3940
   58c3c     HC  264   2.792   1.839   2.758  1.4990 -1.1009  2.1333
   58c3c     HC  265   2.729   2.005   2.765  1.3785 -0.0334  1.1759
   58c3c     HC  266   2.620   1.875   2.805 -0.0058 -1.3739  0.8828
   59c3c     N4  267   1.820   3.831   3.010  1.1672 -0.2388 -0.6422
   59c3c     C1  268   1.788   3.930   3.123  0.1209 -0.2251 -0.1650
   59c3c     C1  269   1.918   3.740   3.069 -0.4207  0.4093 -0.0920
   59c3c     C2  270   1.787   3.848   3.250  0.8162 -0.6506  0.2619
   59c3c     C2  271   1.886   3.733   3.223 -0.5203  0.3199 -0.3005
   59c3c     C1  272   1.693   3.759   2.981 -0.6054  0.3664  0.4083
   59c3c     C1  273   1.868   3.889   2.881 -0.2792  0.2266  0.1138
   59c3c     H1  274   1.696   3.985   3.106  0.8431  0.9911 -0.2530
   59c3c     H1  275   1.860   4.011   3.135 -0.3689 -0.1775  2.7466
   59c3c     H1  276   1.934   3.644   3.020  1.7213 -0.0196  1.3513
   59c3c     H1  277   2.018   3.782   3.056  0.6376 -2.5729 -2.2225
   59c3c     HC  278   1.693   3.797   3.268  0.4611 -1.0459 -2.5373
   59c3c     HC  279   1.811   3.916   3.332 -0.3315 -0.5298  0.4961
   59c3c     HC  280   1.839   3.639   3.249 -1.3757  0.4537 -1.3272
   59c3c     HC  281   1.978   3.748   3.279  0.3471  0.3720 -1.7153
   59c3c     H1  282   1.609   3.828   2.986 -1.9860 -0.9277 -3.1663
   59c3c     H1  283   1.704   3.718   2.880 -0.1437 -1.3892  1.1563
   59c3c     H1  284   1.659   3.679   3.046  1.0965 -1.1272 -0.4812
   59c3c     H1  285   1.891   3.812   2.807  0.2454 -0.5412  1.0644
   59c3c     H1  286   1.778   3.935   2.839 -0.1431 -0.2935 -0.7660
   59c3c     C2  287   1.983   3.988   2.893 -0.7109 -0.3877  0.9999
   59c3c     HC  288   2.074   3.948   2.937  1.0686  1.8608 -0.5040
   59c3c     HC  289   1.959   4.077   2.951 -4.2652  0.6849 -1.8960
   59c3c     CT  290   2.028   4.047   2.750  0.1469 -0.2541  0.8886
   59c3c     HC  291   1.960   4.111   2.695  1.6748  2.3333  1.8759
   59c3c     HC  292   2.067   3.967   2.687  1.5866 -0.6694  2.2471
   59c3c     HC  293   2.108   4.120   2.763 -0.1296  0.1170  0.5110
   60c3c     N4  294   3.249   4.017   2.528 -0.2513 -0.0970 -0.9267
   60c3c     C1  295   3.389   4.021   2.578 -0.6306  0.2191  0.4449
   60c3c     C1  296   3.222   3.870   2.515  0.1558 -0.5646 -0.6871
   60c3c     C2  297   3.404   3.894   2.669 -0.5787 -0.4061 -1.2847
   60c3c     C2  298   3.289   3.807   2.633 -0.0154  1.0143 -0.4063
   60c3c     C1  299   3.162   4.077   2.638  0.0849  0.6438 -0.4709
   60c3c     C1  300   3.224   4.101   2.407  0.1199 -0.9618  0.1338
   60c3c     H1  301   3.408   4.112   2.634 -0.3059  0.5962 -0.2795
   60c3c     H1  302   3.455   4.015   2.492 -1.4381  1.8152 -0.3009
   60c3c     H1  303   3.115   3.850   2.519  0.4323 -2.0446 -0.1431
   60c3c     H1  304   3.268   3.819   2.429  3.1148 -3.1734  2.3020
   60c3c     HC  305   3.398   3.907   2.777 -0.2275 -1.6353 -1.1015
   60c3c     HC  306   3.491   3.834   2.641 -0.5525 -0.2588 -1.5163
   60c3c     HC  307   3.220   3.811   2.717  0.1949  2.2631 -0.2753
   60c3c     HC  308   3.315   3.703   2.617  1.6142  1.0467  1.8435
   60c3c     H1  309   3.192   4.181   2.651  3.4469 -0.0429 -2.2471
   60c3c     H1  310   3.056   4.074   2.614  0.6238 -2.5100 -2.7128
   60c3c     H1  311   3.171   4.020   2.730 -3.4507 -0.8426 -0.9447
   60c3c     H1  312   3.116   4.102   2.387  0.0375  1.4059  0.6154
   60c3c     H1  313   3.260   4.200   2.436  0.5627 -0.6633 -1.3847
   60c3c     C2  314   3.303   4.058   2.286 -0.8094 -0.6502  0.2193
   60c3c     HC  315   3.287   3.951   2.275 -1.2267 -0.4816 -0.8355
   60c3c     HC  316   3.410   4.067   2.305 -0.9514 -2.4646  1.9583
   60c3c     CT  317   3.277   4.140   2.153  0.2776 -0.2110  0.3599
   60c3c     HC  318   3.319   4.241   2.151 -1.8984  0.6735 -3.0845
   60c3c     HC  319   3.170   4.145   2.131 -0.2716  1.6607  3.1790
   60c3c     HC  320   3.321   4.099   2.062 -0.7886  0.1530 -0.3334
   61c3c     N4  321   1.988   1.433   2.907 -0.2556 -0.7217 -0.3510
   61c3c     C1  322   2.037   1.335   3.011  0.1700 -0.1855 -0.4658
   61c3c     C1  323   1.867   1.492   2.964  0.2666  0.2717 -0.1773
   61c3c     C2  324   1.991   1.409   3.146 -0.2497 -0.5341 -0.0398
   61c3c     C2  325   1.897   1.520   3.109 -0.3237  0.0125  0.0750
   61c3c     C1  326   2.091   1.545   2.893  0.0060 -0.6638  0.6510
   61c3c     C1  327   1.960   1.376   2.770 -0.4162 -0.3830 -0.3281
   61c3c     H1  328   2.145   1.327   3.020  0.1367 -0.0128  0.1550
   61c3c     H1  329   1.988   1.238   3.003  0.8066 -0.5962  0.4957
   61c3c     H1  330   1.839   1.582   2.910  0.5530  1.5752  1.7722
   61c3c     H1  331   1.785   1.420   2.963 -1.5082  2.1914  1.2957
   61c3c     HC  332   2.082   1.448   3.192  0.0148 -1.3379  0.1352
   61c3c     HC  333   1.937   1.332   3.202 -3.1654 -0.0435 -2.0481
   61c3c     HC  334   1.942   1.619   3.114 -0.0290 -0.0786 -0.7180
   61c3c     HC  335   1.807   1.529   3.170  0.1298  0.9993  0.6182
   61c3c     H1  336   2.178   1.517   2.833 -0.5916  0.2311 -0.6590
   61c3c     H1  337   2.053   1.626   2.830  0.5612 -1.1456 -0.3155
   61c3c     H1  338   2.136   1.572   2.989 -0.1696  0.4298  0.4327
   61c3c     H1  339   1.942   1.458   2.700  1.3381 -1.5401 -2.2103
   61c3c     H1  340   2.048   1.328   2.727  0.9708  1.1950  0.7233
   61c3c     C2  341   1.836   1.283   2.758  0.6452 -0.0380  0.4259
   61c3c     HC  342   1.741   1.336   2.770  0.0566 -1.3858  1.7991
   61c3c     HC  343   1.843   1.208   2.836 -1.3546  0.5506  1.2013
   61c3c     CT  344   1.832   1.223   2.614 -0.3564 -0.2157 -0.1105
   61c3c     HC  345   1.900   1.138   2.614 -0.4924 -0.3247 -0.3268
   61c3c     HC  346   1.878   1.298   2.549 -0.9842 -0.3374 -0.6892
   61c3c     HC  347   1.734   1.194   2.577 -0.2715 -1.8983  0.9438
   62c3c     N4  348   1.729   2.499   3.509 -0.2282 -0.0092 -0.0148
   62c3c     C1  349   1.755   2.647   3.505  0.3098  0.4929 -0.0221
   62c3c     C1  350   1.774   2.445   3.376 -0.1372  0.0018  1.1343
   62c3c     C2  351   1.878   2.666   3.411  0.0962  0.1023  0.0434
   62c3c     C2  352   1.908   2.527   3.361 -0.4325  0.1977  0.1177
   62c3c     C1  353   1.806   2.448   3.616  0.1944  0.0016  0.1759
   62c3c     C1  354   1.584   2.472   3.542 -0.3513  0.0179  0.1441
   62c3c     H1  355   1.774   2.708   3.593  0.7031  2.4440 -1.4211
   62c3c     H1  356   1.675   2.701   3.454  2.1322  0.3816 -3.0645
   62c3c     H1  357   1.777   2.336   3.374 -2.5163 -0.2784  6.0076
   62c3c     H1  358   1.713   2.482   3.293  1.6755 -1.5366 -0.9336
   62c3c     HC  359   1.972   2.702   3.453  0.9323 -0.6467 -1.1503
   62c3c     HC  360   1.845   2.722   3.324 -1.8312 -0.0520  0.6414
   62c3c     HC  361   1.988   2.492   3.425 -1.1195 -0.4569  0.6229
   62c3c     HC  362   1.946   2.512   3.260 -1.5408 -0.0428 -0.2705
   62c3c     H1  363   1.769   2.451   3.719  0.7269  1.6282  0.3287
   62c3c     H1  364   1.824   2.342   3.596  0.9482  0.8839 -4.1643
   62c3c     H1  365   1.907   2.485   3.633 -0.6439  2.0893  0.7101
   62c3c     H1  366   1.565   2.365   3.543  1.3739 -0.2929  0.1702
   62c3c     H1  367   1.563   2.515   3.640  2.1645  0.0900  0.6885
   62c3c     C2  368   1.477   2.533   3.446 -0.3372  0.4793 -0.1348
   62c3c     HC  369   1.512   2.498   3.349  0.7453 -3.6336  1.6081
   62c3c     HC  370   1.488   2.641   3.453  1.3506  0.3876 -0.9790
   62c3c     CT  371   1.333   2.489   3.471  0.0439  0.4411  0.5346
   62c3c     HC  372   1.327   2.380   3.478  2.8159 -0.1690 -4.3062
   62c3c     HC  373   1.257   2.506   3.395 -0.4342 -1.1374  0.6424
   62c3c     HC  374   1.297   2.546   3.557  0.5129 -0.3842  1.2821
   63c3c     N4  375   2.262   0.648   2.571  0.1414  0.0732  0.4361
   63c3c     C1  376   2.166   0.752   2.521  0.3247  0.2829  0.4685
   63c3c     C1  377   2.250   0.541   2.471  0.2441  0.2975  0.7936
   63c3c     C2  378   2.157   0.741   2.370 -0.4629 -0.4671  0.3504
   63c3c     C2  379   2.222   0.605   2.339  0.6540 -0.0079  0.5547
   63c3c     C1  380   2.396   0.707   2.559 -0.4939 -0.8292  0.8453
   63c3c     C1  381   2.239   0.606   2.709 -0.4590 -0.7076  0.5986
   63c3c     H1  382   2.186   0.854   2.554  0.7388  0.8146 -1.3841
   63c3c     H1  383   2.064   0.731   2.554  0.1494 -2.0006 -1.3899
   63c3c     H1  384   2.347   0.497   2.446 -0.8235 -1.5569 -0.2083
   63c3c     H1  385   2.174   0.469   2.501  0.9092 -0.8948 -0.3476
   63c3c     HC  386   2.204   0.821   2.312 -0.4630 -0.9718 -0.3462
   63c3c     HC  387   2.056   0.760   2.332  1.1248  0.7860 -3.4936
   63c3c     HC  388   2.314   0.623   2.283  0.6932 -0.4141  0.4898
   63c3c     HC  389   2.158   0.539   2.280 -2.0570  1.6800  1.5211
   63c3c     H1  390   2.412   0.776   2.642  1.5072 -0.3161  0.0548
   63c3c     H1  391   2.471   0.628   2.568  1.3747  0.6281 -1.3571
   63c3c     H1  392   2.404   0.769   2.470  1.6869  1.4620  2.5504
   63c3c     H1  393   2.325   0.544   2.737 -0.0947  0.2133  1.5625
   63c3c     H1  394   2.239   0.684   2.785  0.1751  0.3367 -0.4581
   63c3c     C2  395   2.115   0.521   2.738 -0.3783  0.0447  0.0972
   63c3c     HC  396   2.119   0.419   2.700  0.2613 -0.0292  0.3679
   63c3c     HC  397   2.031   0.572   2.689  0.9179  0.4479 -1.7608
   63c3c     CT  398   2.074   0.490   2.884 -0.3502  0.0661  0.1285
   63c3c     HC  399   2.144   0.435   2.947  0.2300  1.5130  0.7739
   63c3c     HC  400   1.983   0.431   2.895 -0.8178  0.9883  1.3532
   63c3c     HC  401   2.047   0.582   2.937  0.3056 -0.6601  1.7351
   64c3c     N4  402   2.663   1.111   3.260 -0.4307  0.5309 -0.4369
   64c3c     C1  403   2.653   0.999   3.359 -0.0662  0.2070  0.2957
   64c3c     C1  404   2.528   1.117   3.200 -0.2360 -0.0353 -0.4270
   64c3c     C2  405   2.517   1.016   3.425 -0.1134 -0.6471 -0.2780
   64c3c     C2  406   2.435   1.093   3.320  0.1681  0.0639  1.0425
   64c3c     C1  407   2.684   1.241   3.335  0.3798 -0.7035  0.2696
   64c3c     C1  408   2.773   1.092   3.164 -0.4194  0.2670 -0.1191
   64c3c     H1  409   2.735   1.007   3.430  0.1279  2.6616 -0.1972
   64c3c     H1  410   2.664   0.898   3.318 -0.9563 -0.3249  1.3212
   64c3c     H1  411   2.506   1.218   3.164 -2.5074 -0.2387  0.3004
   64c3c     H1  412   2.516   1.044   3.120  0.1043 -2.4578  1.6770
   64c3c     HC  413   2.534   1.083   3.510  1.2331  0.1065 -1.1228
   64c3c     HC  414   2.467   0.930   3.469  0.6989 -0.2720  1.4452
   64c3c     HC  415   2.397   1.184   3.367  0.7102  1.3133 -0.9058
   64c3c     HC  416   2.346   1.036   3.293  0.5276 -1.2238  2.4951
   64c3c     H1  417   2.779   1.239   3.389  1.3593 -0.1954 -1.3825
   64c3c     H1  418   2.690   1.324   3.265 -0.3304 -0.2685  0.7183
   64c3c     H1  419   2.606   1.280   3.400  2.1222  0.3280  1.8041
   64c3c     H1  420   2.772   1.174   3.093 -0.9026 -0.5507 -1.0802
   64c3c     H1  421   2.871   1.113   3.208 -0.3309  1.7920 -1.0186
   64c3c     C2  422   2.786   0.958   3.083 -0.4112  0.3246 -0.2840
   64c3c     HC  423   2.689   0.938   3.037 -0.2999 -2.1230  0.4576
   64c3c     HC  424   2.809   0.871   3.145 -2.4087 -0.1285 -0.1334
   64c3c     CT  425   2.891   0.962   2.967  0.2519 -0.2445 -0.2189
   64c3c     HC  426   2.986   0.976   3.018 -0.4615  0.9240  0.8072
   64c3c     HC  427   2.863   1.044   2.900  1.4054  1.1700  1.0096
   64c3c     HC  428   2.889   0.865   2.917 -0.0187 -0.7942  0.8479
   65c3c     N4  429   3.636   1.389   2.405 -0.2765  0.3031  0.0880
   65c3c     C1  430   3.699   1.350   2.531 -0.7772  0.3212 -0.0975
   65c3c     C1  431   3.735   1.331   2.310  0.9102  0.2678 -0.5566
   65c3c     C2  432   3.755   1.203   2.521 -0.5017  0.9747 -0.0114
   65c3c     C2  433   3.791   1.198   2.371 -0.1526 -0.3862  0.0265
   65c3c     C1  434   3.507   1.330   2.389 -0.4781  0.6823 -0.1370
   65c3c     C1  435   3.614   1.535   2.390  0.4704  0.6501  0.0127
   65c3c     H1  436   3.628   1.362   2.613  1.9578  1.3942  2.1969
   65c3c     H1  437   3.779   1.417   2.562 -1.5934  1.1977  0.1562
   65c3c     H1  438   3.687   1.300   2.217  0.1412  2.1740 -0.8106
   65c3c     H1  439   3.820   1.395   2.287  1.2588  0.3226  0.8389
   65c3c     HC  440   3.672   1.136   2.538 -0.0383  0.1491 -0.9682
   65c3c     HC  441   3.830   1.162   2.589  0.3256  2.1073 -0.2085
   65c3c     HC  442   3.744   1.112   2.323 -1.2035  1.2280 -1.9267
   65c3c     HC  443   3.897   1.192   2.346 -0.0291  1.5322 -0.0019
   65c3c     H1  444   3.436   1.367   2.464  0.9851  0.3128  1.4422
   65c3c     H1  445   3.465   1.356   2.292  0.1383 -0.9381 -0.8577
   65c3c     H1  446   3.504   1.222   2.400 -1.8996  0.7531  0.3939
   65c3c     H1  447   3.604   1.559   2.284  0.3274  2.1873  0.3591
   65c3c     H1  448   3.515   1.566   2.424 -0.2303 -0.6068 -0.8410
   65c3c     C2  449   3.724   1.629   2.432  0.6599  0.1429 -0.0777
   65c3c     HC  450   3.809   1.598   2.371  0.7506  1.3819 -0.5945
   65c3c     HC  451   3.747   1.625   2.539  1.5579  0.9593 -0.2325
   65c3c     CT  452   3.690   1.782   2.402  0.1731 -0.0668 -0.3467
   65c3c     HC  453   3.603   1.816   2.459  0.3106 -0.8385  0.3246
   65c3c     HC  454   3.670   1.821   2.302  0.2453 -1.4601 -0.9091
   65c3c     HC  455   3.774   1.849   2.418  0.0423  0.2513 -0.9819
   66c3c     N4  456   2.407   5.551   3.506  0.8616  0.0960 -0.1134
   66c3c     C1  457   2.340   5.559   3.640 -0.5492  0.0696  0.6431
   66c3c     C1  458   2.309   5.471   3.430 -0.6061  1.0491  0.4935
   66c3c     C2  459   2.194   5.578   3.609 -0.6227 -0.4713 -0.3819
   66c3c     C2  460   2.171   5.511   3.473 -0.1777 -0.1926 -0.1613
   66c3c     C1  461   2.413   5.690   3.450  0.0111  0.4561 -0.3889
   66c3c     C1  462   2.545   5.500   3.499  0.4222  0.4105  0.4951
   66c3c     H1  463   2.387   5.633   3.705 -0.7296 -1.1131  2.1445
   66c3c     H1  464   2.349   5.463   3.691  2.2331 -1.2215 -2.0682
   66c3c     H1  465   2.318   5.464   3.321 -1.9641  3.2681  0.2176
   66c3c     H1  466   2.317   5.366   3.458 -0.3471  0.6892 -0.8606
   66c3c     HC  467   2.177   5.685   3.598 -0.0603 -0.6887 -4.2159
   66c3c     HC  468   2.132   5.534   3.687  0.8444 -1.0687  0.4716
   66c3c     HC  469   2.121   5.578   3.403  1.0796  0.6268 -0.2874
   66c3c     HC  470   2.100   5.428   3.478 -2.2194  1.1783 -4.3274
   66c3c     H1  471   2.475   5.754   3.512  1.5766 -2.4403  1.1581
   66c3c     H1  472   2.455   5.689   3.350  0.5032  0.6212 -0.1832
   66c3c     H1  473   2.316   5.737   3.436  1.1906  3.2772  0.5626
   66c3c     H1  474   2.572   5.478   3.395  0.7945  1.9720  0.2459
   66c3c     H1  475   2.618   5.575   3.531  0.2291  0.7490  0.1514
   66c3c     C2  476   2.578   5.372   3.576 -0.2520  0.1150  0.2987
   66c3c     HC  477   2.514   5.289   3.546 -1.5181  1.0437  0.3520
   66c3c     HC  478   2.552   5.378   3.681  0.9273 -0.5433  0.6312
   66c3c     CT  479   2.724   5.337   3.572 -0.2213 -0.6762  0.1113
   66c3c     HC  480   2.739   5.239   3.616 -2.6606 -1.3255 -0.4202
   66c3c     HC  481   2.786   5.407   3.628  0.9384 -2.1078  0.6145
   66c3c     HC  482   2.770   5.352   3.474 -3.8061  0.5472 -1.4959
   67c3c     N4  483   2.640   2.424   2.297 -0.1756  0.0503  0.2884
   67c3c     C1  484   2.623   2.536   2.205 -0.0372  0.4039  0.0627
   67c3c     C1  485   2.678   2.325   2.202  0.1270  0.8859  0.6384
   67c3c     C2  486   2.721   2.535   2.094 -0.4625  0.5253  0.1286
   67c3c     C2  487   2.774   2.392   2.098 -0.6822 -0.0625  0.4591
   67c3c     C1  488   2.751   2.441   2.388 -1.4249 -0.7631 -0.6842
   67c3c     C1  489   2.519   2.393   2.371 -0.0929 -0.2718 -0.7167
   67c3c     H1  490   2.615   2.628   2.263 -3.9693  1.7192 -2.4125
   67c3c     H1  491   2.532   2.522   2.148 -0.4173  1.4451  0.4007
   67c3c     H1  492   2.705   2.232   2.252 -0.5974  0.7667  0.8108
   67c3c     H1  493   2.587   2.300   2.147 -0.1845  2.2719  0.5147
   67c3c     HC  494   2.803   2.606   2.108 -0.8883  1.1837 -0.6776
   67c3c     HC  495   2.673   2.565   2.001 -0.8195  2.8132  1.0348
   67c3c     HC  496   2.877   2.387   2.132 -0.1894 -1.5859 -1.1815
   67c3c     HC  497   2.774   2.345   1.999  2.5925 -3.3736  1.9122
   67c3c     H1  498   2.757   2.522   2.460  0.5658 -1.6504  0.1658
   67c3c     H1  499   2.755   2.351   2.449 -0.1916  0.1352  0.5976
   67c3c     H1  500   2.842   2.455   2.329 -1.2288 -0.6717 -0.3552
   67c3c     H1  501   2.436   2.353   2.313 -0.6890 -1.2570  0.7669
   67c3c     H1  502   2.535   2.304   2.433  1.2309  1.1162  1.0066
   67c3c     C2  503   2.471   2.498   2.473  0.6730 -0.2514 -0.2319
   67c3c     HC  504   2.402   2.557   2.412  0.3462  0.9484  1.2733
   67c3c     HC  505   2.552   2.565   2.501 -1.1305  2.5107 -1.4014
   67c3c     CT  506   2.399   2.435   2.587  0.1138  0.3985  0.8294
   67c3c     HC  507   2.475   2.401   2.658 -0.3692  0.7108  1.4992
   67c3c     HC  508   2.337   2.351   2.558  1.2603 -1.7800  4.3953
   67c3c     HC  509   2.338   2.505   2.645  0.3261  0.9415  0.4109
   68c3c     N4  510   3.424   1.398   3.157 -0.1127  0.7143  0.1853
   68c3c     C1  511   3.555   1.464   3.163  0.1077 -0.3634  0.2898
   68c3c     C1  512   3.337   1.480   3.240  0.7220 -0.4641  0.0761
   68c3c     C2  513   3.527   1.613   3.177  0.3084  0.0497 -0.3183
   68c3c     C2  514   3.382   1.619   3.221  0.7591  0.5201 -0.1865
   68c3c     C1  515   3.379   1.395   3.017  0.4395  0.6657  0.3185
   68c3c     C1  516   3.415   1.253   3.184  0.3652  0.0460  0.6076
   68c3c     H1  517   3.624   1.439   3.083 -0.0487  3.2470 -1.0479
   68c3c     H1  518   3.609   1.424   3.249  0.6561 -0.2420  0.0028
   68c3c     H1  519   3.235   1.454   3.213  0.5027 -0.2649  0.6983
   68c3c     H1  520   3.362   1.468   3.345  2.8341 -2.4807 -0.6118
   68c3c     HC  521   3.541   1.666   3.083  1.8613 -1.8394 -1.1828
   68c3c     HC  522   3.588   1.671   3.247  0.6682 -0.2377 -0.3883
   68c3c     HC  523   3.313   1.663   3.149 -0.7715  1.2973  1.7006
   68c3c     HC  524   3.372   1.677   3.313 -1.8667  0.5393 -0.4595
   68c3c     H1  525   3.453   1.348   2.952 -0.3062  1.2858 -0.9847
   68c3c     H1  526   3.284   1.345   2.999  0.9247 -0.5451  1.0313
   68c3c     H1  527   3.357   1.495   2.980  0.9718  0.9512  0.7635
   68c3c     H1  528   3.317   1.209   3.165  0.3083 -0.9770  3.0309
   68c3c     H1  529   3.489   1.197   3.126  1.2038 -0.0259  1.7322
   68c3c     C2  530   3.454   1.205   3.324  0.2955 -0.3179  0.0335
   68c3c     HC  531   3.367   1.233   3.385  1.6544 -0.6248  2.1639
   68c3c     HC  532   3.537   1.262   3.363  0.0700  0.2095 -0.2521
   68c3c     CT  533   3.478   1.053   3.340 -0.9179  0.2218 -0.1551
   68c3c     HC  534   3.573   1.032   3.291 -0.6910  1.5962 -0.3323
   68c3c     HC  535   3.411   0.984   3.288  0.9010 -0.6383 -1.4014
   68c3c     HC  536   3.489   1.021   3.444  1.2631 -1.9777 -1.0216
   69c3c     N4  537   2.741   1.617   2.336  0.1929  0.1177  0.1539
   69c3c     C1  538   2.794   1.728   2.410  0.1020  0.4380 -0.1330
   69c3c     C1  539   2.851   1.569   2.258  0.0058  0.3911  0.3605
   69c3c     C2  540   2.933   1.696   2.451 -0.2680 -0.1988  0.2033
   69c3c     C2  541   2.970   1.581   2.358 -0.6467 -0.3436  0.1619
   69c3c     C1  542   2.686   1.508   2.417 -0.5639  1.1300 -0.2216
   69c3c     C1  543   2.628   1.664   2.257 -0.0511 -0.0025  0.1895
   69c3c     H1  544   2.732   1.756   2.495  1.6547  1.2678  0.7424
   69c3c     H1  545   2.801   1.815   2.345  0.1065  0.4515 -0.1145
   69c3c     H1  546   2.834   1.471   2.214 -0.3844  0.8812 -0.6086
   69c3c     H1  547   2.870   1.635   2.173  1.7082  1.3384  1.4590
   69c3c     HC  548   2.927   1.648   2.549  0.5990  2.5683  1.6733
   69c3c     HC  549   2.999   1.782   2.443 -0.8932  0.1670 -1.2271
   69c3c     HC  550   2.980   1.483   2.405  0.4874  0.0376  0.7165
   69c3c     HC  551   3.067   1.593   2.310 -1.0932  0.4597 -0.5550
   69c3c     H1  552   2.636   1.547   2.506 -0.5176  1.4883 -0.3519
   69c3c     H1  553   2.628   1.427   2.374 -0.1525 -0.4388  2.0793
   69c3c     H1  554   2.768   1.451   2.461  0.7227  2.1434 -1.2573
   69c3c     H1  555   2.583   1.577   2.209  1.8506 -0.2861 -1.1622
   69c3c     H1  556   2.556   1.697   2.331 -0.9542 -0.8363 -0.3135
   69c3c     C2  557   2.640   1.773   2.147 -0.1049 -0.0775  0.2120
   69c3c     HC  558   2.715   1.750   2.072 -0.3978 -2.4569  0.6121
   69c3c     HC  559   2.667   1.867   2.196 -0.1324  0.0616 -0.0419
   69c3c     CT  560   2.516   1.804   2.072 -0.5220 -0.6549  0.3123
   69c3c     HC  561   2.542   1.841   1.973 -2.0578  1.2459  0.5871
   69c3c     HC  562   2.466   1.887   2.122  2.4316  1.6731 -0.3950
   69c3c     HC  563   2.460   1.711   2.069  0.2342 -1.2219  2.8296
   70c3c     N4  564   3.142   0.860   1.872 -0.0923 -0.0639 -0.1096
   70c3c     C1  565   3.113   1.004   1.875  0.6814  0.6616  0.1712
   70c3c     C1  566   3.211   0.835   2.002 -1.2093  0.4780  0.4811
   70c3c     C2  567   3.098   1.047   2.021  0.0227 -0.4230  0.1950
   70c3c     C2  568   3.136   0.925   2.100 -0.3003 -0.2367 -0.1683
   70c3c     C1  569   3.010   0.790   1.880  0.0778  0.7068 -0.0522
   70c3c     C1  570   3.213   0.819   1.755  0.6674  0.1085 -0.2552
   70c3c     H1  571   3.024   1.029   1.816  0.5924 -0.9459 -0.3831
   70c3c     H1  572   3.186   1.065   1.820 -0.2415  2.6426  1.0714
   70c3c     H1  573   3.201   0.732   2.038 -1.1869  0.6446  0.9592
   70c3c     H1  574   3.316   0.864   1.997 -0.7974 -1.2391 -1.9388
   70c3c     HC  575   2.996   1.080   2.036 -0.0885 -1.6272  2.3256
   70c3c     HC  576   3.160   1.133   2.046  0.3071 -1.1823  2.1851
   70c3c     HC  577   3.053   0.871   2.146 -1.1766  1.3009  0.0812
   70c3c     HC  578   3.204   0.960   2.178  1.2873 -3.6711  0.1239
   70c3c     H1  579   2.947   0.801   1.791  0.0774  0.0756 -0.1307
   70c3c     H1  580   3.027   0.685   1.905 -2.2257  0.9652  2.8546
   70c3c     H1  581   2.948   0.831   1.960 -0.4213  0.5215 -0.3368
   70c3c     H1  582   3.238   0.714   1.773  1.5381  0.8084  2.8985
   70c3c     H1  583   3.146   0.816   1.669  0.4978 -2.5857 -0.0818
   70c3c     C2  584   3.344   0.884   1.709  0.0364  0.5622 -0.2474
   70c3c     HC  585   3.407   0.890   1.797 -1.2434 -0.7279  0.7905
   70c3c     HC  586   3.322   0.983   1.668 -0.7346 -0.4905 -2.4725
   70c3c     CT  587   3.424   0.794   1.613 -0.1235  0.5221  0.1447
   70c3c     HC  588   3.520   0.845   1.614 -0.1482  0.5754 -0.0628
   70c3c     HC  589   3.391   0.802   1.510  1.1791  2.7667 -0.1329
   70c3c     HC  590   3.446   0.693   1.648  2.4221  0.3270 -1.9142
   71c3c     N4  591   1.792   3.094   2.325 -0.6687  0.0950 -0.8355
   71c3c     C1  592   1.810   3.018   2.202 -0.4504  0.1931 -0.6691
   71c3c     C1  593   1.650   3.109   2.329 -0.3401  0.2757  0.6883
   71c3c     C2  594   1.709   2.906   2.197  0.2026  0.0651 -0.3355
   71c3c     C2  595   1.593   2.978   2.270 -0.7644  0.5795 -0.0004
   71c3c     C1  596   1.849   3.021   2.436  0.9633 -0.2566 -1.0055
   71c3c     C1  597   1.870   3.219   2.314 -0.0346  0.3105  0.9139
   71c3c     H1  598   1.910   2.980   2.181  0.9254  4.3888 -2.1605
   71c3c     H1  599   1.798   3.084   2.117  1.0210 -0.6355 -1.5535
   71c3c     H1  600   1.622   3.125   2.433 -3.2907 -0.4253  0.0320
   71c3c     H1  601   1.621   3.195   2.269  1.9807  1.4277  1.1541
   71c3c     HC  602   1.742   2.822   2.259  0.6628  0.6551  0.2208
   71c3c     HC  603   1.678   2.880   2.096 -0.0202  0.1392 -0.2852
   71c3c     HC  604   1.564   2.918   2.356 -0.4143 -4.0048 -2.9093
   71c3c     HC  605   1.510   3.009   2.207 -1.4264  0.8189  0.9843
   71c3c     H1  606   1.955   3.003   2.423  0.9323 -0.4459 -0.9948
   71c3c     H1  607   1.848   3.079   2.528  1.9928  2.5081 -2.6499
   71c3c     H1  608   1.796   2.927   2.453  1.5345 -0.7752 -2.0680
   71c3c     H1  609   1.831   3.281   2.394  1.1614  0.7801  1.1472
   71c3c     H1  610   1.977   3.211   2.332  0.0808  0.7663  0.4508
   71c3c     C2  611   1.852   3.305   2.182  0.0983  0.9166  0.5338
   71c3c     HC  612   1.750   3.343   2.175 -0.1587 -0.0651 -1.8282
   71c3c     HC  613   1.875   3.256   2.087  1.3630  1.4409  0.5595
   71c3c     CT  614   1.954   3.423   2.190 -0.5618 -0.4670  0.0123
   71c3c     HC  615   2.057   3.390   2.203 -0.8784 -1.3519  0.2778
   71c3c     HC  616   1.939   3.487   2.278 -0.4457 -1.4977  0.7863
   71c3c     HC  617   1.946   3.498   2.111  0.0045 -1.0622 -0.6100
   72c3c     N4  618   2.187   5.460   2.502 -0.2683 -0.2205 -0.2358
   72c3c     C1  619   2.056   5.399   2.483  0.1030  0.5046  0.2665
   72c3c     C1  620   2.162   5.601   2.474  0.1083 -0.4022 -0.1723
   72c3c     C2  621   1.962   5.502   2.550  0.3468  1.0706  0.8518
   72c3c     C2  622   2.038   5.633   2.555 -0.6152  0.4499 -0.8231
   72c3c     C1  623   2.239   5.448   2.642 -0.0444 -0.2118  0.0679
   72c3c     C1  624   2.290   5.402   2.413 -0.4855  0.3441  0.7704
   72c3c     H1  625   2.051   5.302   2.532  1.1170  0.4421  0.2603
   72c3c     H1  626   2.030   5.387   2.378 -2.0887  0.0887  0.8368
   72c3c     H1  627   2.243   5.669   2.503  0.2303  0.3460 -2.1754
   72c3c     H1  628   2.138   5.621   2.370 -2.6782  0.1082  0.5162
   72c3c     HC  629   1.945   5.472   2.654 -1.8493 -0.4681  0.0778
   72c3c     HC  630   1.869   5.510   2.495  0.7321  0.1056  0.0438
   72c3c     HC  631   2.048   5.667   2.658  0.3527  0.7920 -1.0288
   72c3c     HC  632   1.991   5.714   2.500 -1.9686 -0.1679 -0.5888
   72c3c     H1  633   2.234   5.342   2.667  1.3806 -0.6155 -1.2862
   72c3c     H1  634   2.338   5.483   2.673  0.0864 -0.3492 -0.1965
   72c3c     H1  635   2.168   5.481   2.718  1.2612 -0.5713  1.4755
   72c3c     H1  636   2.385   5.436   2.453  1.6218 -1.5385 -2.4365
   72c3c     H1  637   2.294   5.295   2.432 -0.8606  0.0836 -0.5454
   72c3c     C2  638   2.287   5.434   2.261 -0.1165  0.0040  0.7017
   72c3c     HC  639   2.286   5.543   2.249  0.3633  0.0508  1.1094
   72c3c     HC  640   2.186   5.411   2.225  0.4835 -1.2595 -0.1868
   72c3c     CT  641   2.398   5.352   2.185  0.4507 -0.0190 -0.6328
   72c3c     HC  642   2.500   5.388   2.203  0.7787 -0.6753 -1.1228
   72c3c     HC  643   2.387   5.336   2.077 -0.0573 -0.9427 -0.4487
   72c3c     HC  644   2.399   5.249   2.219 -1.0236  0.2331  0.2170
   73c3c     N4  645   3.122   2.621   3.111  0.9245  0.0351  0.4816
   73c3c     C1  646   3.248   2.677   3.163  0.1191  0.2871  0.5640
   73c3c     C1  647   3.092   2.517   3.211 -0.4283 -0.2504  0.5962
   73c3c     C2  648   3.235   2.694   3.308  0.0443  0.2356  0.6338
   73c3c     C2  649   3.122   2.586   3.345  0.1331  0.4586 -0.1568
   73c3c     C1  650   3.004   2.718   3.110 -0.2488  0.2575 -0.4857
   73c3c     C1  651   3.125   2.567   2.974 -0.0887  0.5596 -0.5449
   73c3c     H1  652   3.281   2.768   3.114  0.6620 -0.5347 -0.6259
   73c3c     H1  653   3.329   2.603   3.155 -0.6084 -0.5765  1.0832
   73c3c     H1  654   2.995   2.469   3.198  0.4701 -2.2883  1.2590
   73c3c     H1  655   3.168   2.439   3.202  0.9216  0.8320  2.0662
   73c3c     HC  656   3.213   2.798   3.331 -0.1670  0.2044  0.5797
   73c3c     HC  657   3.331   2.673   3.355  1.2647  3.4535 -0.2744
   73c3c     HC  658   3.028   2.627   3.382  0.3764  1.3216 -0.4781
   73c3c     HC  659   3.170   2.512   3.409  0.3566  0.3932 -0.3995
   73c3c     H1  660   3.024   2.788   3.028 -1.7016  0.4237 -0.7130
   73c3c     H1  661   2.912   2.673   3.074  0.4910 -1.2933 -0.4482
   73c3c     H1  662   2.988   2.789   3.192  1.4715 -0.3302  0.3737
   73c3c     H1  663   3.034   2.512   2.950  1.5276 -2.3796 -0.1349
   73c3c     H1  664   3.129   2.648   2.902 -0.4394  0.1277 -1.0489
   73c3c     C2  665   3.243   2.478   2.945  0.1850  0.8732  0.5144
   73c3c     HC  666   3.258   2.405   3.025  2.5565 -0.6897 -1.3272
   73c3c     HC  667   3.331   2.542   2.955  1.9860 -1.2937 -1.1310
   73c3c     CT  668   3.244   2.409   2.805 -0.4174 -0.3205 -0.1458
   73c3c     HC  669   3.330   2.341   2.802 -0.8340 -0.8339 -0.3764
   73c3c     HC  670   3.264   2.483   2.727  4.6912  1.6120  2.6786
   73c3c     HC  671   3.146   2.365   2.793 -1.1275  1.4417 -0.9351
   74c3c     N4  672   3.695   3.052   2.695 -0.0585  0.0132  0.4808
   74c3c     C1  673   3.717   2.972   2.821  0.6373  0.0922  0.0744
   74c3c     C1  674   3.586   2.973   2.631 -0.1714 -0.0229 -0.0420
   74c3c     C2  675   3.581   2.935   2.879  0.1948  0.1326  0.1618
   74c3c     C2  676   3.496   2.932   2.751  0.0482 -0.3159 -1.0600
   74c3c     C1  677   3.653   3.186   2.734 -0.1230 -0.0108  0.3944
   74c3c     C1  678   3.816   3.065   2.607  0.1009  0.1483  0.1472
   74c3c     H1  679   3.780   3.032   2.888  0.6120  1.0983 -0.7979
   74c3c     H1  680   3.761   2.874   2.803 -0.7363 -0.3806 -0.7331
   74c3c     H1  681   3.534   3.027   2.552 -1.0430 -0.6223  0.1133
   74c3c     H1  682   3.627   2.878   2.596  0.3184  0.4318 -0.7202
   74c3c     HC  683   3.548   3.018   2.942  0.1282  0.3588 -0.1678
   74c3c     HC  684   3.587   2.839   2.930  1.0623  0.1250  0.0580
   74c3c     HC  685   3.420   3.007   2.774 -0.2470 -1.0332  0.3805
   74c3c     HC  686   3.441   2.838   2.741  0.4340 -0.8633  1.6233
   74c3c     H1  687   3.720   3.238   2.802  0.6589  1.0016 -1.1244
   74c3c     H1  688   3.631   3.246   2.646 -2.6043  1.1477  1.7517
   74c3c     H1  689   3.557   3.188   2.786 -0.4113  0.7091 -0.1567
   74c3c     H1  690   3.806   3.120   2.513  0.4875 -0.0946 -0.0382
   74c3c     H1  691   3.887   3.134   2.653 -0.3229  1.0528 -0.5200
   74c3c     C2  692   3.884   2.937   2.566  0.6172  0.5144  0.4004
   74c3c     HC  693   3.813   2.864   2.527 -0.0315 -0.0643  2.5706
   74c3c     HC  694   3.915   2.892   2.660  2.2857 -0.6770 -0.6861
   74c3c     CT  695   4.005   2.967   2.474 -0.8845  1.0593 -0.3349
   74c3c     HC  696   4.040   2.875   2.427  0.6632  1.8732 -0.8093
   74c3c     HC  697   4.090   3.014   2.525  0.3684 -1.4448 -0.0330
   74c3c     HC  698   3.973   3.033   2.394  1.3954  0.4819 -1.7764
   75c3c     N4  699   3.738   0.301   1.915  0.3667  0.1309  0.0527
   75c3c     C1  700   3.702   0.163   1.878  0.5308 -0.3259 -0.4398
   75c3c     C1  701   3.848   0.335   1.827  0.0475 -0.1504  0.3142
   75c3c     C2  702   3.715   0.154   1.723 -0.6710  0.0630  0.3486
   75c3c     C2  703   3.817   0.260   1.690 -0.0026 -0.2969 -0.5223
   75c3c     C1  704   3.629   0.393   1.887 -0.5963 -0.6571 -0.3476
   75c3c     C1  705   3.768   0.331   2.053  0.1763 -0.2437 -0.2556
   75c3c     H1  706   3.609   0.131   1.926  1.2784 -1.1826  0.4335
   75c3c     H1  707   3.777   0.093   1.912 -0.8067 -1.8403 -0.5595
   75c3c     H1  708   3.870   0.438   1.799 -3.4251  0.3190 -0.9191
   75c3c     H1  709   3.945   0.296   1.857  0.7077 -0.5617 -2.2831
   75c3c     HC  710   3.620   0.173   1.672  0.1348  1.5904 -0.6052
   75c3c     HC  711   3.750   0.053   1.700  0.6591  0.6304 -0.1275
   75c3c     HC  712   3.780   0.325   1.611 -0.7073 -0.0354  0.0189
   75c3c     HC  713   3.911   0.220   1.652  0.3364  0.6193 -0.6667
   75c3c     H1  714   3.544   0.372   1.952 -1.7676  0.0461 -1.6194
   75c3c     H1  715   3.652   0.499   1.897 -0.3534 -0.7992  0.6102
   75c3c     H1  716   3.590   0.385   1.785 -0.9270 -2.2210 -0.1159
   75c3c     H1  717   3.786   0.437   2.072 -0.2998 -0.1562 -0.2905
   75c3c     H1  718   3.682   0.310   2.116 -0.9265  2.5988 -0.7494
   75c3c     C2  719   3.887   0.261   2.121  0.2483  0.3104  0.0265
   75c3c     HC  720   3.981   0.310   2.095 -0.0651  0.9066  0.0045
   75c3c     HC  721   3.893   0.156   2.093  3.3622  0.6568 -0.7654
   75c3c     CT  722   3.876   0.277   2.271 -0.2122 -0.3755 -0.7730
   75c3c     HC  723   3.949   0.215   2.324  1.3312  1.2452 -0.9582
   75c3c     HC  724   3.781   0.244   2.314  1.2070 -0.6250  2.3256
   75c3c     HC  725   3.894   0.379   2.305  1.8486 -0.4906 -1.4804
   76fsi    FSI  726   3.359   0.296   1.736  0.2266 -0.2163 -0.5476
   76fsi    SBT  727   3.211   0.311   1.792 -0.1727  0.0923  0.2360
   76fsi    NBT  728   3.130   0.323   1.658 -0.2219  0.2115 -0.1070
   76fsi    OBT  729   3.188   0.180   1.854 -0.2685  0.1725  0.6146
   76fsi    OBT  730   3.213   0.429   1.873  0.3309 -0.7463 -0.0992
   76fsi    SBT  731   3.085   0.446   1.573  0.2811 -0.3338  0.5924
   76fsi    OBT  732   3.049   0.555   1.658  0.1402  0.2752  0.3805
   76fsi    OBT  733   3.002   0.413   1.464 -0.0845 -0.3056 -0.5502
   76fsi    FSI  734   3.221   0.491   1.506 -0.1785 -0.3601  0.0715
   77fsi    FSI  735   1.872   2.772   2.913 -0.1510 -0.1382 -0.2639
   77fsi    SBT  736   1.848   2.620   2.955 -0.1847 -0.1066 -0.4977
   77fsi    NBT  737   1.801   2.539   2.829 -0.3509 -0.3603  0.2502
   77fsi    OBT  738   1.981   2.580   2.996  0.5903  0.7441 -0.4669
   77fsi    OBT  739   1.758   2.626   3.063 -0.3814  0.4643 -0.1282
   77fsi    SBT  740   1.657   2.471   2.800  0.2607  0.1248 -0.3612
   77fsi    OBT  741   1.637   2.441   2.658  0.2301  0.1271  0.0102
   77fsi    OBT  742   1.552   2.518   2.883 -0.2282  0.2102  0.3160
   77fsi    FSI  743   1.674   2.327   2.860 -0.3180 -0.0867  0.0951
   78fsi    FSI  744   3.423   0.970   2.357 -0.1503 -0.0880 -0.1853
   78fsi    SBT  745   3.536   0.862   2.341 -0.5129  0.0453 -0.0528
   78fsi    NBT  746   3.463   0.735   2.289 -0.1134  0.4573  0.0468
   78fsi    OBT  747   3.622   0.925   2.244  0.1090  0.1504 -0.3100
   78fsi    OBT  748   3.594   0.841   2.471 -0.1865 -0.3203  0.1825
   78fsi    SBT  749   3.499   0.642   2.169  0.3338  0.2384  0.0083
   78fsi    OBT  750   3.545   0.716   2.050  1.0012 -0.1376 -0.3805
   78fsi    OBT  751   3.404   0.535   2.150  0.7965  0.2173 -0.0389
   78fsi    FSI  752   3.631   0.570   2.213  0.1120  0.2415  1.2156
   79fsi    FSI  753   2.068   2.541   2.427 -0.2016 -0.4419  0.2214
   79fsi    SBT  754   1.964   2.653   2.425  0.3779 -0.1812 -0.2148
   79fsi    NBT  755   1.975   2.708   2.572  0.2920 -0.0156  1.2185
   79fsi    OBT  756   2.013   2.749   2.323  0.3249  0.4112 -0.2529
   79fsi    OBT  757   1.835   2.595   2.403  0.2850 -0.4298 -0.1138
   79fsi    SBT  758   2.090   2.798   2.636 -0.6008  0.0285  0.1669
   79fsi    OBT  759   2.044   2.921   2.690 -0.2454 -0.1706 -0.4562
   79fsi    OBT  760   2.210   2.801   2.556 -0.7718  0.4494 -0.5957
   79fsi    FSI  761   2.137   2.726   2.772 -0.0739  0.6718  0.6307
   80fsi    FSI  762   2.810   5.303   1.433  0.2409  0.7285 -0.0845
   80fsi    SBT  763   2.835   5.332   1.584 -0.2782  0.2581  0.3165
   80fsi    NBT  764   2.861   5.485   1.589 -0.3842  0.2232 -0.2274
   80fsi    OBT  765   2.709   5.296   1.645 -0.0230  0.7160 -0.4354
   80fsi    OBT  766   2.951   5.253   1.616  0.3362 -0.3443  0.0905
   80fsi    SBT  767   2.996   5.557   1.550  0.1272 -0.0123  0.0878
   80fsi    OBT  768   2.969   5.662   1.455  0.3475 -0.3616  0.0002
   80fsi    OBT  769   3.111   5.474   1.514  0.2308  0.0794 -0.1168
   80fsi    FSI  770   3.040   5.634   1.677 -0.0103 -0.5505 -0.1048
   81fsi    FSI  771   2.445   2.520   3.566  0.1518  0.5392  0.2445
   81fsi    SBT  772   2.321   2.481   3.477 -0.3933  0.1913  0.2582
   81fsi    NBT  773   2.333   2.575   3.351 -0.2993 -0.4662 -0.0310
   81fsi    OBT  774   2.340   2.341   3.456 -0.3898 -0.1596 -0.0369
   81fsi    OBT  775   2.204   2.509   3.558 -0.7549  0.5450 -0.6445
   81fsi    SBT  776   2.404   2.548   3.219 -0.1477  0.0757 -0.3895
   81fsi    OBT  777   2.318   2.555   3.107  0.4594  0.1630  0.1821
   81fsi    OBT  778   2.502   2.444   3.230  0.1833  0.0275 -0.0268
   81fsi    FSI  779   2.494   2.677   3.190  0.5596  0.3871  0.0611
   82fsi    FSI  780   3.595   0.965   2.761 -0.7870  0.3073  0.4253
   82fsi    SBT  781   3.553   1.058   2.877  0.1282 -0.3276 -0.2657
   82fsi    NBT  782   3.397   1.047   2.872  0.2390 -0.2992 -0.6567
   82fsi    OBT  783   3.601   0.994   3.002  0.4620 -0.1841 -0.1234
   82fsi    OBT  784   3.609   1.184   2.847 -0.0746  0.0099  0.1839
   82fsi    SBT  785   3.304   1.102   2.752  0.1146  0.2647 -0.4024
   82fsi    OBT  786   3.366   1.163   2.640 -0.2849  0.0878  0.4274
   82fsi    OBT  787   3.189   1.173   2.796  0.6647 -0.2126 -0.2435
   82fsi    FSI  788   3.249   0.967   2.689 -0.0057 -0.5368 -0.5373
   83fsi    FSI  789   3.857   0.874   1.671 -0.3006 -0.4859 -0.3921
   83fsi    SBT  790   3.799   0.757   1.754  0.4285 -0.1275  0.0860
   83fsi    NBT  791   3.928   0.707   1.833  0.5016  0.0018 -0.0339
   83fsi    OBT  792   3.694   0.818   1.825 -0.1007 -0.2684  0.2127
   83fsi    OBT  793   3.759   0.656   1.655 -0.6509 -0.6873 -0.1470
   83fsi    SBT  794   3.959   0.718   1.989 -0.0433 -0.2613  0.0303
   83fsi    OBT  795   4.018   0.598   2.042 -0.1171 -0.1524 -0.2091
   83fsi    OBT  796   3.850   0.781   2.064 -0.5701 -0.1595  0.1620
   83fsi    FSI  797   4.072   0.821   2.000 -0.3122  0.0394 -0.1750
   84fsi    FSI  798   2.289   4.270   3.567 -0.5958  0.3575  0.1846
   84fsi    SBT  799   2.235   4.320   3.431  0.4169 -0.5675 -0.1278
   84fsi    NBT  800   2.213   4.184   3.353  0.0263  0.6312  0.1215
   84fsi    OBT  801   2.114   4.380   3.471  0.1550  0.1812 -0.1902
   84fsi    OBT  802   2.344   4.394   3.381 -0.0157 -0.0585 -0.4862
   84fsi    SBT  803   2.283   4.130   3.220  0.4782  0.3150  0.1756
   84fsi    OBT  804   2.348   3.999   3.234  0.1972 -0.6199 -0.8987
   84fsi    OBT  805   2.358   4.230   3.150 -0.2940 -0.0866 -0.0239
   84fsi    FSI  806   2.162   4.100   3.130  0.0844 -0.0610 -0.2761
   85fsi    FSI  807   3.444   3.396   2.706  0.1684 -0.2962  0.6149
   85fsi    SBT  808   3.285   3.384   2.661 -0.0806 -0.1777 -0.1172
   85fsi    NBT  809   3.284   3.445   2.519  0.2284  0.6329  0.4180
   85fsi    OBT  810   3.262   3.244   2.670  0.4274  0.2390  0.4543
   85fsi    OBT  811   3.213   3.469   2.753  0.0950  0.6270 -0.1935
   85fsi    SBT  812   3.209   3.398   2.389 -0.0323  0.1546  0.0283
   85fsi    OBT  813   3.116   3.291   2.414  0.0714 -0.7755 -0.3880
   85fsi    OBT  814   3.303   3.381   2.279 -0.3977  0.1480 -0.4819
   85fsi    FSI  815   3.123   3.527   2.344  0.4777 -0.5668  0.2804
   86fsi    FSI  816   1.396   2.132   2.508 -0.3944  0.0598  0.0421
   86fsi    SBT  817   1.322   2.231   2.603  0.1847  0.3277  0.2950
   86fsi    NBT  818   1.182   2.153   2.620 -0.1919  0.6592  0.3284
   86fsi    OBT  819   1.399   2.231   2.725  0.2242  0.1834  0.2065
   86fsi    OBT  820   1.308   2.344   2.522 -0.2157  0.6967 -0.0085
   86fsi    SBT  821   1.051   2.175   2.548  0.5412 -0.0111  0.2891
   86fsi    OBT  822   1.027   2.296   2.474 -0.2383 -0.5559  0.2292
   86fsi    OBT  823   0.951   2.140   2.640 -0.0105  0.2773 -0.0211
   86fsi    FSI  824   1.058   2.052   2.442  0.5045 -0.0002  0.2475
   87fsi    FSI  825   0.748   2.507   2.325  0.3349 -0.7702 -0.2943
   87fsi    SBT  826   0.850   2.631   2.322  0.0279  0.1740  0.4414
   87fsi    NBT  827   0.805   2.717   2.444 -0.0511  0.5241  0.0518
   87fsi    OBT  828   0.978   2.566   2.340  0.1909 -0.3408 -0.0187
   87fsi    OBT  829   0.832   2.695   2.193  0.3114  0.9063  0.6581
   87fsi    SBT  830   0.677   2.818   2.451  0.0950  0.5154  0.0881
   87fsi    OBT  831   0.659   2.860   2.584  0.4667  0.0934 -0.2797
   87fsi    OBT  832   0.564   2.770   2.375  0.2196 -0.0084  0.0253
   87fsi    FSI  833   0.733   2.944   2.381 -0.1813 -0.1880 -0.3546
   88fsi    FSI  834   3.081   1.186   2.354  0.1132 -0.5153  0.6383
   88fsi    SBT  835   2.962   1.157   2.455 -0.2405  0.3525 -0.0993
   88fsi    NBT  836   2.841   1.206   2.371 -0.1940  0.5115  0.6101
   88fsi    OBT  837   2.977   1.014   2.467 -0.1794  0.1053 -0.9321
   88fsi    OBT  838   2.995   1.241   2.567  0.4393  0.3133 -0.2158
   88fsi    SBT  839   2.766   1.134   2.252 -0.0743  0.5136 -0.1334
   88fsi    OBT  840   2.788   0.995   2.239  0.0740 -0.1597 -0.3190
   88fsi    OBT  841   2.774   1.220   2.137  0.6720  0.2423 -0.0955
   88fsi    FSI  842   2.608   1.144   2.287  0.3369  0.4254 -0.3558
   89fsi    FSI  843   2.542   2.564   2.871 -0.5392  0.3635 -0.6622
   89fsi    SBT  844   2.692   2.591   2.878  0.3686  0.2873  0.0233
   89fsi    NBT  845   2.694   2.743   2.917  0.3836 -0.2130 -0.1714
   89fsi    OBT  846   2.748   2.505   2.978  0.1086  0.0814  0.6906
   89fsi    OBT  847   2.743   2.558   2.744  0.3005  0.0030  0.4707
   89fsi    SBT  848   2.698   2.870   2.827  0.3194 -0.1711 -0.2065
   89fsi    OBT  849   2.710   2.842   2.684  0.1882 -0.1884  0.4220
   89fsi    OBT  850   2.790   2.964   2.881  0.0802  1.0983 -0.0977
   89fsi    FSI  851   2.553   2.931   2.848 -0.3447 -0.6102  0.3449
   90fsi    FSI  852   2.797   5.562   2.074 -0.2248 -0.2858 -0.2528
   90fsi    SBT  853   2.784   5.678   1.974  0.3225  0.1271  0.1851
   90fsi    NBT  854   2.914   5.764   1.986  0.3760 -0.7838  0.4409
   90fsi    OBT  855   2.772   5.602   1.849  0.0682  0.2514 -0.2404
   90fsi    OBT  856   2.659   5.745   2.013  0.5562 -0.0764 -0.3081
   90fsi    SBT  857   2.947   5.886   2.085  0.1519 -0.2368  0.1175
   90fsi    OBT  858   3.086   5.879   2.131  0.2698 -0.1530  0.5891
   90fsi    OBT  859   2.858   5.915   2.187  0.4317 -0.5194 -1.0269
   90fsi    FSI  860   2.949   6.019   1.994 -0.0610 -0.1070  0.2381
   91fsi    FSI  861   3.222   3.060   2.914  0.0296 -0.8413 -0.6430
   91fsi    SBT  862   3.195   3.090   3.062  0.2493 -0.0705  0.1510
   91fsi    NBT  863   3.231   3.244   3.076 -0.3795  0.3014  0.3295
   91fsi    OBT  864   3.054   3.066   3.070  0.5392 -0.3120 -0.2129
   91fsi    OBT  865   3.285   3.000   3.135  0.1832 -0.6345 -0.3572
   91fsi    SBT  866   3.143   3.374   3.095 -0.0264 -0.0282  0.0677
   91fsi    OBT  867   3.012   3.366   3.038  0.1235  0.0196 -0.0022
   91fsi    OBT  868   3.212   3.497   3.068 -0.3123 -0.0500  0.3724
   91fsi    FSI  869   3.123   3.384   3.248 -0.5233 -0.1093 -0.3071
   92fsi    FSI  870   2.661   1.391   2.934 -0.2513 -0.0017 -1.1119
   92fsi    SBT  871   2.753   1.499   2.871  0.0600  0.1718 -0.1621
   92fsi    NBT  872   2.840   1.548   2.994  0.1972 -0.4216 -0.1281
   92fsi    OBT  873   2.834   1.427   2.779 -0.0818 -0.9436  0.2160
   92fsi    OBT  874   2.662   1.597   2.819 -0.0229  0.6658  0.1081
   92fsi    SBT  875   2.971   1.480   3.050  0.1598  0.0248  0.0266
   92fsi    OBT  876   3.027   1.367   2.980 -0.0633  0.1219 -0.0418
   92fsi    OBT  877   2.973   1.473   3.194  0.4469  0.3527 -0.0934
   92fsi    FSI  878   3.077   1.593   3.018  0.0764  0.2773 -0.4638
   93fsi    FSI  879   2.558   4.097   3.583  0.0278 -0.2841 -0.0816
   93fsi    SBT  880   2.650   4.038   3.462  0.5976  0.1033  0.3712
   93fsi    NBT  881   2.611   4.133   3.340  0.0674 -0.4347  0.1736
   93fsi    OBT  882   2.786   4.053   3.510  0.1170 -0.5297  0.2323
   93fsi    OBT  883   2.598   3.906   3.436 -0.0895  0.1555  0.2950
   93fsi    SBT  884   2.685   4.167   3.209  0.2134  0.2378 -0.0994
   93fsi    OBT  885   2.824   4.133   3.207  0.2528 -0.0777  0.6973
   93fsi    OBT  886   2.648   4.299   3.172  0.1922  0.9291 -0.5142
   93fsi    FSI  887   2.610   4.063   3.105 -0.7148 -0.7300 -0.3993
   94fsi    FSI  888   3.019   0.202   3.188  0.3034  0.1806  0.2051
   94fsi    SBT  889   3.015   0.066   3.104 -0.1325  0.0666  0.1966
   94fsi    NBT  890   2.862   0.070   3.054  0.1366 -0.7690  0.0660
   94fsi    OBT  891   3.115   0.094   3.010 -1.0879  0.3966  0.1723
   94fsi    OBT  892   3.044  -0.030   3.207  0.8432  0.1875  0.1397
   94fsi    SBT  893   2.739  -0.009   3.125 -0.1377  0.1806  0.0615
   94fsi    OBT  894   2.770  -0.143   3.166  0.0522  0.4988 -0.2553
   94fsi    OBT  895   2.618   0.010   3.050  0.4737 -0.1251 -0.1813
   94fsi    FSI  896   2.724   0.059   3.262  0.2191  0.1960 -0.3467
   95fsi    FSI  897   2.565   2.877   2.120  0.1100  0.3527  0.1158
   95fsi    SBT  898   2.445   2.893   2.222  0.2735 -0.2790 -0.1840
   95fsi    NBT  899   2.391   3.033   2.176  0.1841 -0.1866 -0.1462
   95fsi    OBT  900   2.350   2.778   2.196  0.3518 -0.0891  0.6054
   95fsi    OBT  901   2.511   2.895   2.353 -0.0890 -0.4078 -0.0951
   95fsi    SBT  902   2.261   3.072   2.094 -0.1208 -0.3724  0.0328
   95fsi    OBT  903   2.222   3.210   2.132  0.0792 -0.0111  0.5209
   95fsi    OBT  904   2.159   2.972   2.097  0.6729  0.5811 -0.0769
   95fsi    FSI  905   2.309   3.085   1.941  1.1331 -0.4855 -0.6099
   96fsi    FSI  906   2.712   3.198   2.752  0.0899  0.3241  0.2910
   96fsi    SBT  907   2.779   3.231   2.614 -0.1417 -0.3345 -0.4269
   96fsi    NBT  908   2.740   3.382   2.593 -0.8084 -0.2617 -0.4174
   96fsi    OBT  909   2.921   3.196   2.640  0.5054 -0.0435 -0.2901
   96fsi    OBT  910   2.702   3.155   2.516 -0.5577  0.5279 -0.6326
   96fsi    SBT  911   2.810   3.498   2.659 -0.1945  0.0802 -0.2634
   96fsi    OBT  912   2.905   3.459   2.763 -0.0598  0.3323  0.7226
   96fsi    OBT  913   2.723   3.604   2.697  0.3424  0.4848  0.3888
   96fsi    FSI  914   2.898   3.553   2.543 -0.4370  0.2082  0.0052
   97fsi    FSI  915   3.558   3.587   2.578 -0.3224 -0.0762 -0.0103
   97fsi    SBT  916   3.668   3.528   2.477 -0.3082 -0.1470  0.2415
   97fsi    NBT  917   3.666   3.637   2.366  0.8974 -0.0972  0.4407
   97fsi    OBT  918   3.792   3.522   2.557 -0.1230  0.4332 -0.2315
   97fsi    OBT  919   3.623   3.398   2.434  0.1216  0.4181  0.4757
   97fsi    SBT  920   3.626   3.634   2.217 -0.0920  0.0184  0.1589
   97fsi    OBT  921   3.557   3.755   2.178 -0.4908  0.5233 -0.2261
   97fsi    OBT  922   3.575   3.507   2.176 -0.1594  0.0865  0.0286
   97fsi    FSI  923   3.765   3.640   2.140 -0.7046 -0.2282  0.4514
   98fsi    FSI  924   2.647   4.808   3.307 -0.1701 -0.3367  0.2816
   98fsi    SBT  925   2.546   4.722   3.221  0.0616  0.0299  0.0747
   98fsi    NBT  926   2.414   4.711   3.306  0.2873 -0.0637 -0.2397
   98fsi    OBT  927   2.527   4.799   3.100 -0.5823 -0.6954 -0.1429
   98fsi    OBT  928   2.605   4.593   3.215 -0.4312 -0.2331 -0.0091
   98fsi    SBT  929   2.265   4.772   3.295 -0.3212  0.3010 -0.2027
   98fsi    OBT  930   2.169   4.670   3.298 -0.3902  0.0811 -0.0008
   98fsi    OBT  931   2.250   4.869   3.194 -0.1846  0.3168 -0.2152
   98fsi    FSI  932   2.251   4.843   3.429  0.0049 -0.2699  0.0166
   99fsi    FSI  933   3.174   2.203   2.580 -0.3720 -0.2057  0.1080
   99fsi    SBT  934   3.044   2.175   2.497 -0.0977 -0.2045  0.0650
   99fsi    NBT  935   3.084   2.207   2.344  0.1737  0.0055 -0.6504
   99fsi    OBT  936   3.031   2.034   2.536 -0.4984 -0.1762 -0.1234
   99fsi    OBT  937   2.957   2.275   2.549  0.6207 -0.6445 -0.0311
   99fsi    SBT  938   3.035   2.127   2.215 -0.0255  0.0974 -0.4364
   99fsi    OBT  939   3.040   2.217   2.103 -0.2466 -0.2285  0.7935
   99fsi    OBT  940   2.925   2.043   2.231  0.5730 -0.6982 -0.1095
   99fsi    FSI  941   3.150   2.027   2.199 -0.2184  0.3964  0.0067
  100fsi    FSI  942   3.332   5.361   2.026 -0.2450 -0.1108 -0.0456
  100fsi    SBT  943   3.236   5.401   1.906 -0.1981 -0.0564  0.2865
  100fsi    NBT  944   3.315   5.512   1.838  0.3112  0.3220 -0.0685
  100fsi    OBT  945   3.227   5.281   1.823  0.6263 -0.3746 -0.6433
  100fsi    OBT  946   3.113   5.450   1.971 -0.6215 -0.0575  0.3178
  100fsi    SBT  947   3.413   5.511   1.717 -0.0629 -0.0007 -0.1428
  100fsi    OBT  948   3.437   5.635   1.652 -0.5249  0.7092 -0.8185
  100fsi    OBT  949   3.404   5.398   1.622 -0.2418  0.5465  0.3990
  100fsi    FSI  950   3.546   5.500   1.793  0.2938  0.1774 -0.2633
  101fsi    FSI  951   2.511   0.184   1.456 -0.0548 -0.1535 -0.3524
  101fsi    SBT  952   2.584   0.148   1.589  0.5477 -0.2610  0.3166
  101fsi    NBT  953   2.581   0.270   1.682 -0.4302  0.6500 -0.3780
  101fsi    OBT  954   2.516   0.030   1.639 -0.1706 -0.4536  0.2052
  101fsi    OBT  955   2.713   0.118   1.539  0.8053  0.0786  0.0766
  101fsi    SBT  956   2.691   0.357   1.747 -0.3983 -0.0393 -0.1553
  101fsi    OBT  957   2.822   0.307   1.726 -0.4170  0.2549 -0.0325
  101fsi    OBT  958   2.656   0.396   1.881 -0.5931 -0.0323  0.2600
  101fsi    FSI  959   2.675   0.500   1.667 -0.0693  0.3135 -0.3287
  102fsi    FSI  960   1.272   2.700   2.682 -0.0950  0.0003  0.7373
  102fsi    SBT  961   1.131   2.666   2.729 -0.3503  0.1274  0.3063
  102fsi    NBT  962   1.143   2.677   2.881  0.6528 -0.0670  0.3286
  102fsi    OBT  963   1.050   2.771   2.677 -0.2815  0.6418  0.0960
  102fsi    OBT  964   1.105   2.533   2.672  0.1579  0.2661 -0.1741
  102fsi    SBT  965   1.205   2.573   2.980  0.1405  0.1013 -0.0497
  102fsi    OBT  966   1.313   2.632   3.059 -0.2161 -0.3686 -0.1510
  102fsi    OBT  967   1.231   2.439   2.941 -0.1324  0.3203 -0.4726
  102fsi    FSI  968   1.087   2.558   3.075 -0.1022 -0.0859 -0.2937
  103fsi    FSI  969   2.928   4.283   2.551  0.2603  0.1278  0.2082
  103fsi    SBT  970   2.903   4.421   2.616  0.0078 -0.2761 -0.3136
  103fsi    NBT  971   2.961   4.410   2.764  0.1626 -0.0829  0.7722
  103fsi    OBT  972   2.979   4.507   2.533 -0.2318 -0.3756  0.2566
  103fsi    OBT  973   2.757   4.433   2.610  0.4145 -0.0423  0.0702
  103fsi    SBT  974   2.881   4.399   2.896 -0.3387 -0.2091  0.3230
  103fsi    OBT  975   2.743   4.447   2.891  0.1462  0.2331 -0.2026
  103fsi    OBT  976   2.958   4.443   3.010  0.0279 -0.0920  0.4340
  103fsi    FSI  977   2.868   4.248   2.912 -0.4142  0.2050  0.8447
  104fsi    FSI  978   2.400   3.440   3.097 -0.4123 -0.1202 -0.2509
  104fsi    SBT  979   2.277   3.545   3.099  0.1535  0.3241 -0.1733
  104fsi    NBT  980   2.294   3.607   2.956 -0.2224  0.1354 -0.2363
  104fsi    OBT  981   2.162   3.461   3.106  0.1033  0.4549  0.4869
  104fsi    OBT  982   2.302   3.629   3.209  0.1162 -0.4509 -0.6359
  104fsi    SBT  983   2.381   3.730   2.919 -0.7972  0.1183  0.1820
  104fsi    OBT  984   2.464   3.692   2.806  0.3189 -0.0867 -0.2498
  104fsi    OBT  985   2.440   3.802   3.027 -0.4934 -0.5473  0.2252
  104fsi    FSI  986   2.285   3.833   2.846  0.2178 -0.4378 -0.2725
  105fsi    FSI  987   2.102   5.099   2.768 -0.2406 -0.0380  0.0373
  105fsi    SBT  988   1.986   5.160   2.852  0.1105 -0.4016 -0.1310
  105fsi    NBT  989   2.062   5.281   2.915  0.0154  0.1871 -0.2308
  105fsi    OBT  990   1.894   5.191   2.749  0.3249 -0.5587 -0.9879
  105fsi    OBT  991   1.953   5.051   2.938 -0.5240  0.2757  0.8935
  105fsi    SBT  992   2.183   5.284   3.020  0.0594  0.0316 -0.1813
  105fsi    OBT  993   2.269   5.391   2.983  0.0466  0.7447 -0.1955
  105fsi    OBT  994   2.236   5.154   3.048  1.0272 -0.0193  0.1276
  105fsi    FSI  995   2.111   5.332   3.155 -0.3356 -0.8780 -0.5873
  106fsi    FSI  996   2.821   3.001   3.401  0.0178 -0.0818  0.2485
  106fsi    SBT  997   2.693   3.012   3.298 -0.0828  0.1194 -0.3979
  106fsi    NBT  998   2.636   3.155   3.311  0.6584 -0.1272 -0.2669
  106fsi    OBT  999   2.756   2.992   3.169  0.3973  0.6530  0.4841
  106fsi    OBT 1000   2.600   2.910   3.338 -0.1283  0.0240  0.3701
  106fsi    SBT 1001   2.669   3.293   3.247  0.0031 -0.3013 -0.2338
  106fsi    OBT 1002   2.593   3.400   3.297 -0.2973  0.0970  0.1002
  106fsi    OBT 1003   2.687   3.286   3.107 -0.3117 -0.0364 -0.8746
  106fsi    FSI 1004   2.820   3.327   3.299  0.1466 -0.2432  0.0960
  107fsi    FSI 1005   4.013   2.479   2.729 -0.1510 -0.2886 -0.2339
  107fsi    SBT 1006   3.879   2.445   2.651 -0.3214 -0.0677 -0.0453
  107fsi    NBT 1007   3.770   2.450   2.765 -0.3108  0.0635  0.3492
  107fsi    OBT 1008   3.871   2.554   2.558 -0.0620  0.2858 -0.1078
  107fsi    OBT 1009   3.902   2.315   2.599 -0.6481  0.0927 -0.2504
  107fsi    SBT 1010   3.688   2.574   2.830  0.3093  0.0711 -0.1975
  107fsi    OBT 1011   3.606   2.529   2.937  0.2222  0.0138 -0.4766
  107fsi    OBT 1012   3.629   2.674   2.740  0.3505  0.0255  0.9991
  107fsi    FSI 1013   3.797   2.649   2.915 -0.2631 -0.1331  0.2586
  108fsi    FSI 1014   2.617   0.516   3.418  0.1998 -0.0521 -0.3400
  108fsi    SBT 1015   2.477   0.457   3.364  0.3772  0.3208 -0.0252
  108fsi    NBT 1016   2.411   0.595   3.324 -0.2316 -0.0951  0.1510
  108fsi    OBT 1017   2.517   0.375   3.252 -0.2473  0.1141  0.1881
  108fsi    OBT 1018   2.420   0.391   3.478 -0.4545 -0.2893 -0.7552
  108fsi    SBT 1019   2.365   0.644   3.180  0.2993  0.4933  0.2184
  108fsi    OBT 1020   2.403   0.556   3.071  0.1136  0.4265  0.2289
  108fsi    OBT 1021   2.385   0.785   3.170  0.1331 -0.8260  0.1578
  108fsi    FSI 1022   2.213   0.629   3.180 -0.3336  0.0280 -0.0207
  109fsi    FSI 1023   3.427   0.168   2.552 -0.1984  0.5231 -0.4380
  109fsi    SBT 1024   3.416   0.239   2.411  0.3341 -0.0401 -0.3214
  109fsi    NBT 1025   3.420   0.111   2.318 -0.1976 -0.0145  0.4054
  109fsi    OBT 1026   3.281   0.287   2.415  0.0115 -0.3535 -0.3400
  109fsi    OBT 1027   3.528   0.329   2.399 -0.2009  0.0719 -0.6147
  109fsi    SBT 1028   3.383   0.090   2.168  0.0526 -0.1017  0.0207
  109fsi    OBT 1029   3.382   0.216   2.105  0.6953  0.2539 -0.2023
  109fsi    OBT 1030   3.268   0.006   2.143 -0.1570  0.0684 -0.4252
  109fsi    FSI 1031   3.513   0.012   2.111  0.1197  0.2512  0.3649
  110fsi    FSI 1032   2.868   3.614   3.142 -0.3026 -0.4156 -0.2238
  110fsi    SBT 1033   2.807   3.758   3.150  0.0190 -0.1247 -0.0381
  110fsi    NBT 1034   2.803   3.805   3.001  0.3332  0.6980 -0.0939
  110fsi    OBT 1035   2.681   3.732   3.214 -0.2405 -0.4263 -0.3444
  110fsi    OBT 1036   2.910   3.833   3.221  0.5577  0.1684 -0.0702
  110fsi    SBT 1037   2.928   3.836   2.912 -0.0340 -0.0719 -0.4570
  110fsi    OBT 1038   2.898   3.845   2.772  0.3493 -0.5369 -0.5287
  110fsi    OBT 1039   3.054   3.769   2.944  0.3032 -0.1510  0.0320
  110fsi    FSI 1040   2.963   3.986   2.941  0.2591  0.3551 -0.0837
  111fsi    FSI 1041   2.950   4.743   2.786 -0.0568 -0.4191  0.1543
  111fsi    SBT 1042   2.882   4.848   2.685 -0.2266 -0.3253  0.3191
  111fsi    NBT 1043   2.744   4.870   2.759 -0.4325 -0.4295 -0.3794
  111fsi    OBT 1044   2.960   4.962   2.681 -0.0370  0.3202  0.2727
  111fsi    OBT 1045   2.867   4.767   2.564 -0.0040 -0.3775  0.4956
  111fsi    SBT 1046   2.604   4.821   2.709 -0.2772  0.2491  0.3226
  111fsi    OBT 1047   2.499   4.884   2.791  0.5643  0.2976 -0.8403
  111fsi    OBT 1048   2.594   4.681   2.685 -0.7770  0.1584  1.1032
  111fsi    FSI 1049   2.592   4.892   2.572 -0.2350 -0.0705 -0.0480
  112fsi    FSI 1050   2.010   1.854   3.179  0.6927 -0.1487 -0.0000
  112fsi    SBT 1051   2.080   1.936   3.062  0.1034  0.2563  0.0840
  112fsi    NBT 1052   2.049   2.082   3.099  0.6290  0.2531  0.6650
  112fsi    OBT 1053   2.221   1.906   3.076  0.6424 -0.3796  0.6115
  112fsi    OBT 1054   2.016   1.875   2.947  0.4667 -0.2807 -0.0893
  112fsi    SBT 1055   2.089   2.165   3.223 -0.3864  0.4123  0.0928
  112fsi    OBT 1056   2.074   2.303   3.201  0.5407  0.7537  0.4201
  112fsi    OBT 1057   2.205   2.127   3.292  0.2541  0.1806  0.2373
  112fsi    FSI 1058   1.979   2.126   3.332  0.1375  0.0679 -0.2187
  113fsi    FSI 1059   3.388   4.710   3.244  0.7385  0.2735  0.4121
  113fsi    SBT 1060   3.307   4.680   3.117 -0.4525  0.0400  0.1027
  113fsi    NBT 1061   3.158   4.682   3.169  0.1072  0.2854 -0.7256
  113fsi    OBT 1062   3.341   4.783   3.023  0.1719  0.8982  0.0495
  113fsi    OBT 1063   3.343   4.547   3.078  0.5745 -0.3945 -0.6543
  113fsi    SBT 1064   3.037   4.781   3.134  0.2545 -0.4173  0.2777
  113fsi    OBT 1065   2.914   4.715   3.125  1.1262  0.2901 -0.2725
  113fsi    OBT 1066   3.063   4.879   3.030  0.3392  0.5516  0.5315
  113fsi    FSI 1067   3.039   4.870   3.265  0.5848 -0.4855  0.0513
  114fsi    FSI 1068   1.604   2.424   2.100 -0.1297 -0.7660 -0.2601
  114fsi    SBT 1069   1.501   2.410   2.227  0.3755  0.0851  0.3648
  114fsi    NBT 1070   1.372   2.468   2.160  0.0159 -0.6705  0.2233
  114fsi    OBT 1071   1.496   2.268   2.258 -0.5395 -0.1320  1.0921
  114fsi    OBT 1072   1.550   2.501   2.328 -0.0786  0.4537 -0.0714
  114fsi    SBT 1073   1.259   2.391   2.096  0.2105  0.2408  0.2553
  114fsi    OBT 1074   1.148   2.471   2.057 -0.3539  0.3318  0.6853
  114fsi    OBT 1075   1.224   2.265   2.164  0.2586  0.2116 -0.3331
  114fsi    FSI 1076   1.317   2.344   1.960 -0.0898  0.5541 -0.4931
  115fsi    FSI 1077   1.422   3.501   1.984  0.1765  0.0095 -0.3144
  115fsi    SBT 1078   1.362   3.380   2.065  0.0272  0.0300  0.2100
  115fsi    NBT 1079   1.463   3.264   2.026 -0.1179  0.0387 -0.9107
  115fsi    OBT 1080   1.384   3.423   2.203  0.2636  0.1552 -0.4398
  115fsi    OBT 1081   1.230   3.368   2.015 -0.1352 -0.0298 -0.0948
  115fsi    SBT 1082   1.433   3.143   1.922  0.0189  0.0937  0.1328
  115fsi    OBT 1083   1.545   3.068   1.880 -0.2460  0.2282 -0.6438
  115fsi    OBT 1084   1.344   3.188   1.821  0.1061 -0.1048  0.6956
  115fsi    FSI 1085   1.349   3.035   2.013  0.1696 -0.1923  0.0124
  116fsi    FSI 1086   1.322   3.757   2.623  0.4245  0.0127  0.4566
  116fsi    SBT 1087   1.312   3.598   2.633 -0.6616  0.0341  0.0456
  116fsi    NBT 1088   1.444   3.549   2.711  0.5559 -1.0223  0.0733
  116fsi    OBT 1089   1.193   3.574   2.712  0.3438  0.1021  0.4177
  116fsi    OBT 1090   1.307   3.559   2.499 -0.1648 -1.0097 -0.2521
  116fsi    SBT 1091   1.556   3.438   2.668 -0.0327 -0.2088  0.4372
  116fsi    OBT 1092   1.516   3.367   2.550 -0.6658 -0.3023 -0.0259
  116fsi    OBT 1093   1.611   3.363   2.781 -0.1297 -0.1850  1.1337
  116fsi    FSI 1094   1.668   3.528   2.627 -0.4696 -0.2222  0.4493
  117fsi    FSI 1095   1.894   5.192   3.457  0.2960  0.4141  0.1108
  117fsi    SBT 1096   1.979   5.080   3.382 -0.5989 -0.2366 -0.0750
  117fsi    NBT 1097   1.940   4.944   3.448 -0.7638 -0.0179 -0.1487
  117fsi    OBT 1098   1.932   5.087   3.247  0.0540  0.4760 -0.5860
  117fsi    OBT 1099   2.115   5.121   3.402  0.1852 -0.5821 -0.6024
  117fsi    SBT 1100   1.852   4.825   3.399  0.4096  0.3579 -0.7540
  117fsi    OBT 1101   1.894   4.706   3.467 -0.0084 -0.0149  0.6738
  117fsi    OBT 1102   1.824   4.817   3.256  0.0854 -0.1187  0.5570
  117fsi    FSI 1103   1.714   4.856   3.468  0.5635 -0.2806 -0.0411
  118fsi    FSI 1104   3.258   1.725   2.590 -0.0660 -0.0005  0.1488
  118fsi    SBT 1105   3.298   1.612   2.701 -0.3315  0.4787  0.0334
  118fsi    NBT 1106   3.320   1.702   2.832 -0.1978  0.3745 -0.3111
  118fsi    OBT 1107   3.176   1.535   2.718 -0.5233  0.0548 -0.2625
  118fsi    OBT 1108   3.414   1.545   2.652  0.0376 -0.4649  0.7676
  118fsi    SBT 1109   3.418   1.823   2.831 -0.2470 -0.0967 -0.0832
  118fsi    OBT 1110   3.534   1.813   2.750  0.0213 -0.0414  0.1891
  118fsi    OBT 1111   3.437   1.871   2.963 -0.0876 -0.2037 -0.0933
  118fsi    FSI 1112   3.337   1.936   2.766  0.0342  0.1640 -0.1646
  119fsi    FSI 1113   2.457   5.148   3.300  0.4773 -0.0451 -0.6929
  119fsi    SBT 1114   2.546   5.202   3.176  0.2306  0.0582 -0.1785
  119fsi    NBT 1115   2.687   5.222   3.245  0.4842  0.3029  0.3832
  119fsi    OBT 1116   2.533   5.093   3.080 -0.4708 -0.0145 -0.3343
  119fsi    OBT 1117   2.495   5.333   3.145  0.2775  0.4194  0.2380
  119fsi    SBT 1118   2.814   5.136   3.251 -0.4424  0.5245 -0.0717
  119fsi    OBT 1119   2.929   5.215   3.264  0.1545 -0.3745  0.6473
  119fsi    OBT 1120   2.809   5.032   3.146  0.1098 -0.4222  0.6686
  119fsi    FSI 1121   2.801   5.061   3.382 -0.2705  0.0265 -0.3842
  120fsi    FSI 1122   2.372   4.095   2.714 -0.0432  0.3122  0.3296
  120fsi    SBT 1123   2.516   4.139   2.737  0.1832 -0.2153 -0.2134
  120fsi    NBT 1124   2.564   4.140   2.584  0.1112  0.7154  0.4028
  120fsi    OBT 1125   2.505   4.269   2.798  0.6594  0.0280  0.1419
  120fsi    OBT 1126   2.574   4.036   2.817  0.2858  0.1305  0.2840
  120fsi    SBT 1127   2.638   4.020   2.507  0.3325 -0.4854 -0.0076
  120fsi    OBT 1128   2.621   3.893   2.570  0.0020  0.0332 -0.3615
  120fsi    OBT 1129   2.771   4.046   2.451 -0.3955 -0.1963 -0.4614
  120fsi    FSI 1130   2.534   4.008   2.380 -0.5007  0.3337  0.3672
  121fsi    FSI 1131   2.908   0.460   2.442 -0.2061 -0.0422  0.4189
  121fsi    SBT 1132   2.943   0.580   2.335 -0.3294  0.0284 -0.0942
  121fsi    NBT 1133   2.826   0.575   2.234 -0.5508 -0.1857  0.1556
  121fsi    OBT 1134   2.951   0.699   2.413 -0.2309 -0.2055 -0.1380
  121fsi    OBT 1135   3.066   0.531   2.272 -0.5855  0.2551 -0.0238
  121fsi    SBT 1136   2.680   0.638   2.241 -0.6303 -0.0590 -0.0622
  121fsi    OBT 1137   2.660   0.724   2.357 -0.1146  0.1817  0.3804
  121fsi    OBT 1138   2.579   0.540   2.212 -0.2222 -0.1538  0.3678
  121fsi    FSI 1139   2.677   0.741   2.124 -0.1583  0.0319  0.0459
  122fsi    FSI 1140   3.353   5.294   2.971  0.3774  0.3578 -0.1673
  122fsi    SBT 1141   3.247   5.212   3.060  0.4412  0.5894  0.1492
  122fsi    NBT 1142   3.145   5.180   2.948  0.0414  0.4147 -0.2683
  122fsi    OBT 1143   3.320   5.097   3.105 -0.0872  0.3999  0.2158
  122fsi    OBT 1144   3.190   5.302   3.161 -0.4596  0.3942 -0.9071
  122fsi    SBT 1145   3.031   5.267   2.892  0.2173  0.1412 -0.1736
  122fsi    OBT 1146   3.035   5.266   2.749  0.2155 -0.1348 -0.4594
  122fsi    OBT 1147   3.010   5.392   2.956  0.6249  0.2057  0.0452
  122fsi    FSI 1148   2.911   5.179   2.920 -0.0138  0.2028 -0.1170
  123fsi    FSI 1149   0.788   3.310   2.745 -0.2029 -0.9657  0.0036
  123fsi    SBT 1150   0.926   3.245   2.735 -0.1941  0.2215  0.5742
  123fsi    NBT 1151   0.987   3.262   2.875 -0.3139 -0.0697 -0.1424
  123fsi    OBT 1152   0.901   3.111   2.681  0.3272  0.1580  0.8998
  123fsi    OBT 1153   0.985   3.334   2.640 -0.2113 -0.4822  0.5662
  123fsi    SBT 1154   0.986   3.167   2.997 -0.4358  0.0326 -0.4183
  123fsi    OBT 1155   1.107   3.194   3.070  0.8353 -0.4358  0.7299
  123fsi    OBT 1156   0.958   3.028   2.969 -0.3523 -0.3999  0.0315
  123fsi    FSI 1157   0.867   3.214   3.087  0.0039 -0.2466  0.3937
  124fsi    FSI 1158   2.305   1.655   2.536 -0.4097  0.7034 -0.0824
  124fsi    SBT 1159   2.315   1.781   2.630  0.4193 -0.5286 -0.2225
  124fsi    NBT 1160   2.442   1.852   2.567 -0.1073 -0.1247  0.3481
  124fsi    OBT 1161   2.196   1.862   2.603  0.4859 -0.5046 -0.2718
  124fsi    OBT 1162   2.340   1.739   2.764 -0.3806  0.1131  0.3574
  124fsi    SBT 1163   2.462   1.982   2.482 -0.0203 -0.1407  0.2726
  124fsi    OBT 1164   2.344   2.041   2.423 -0.1040  0.1924  0.3693
  124fsi    OBT 1165   2.577   1.986   2.398 -0.1271  0.0427 -0.5009
  124fsi    FSI 1166   2.498   2.089   2.584  0.5968  0.0717 -0.3187
  125fsi    FSI 1167   3.632   2.984   2.077 -0.3513 -0.0621  0.2994
  125fsi    SBT 1168   3.651   3.032   2.222 -0.0596 -0.1053 -0.3233
  125fsi    NBT 1169   3.509   3.090   2.256  0.0475 -0.1383  0.0568
  125fsi    OBT 1170   3.685   2.919   2.299  0.1342 -0.3482 -0.7549
  125fsi    OBT 1171   3.754   3.134   2.217 -0.6345 -0.7233  0.1920
  125fsi    SBT 1172   3.380   3.020   2.322 -0.0198  0.0556  0.3202
  125fsi    OBT 1173   3.329   3.087   2.440  0.0197  0.0344  0.3064
  125fsi    OBT 1174   3.387   2.878   2.334 -0.2872  0.0757  0.5605
  125fsi    FSI 1175   3.269   3.036   2.217 -0.0546 -0.0775 -0.3173
  126fsi    FSI 1176   1.229   3.011   2.745 -0.3176 -0.3262 -0.3447
  126fsi    SBT 1177   1.335   3.106   2.813  0.1067  0.0741  0.1229
  126fsi    NBT 1178   1.470   3.071   2.749 -0.1684 -0.1532 -0.0311
  126fsi    OBT 1179   1.285   3.243   2.791  0.0442  0.8370 -0.6836
  126fsi    OBT 1180   1.331   3.055   2.948  0.0198 -0.0092 -0.0589
  126fsi    SBT 1181   1.578   2.965   2.782 -0.0212 -0.2434  0.0168
  126fsi    OBT 1182   1.536   2.862   2.873  0.3573 -0.4770  0.0630
  126fsi    OBT 1183   1.707   3.021   2.777  0.0376  0.3699 -0.2881
  126fsi    FSI 1184   1.590   2.883   2.645 -0.0916  0.1334 -0.6182
  127fsi    FSI 1185   2.398   1.937   3.500  0.3628  0.2645 -0.6976
  127fsi    SBT 1186   2.516   1.921   3.391 -0.1782 -0.2289  0.1637
  127fsi    NBT 1187   2.451   1.822   3.287  0.0819 -0.4157 -0.4405
  127fsi    OBT 1188   2.522   2.054   3.331 -0.4990 -0.0446  0.3837
  127fsi    OBT 1189   2.632   1.868   3.459 -0.0931 -0.4713  0.7785
  127fsi    SBT 1190   2.495   1.676   3.237  0.0403 -0.2416  0.2986
  127fsi    OBT 1191   2.617   1.627   3.283 -0.2164 -0.5139 -0.0111
  127fsi    OBT 1192   2.456   1.666   3.099 -0.2870  0.0146 -0.3500
  127fsi    FSI 1193   2.386   1.579   3.310  0.0140 -0.7825  0.2483
  128fsi    FSI 1194   2.263   4.540   2.787 -0.1740 -0.4540 -0.3514
  128fsi    SBT 1195   2.256   4.580   2.946 -0.2688 -0.4061  0.2605
  128fsi    NBT 1196   2.126   4.504   2.976  0.1620 -0.2661 -0.4683
  128fsi    OBT 1197   2.378   4.519   2.996 -0.1270 -0.0426  0.3747
  128fsi    OBT 1198   2.255   4.727   2.953 -0.2730  0.7432  0.9087
  128fsi    SBT 1199   1.985   4.570   3.023 -0.0351  0.1736 -0.1875
  128fsi    OBT 1200   1.962   4.706   2.992 -0.1863  0.0010  0.7298
  128fsi    OBT 1201   1.945   4.524   3.152  0.2056  1.0634 -0.6768
  128fsi    FSI 1202   1.888   4.497   2.924 -0.0872 -0.1115 -0.4556
  129fsi    FSI 1203   0.842   2.917   1.923  0.0777  0.4131 -0.5004
  129fsi    SBT 1204   0.992   2.948   1.879  0.1763  0.6145 -0.4961
  129fsi    NBT 1205   0.975   2.951   1.725  0.8152  0.7601 -0.6349
  129fsi    OBT 1206   1.026   3.078   1.935 -0.3221  0.1423 -0.4302
  129fsi    OBT 1207   1.060   2.826   1.919 -1.1480  0.5699  0.0917
  129fsi    SBT 1208   0.975   3.074   1.624 -0.4052 -0.1749  0.0648
  129fsi    OBT 1209   1.062   3.066   1.515 -0.5578  0.4102  0.5099
  129fsi    OBT 1210   0.971   3.202   1.683  0.2070 -0.2663  0.0600
  129fsi    FSI 1211   0.827   3.046   1.556 -0.2694 -0.0106 -0.6094
  130fsi    FSI 1212   3.543   2.001   3.552 -0.0421 -0.3190  0.4237
  130fsi    SBT 1213   3.536   2.016   3.395 -0.0687  0.1056 -0.0635
  130fsi    NBT 1214   3.512   2.169   3.381  0.1174  0.7215 -0.9777
  130fsi    OBT 1215   3.671   1.972   3.366  0.6428  0.1735 -0.1829
  130fsi    OBT 1216   3.426   1.935   3.360 -0.3698 -0.1763 -0.9572
  130fsi    SBT 1217   3.383   2.246   3.330 -0.0824 -0.0553  0.1064
  130fsi    OBT 1218   3.298   2.180   3.241 -0.5236  0.1878 -0.4228
  130fsi    OBT 1219   3.430   2.373   3.293 -0.3890  0.2081  0.5575
  130fsi    FSI 1220   3.303   2.256   3.462 -0.2581  0.1984 -0.0014
  131fsi    FSI 1221   2.163   2.409   1.940  1.0016  0.1394  0.1443
  131fsi    SBT 1222   2.112   2.474   2.075 -0.2915 -0.3608  0.1471
  131fsi    NBT 1223   1.975   2.410   2.105  0.0745  0.4277 -0.2078
  131fsi    OBT 1224   2.220   2.450   2.174  0.6281 -0.3698  0.5691
  131fsi    OBT 1225   2.090   2.609   2.036  0.3414  0.2515  0.3871
  131fsi    SBT 1226   1.954   2.286   2.204  0.0983 -0.3753  0.0219
  131fsi    OBT 1227   1.851   2.320   2.305 -0.7260 -0.0219  0.1005
  131fsi    OBT 1228   2.069   2.216   2.253 -0.4114  0.2929  0.7281
  131fsi    FSI 1229   1.888   2.178   2.105  0.1591 -0.2425 -0.3662
  132fsi    FSI 1230   2.104   3.343   2.823 -0.1943  0.0685 -0.2818
  132fsi    SBT 1231   1.952   3.368   2.803 -0.1115 -0.3686 -0.0892
  132fsi    NBT 1232   1.954   3.516   2.750 -0.2897 -0.2965 -0.1937
  132fsi    OBT 1233   1.914   3.258   2.711  0.0850 -0.1652  0.3429
  132fsi    OBT 1234   1.888   3.365   2.932 -0.0221  0.0301 -0.3172
  132fsi    SBT 1235   1.995   3.566   2.608 -0.0142 -0.2662 -0.0507
  132fsi    OBT 1236   1.908   3.675   2.567 -0.2623 -0.3131  0.0364
  132fsi    OBT 1237   2.023   3.452   2.520  0.1308 -0.3740  0.0272
  132fsi    FSI 1238   2.137   3.634   2.645  0.0482  0.2743  0.3715
  133fsi    FSI 1239   1.737   3.217   3.276  0.5739  0.0031 -0.0077
  133fsi    SBT 1240   1.706   3.084   3.190  0.0279  0.0906 -0.3998
  133fsi    NBT 1241   1.546   3.069   3.202 -0.2527 -0.2301  0.4423
  133fsi    OBT 1242   1.733   3.115   3.053  0.0741  0.2608  0.2195
  133fsi    OBT 1243   1.777   2.975   3.254 -0.1939 -0.0107  0.0954
  133fsi    SBT 1244   1.460   2.946   3.245 -0.2044 -0.3549 -0.0134
  133fsi    OBT 1245   1.506   2.824   3.189 -0.1193 -0.3236  0.5971
  133fsi    OBT 1246   1.321   2.982   3.233 -0.8503  0.2738  0.5534
  133fsi    FSI 1247   1.483   2.944   3.396 -0.1533  0.1920 -0.1379
  134fsi    FSI 1248   3.345   4.194   3.187  0.0289 -0.0834 -0.6492
  134fsi    SBT 1249   3.191   4.209   3.148  0.0678 -0.0400 -0.1338
  134fsi    NBT 1250   3.134   4.333   3.229 -0.7815  0.4609 -0.8682
  134fsi    OBT 1251   3.200   4.237   3.006  0.9997  0.4328  0.1785
  134fsi    OBT 1252   3.134   4.081   3.189 -0.1941  0.0510 -0.4825
  134fsi    SBT 1253   3.040   4.340   3.356 -0.1820  0.2170  0.2976
  134fsi    OBT 1254   3.011   4.216   3.419 -0.6649 -0.2163  0.2137
  134fsi    OBT 1255   2.934   4.433   3.331 -0.1301 -0.4210 -0.2209
  134fsi    FSI 1256   3.133   4.417   3.466  0.4752 -0.3078  0.3265
  135fsi    FSI 1257   1.649   3.447   3.170  0.1528  0.0017 -0.0450
  135fsi    SBT 1258   1.504   3.471   3.230  0.1068  0.2873 -0.0743
  135fsi    NBT 1259   1.452   3.601   3.159  0.8340  0.1535 -0.6508
  135fsi    OBT 1260   1.436   3.353   3.183 -0.4184 -0.1549 -0.5703
  135fsi    OBT 1261   1.508   3.491   3.371 -0.7655  0.2767 -0.0481
  135fsi    SBT 1262   1.330   3.618   3.055 -0.0948  0.2083  0.0677
  135fsi    OBT 1263   1.260   3.496   3.009 -0.0733 -0.5364 -0.6222
  135fsi    OBT 1264   1.353   3.715   2.957 -0.2952 -0.0989  0.0662
  135fsi    FSI 1265   1.228   3.685   3.147 -0.3886 -0.2579 -0.1988
  136fsi    FSI 1266   1.392   2.783   2.197  0.3051 -0.4647 -0.3779
  136fsi    SBT 1267   1.260   2.789   2.288 -0.3327 -0.0810  0.0431
  136fsi    NBT 1268   1.280   2.936   2.338 -0.0652 -0.2744  0.5293
  136fsi    OBT 1269   1.164   2.775   2.189 -0.1885  0.0114  0.0215
  136fsi    OBT 1270   1.278   2.684   2.387 -0.4229 -0.2232 -0.3268
  136fsi    SBT 1271   1.184   3.051   2.367  0.5461  0.1603  0.3230
  136fsi    OBT 1272   1.237   3.175   2.405 -0.1757  0.1144  0.6118
  136fsi    OBT 1273   1.064   2.994   2.427 -0.1793  0.1551 -0.1506
  136fsi    FSI 1274   1.141   3.087   2.219 -0.0681  0.3065  0.2544
  137fsi    FSI 1275   2.269   0.127   2.034  0.1474 -0.0109  0.1449
  137fsi    SBT 1276   2.282   0.254   2.133  0.2930 -0.4045  0.0869
  137fsi    NBT 1277   2.323   0.186   2.272 -0.3073 -0.6460 -0.2389
  137fsi    OBT 1278   2.391   0.322   2.067 -0.3307  0.0025 -0.0639
  137fsi    OBT 1279   2.153   0.311   2.134 -0.0403 -0.1809  0.4354
  137fsi    SBT 1280   2.462   0.165   2.345 -0.0996 -0.1576  0.0285
  137fsi    OBT 1281   2.438   0.156   2.486 -0.9802  0.1158 -0.4040
  137fsi    OBT 1282   2.581   0.233   2.293 -0.3246  0.1389 -0.5538
  137fsi    FSI 1283   2.502   0.019   2.313  0.5098 -0.2245  0.2346
  138fsi    FSI 1284   3.006   2.797   2.194 -0.2351 -0.3750 -0.2489
  138fsi    SBT 1285   2.948   2.835   2.334  0.0434 -0.0807  0.2555
  138fsi    NBT 1286   3.032   2.749   2.441  0.2997  0.1528 -0.1094
  138fsi    OBT 1287   2.964   2.975   2.343 -0.4406 -0.2586 -0.3238
  138fsi    OBT 1288   2.810   2.789   2.323 -0.0002 -0.3907 -0.0312
  138fsi    SBT 1289   3.097   2.792   2.578 -0.1286  0.0157 -0.0905
  138fsi    OBT 1290   3.078   2.927   2.621 -0.9120 -0.4835 -0.0015
  138fsi    OBT 1291   3.223   2.729   2.601 -0.7311  0.1098 -0.1682
  138fsi    FSI 1292   3.001   2.713   2.671  0.2022 -0.1282 -0.0479
  139fsi    FSI 1293   2.946   0.371   2.884 -0.4519 -0.0754 -0.5209
  139fsi    SBT 1294   2.878   0.482   2.969 -0.2137 -0.0647 -0.0541
  139fsi    NBT 1295   2.852   0.598   2.871 -0.5968  0.5091 -0.0496
  139fsi    OBT 1296   2.758   0.418   3.022 -0.0500 -0.0222 -0.3256
  139fsi    OBT 1297   2.979   0.519   3.059 -0.2246 -0.0965  0.1019
  139fsi    SBT 1298   2.732   0.621   2.774 -0.2727 -0.1330 -0.5857
  139fsi    OBT 1299   2.628   0.519   2.772  0.2459 -0.5261 -0.6075
  139fsi    OBT 1300   2.769   0.681   2.644  0.1081  0.3570 -0.1449
  139fsi    FSI 1301   2.663   0.752   2.843 -0.1881 -0.1972 -0.1305
  140fsi    FSI 1302   2.099   2.380   2.721  0.7450  0.3331 -0.0632
  140fsi    SBT 1303   2.125   2.231   2.783  0.4168  0.1666  0.1060
  140fsi    NBT 1304   2.235   2.251   2.893  0.0956 -0.3970 -0.0472
  140fsi    OBT 1305   2.005   2.197   2.848  0.6926 -0.2137  0.2824
  140fsi    OBT 1306   2.161   2.155   2.669 -0.1073 -0.2362  0.3941
  140fsi    SBT 1307   2.368   2.168   2.912  0.2162 -0.2988  0.2478
  140fsi    OBT 1308   2.383   2.038   2.865 -0.0554  0.5618  0.9564
  140fsi    OBT 1309   2.415   2.203   3.046 -0.4185  0.2880  0.1312
  140fsi    FSI 1310   2.476   2.253   2.827  0.0086  0.4558  0.2174
  141fsi    FSI 1311   1.039   1.651   3.061  0.0852 -0.0340  0.5989
  141fsi    SBT 1312   1.179   1.718   3.061 -0.0518 -0.6249  0.3696
  141fsi    NBT 1313   1.145   1.874   3.067 -0.2739  0.1921 -0.9437
  141fsi    OBT 1314   1.222   1.669   3.187 -0.2563 -0.0285 -0.6054
  141fsi    OBT 1315   1.240   1.671   2.938 -0.1463  0.4431 -0.3563
  141fsi    SBT 1316   1.130   1.974   2.941  0.8838 -0.1778  0.4404
  141fsi    OBT 1317   1.188   1.932   2.813 -0.4711 -0.2419  0.4009
  141fsi    OBT 1318   1.150   2.112   2.979  0.0487 -0.1674 -0.1118
  141fsi    FSI 1319   0.972   1.970   2.916 -0.0840 -0.2553 -0.5360
  142fsi    FSI 1320   3.484   5.004   2.564 -0.1481  0.6060  0.1761
  142fsi    SBT 1321   3.330   5.035   2.607 -0.2730 -0.0498  0.2922
  142fsi    NBT 1322   3.259   4.921   2.529  0.3211 -0.1577 -0.3415
  142fsi    OBT 1323   3.319   5.023   2.749  0.6562 -0.2330  0.4089
  142fsi    OBT 1324   3.308   5.168   2.554 -0.0031 -0.3408  0.0351
  142fsi    SBT 1325   3.181   4.922   2.392 -0.2792 -0.0212 -0.2079
  142fsi    OBT 1326   3.104   5.043   2.373  0.0210  0.7383 -0.3381
  142fsi    OBT 1327   3.117   4.794   2.372 -0.2403 -0.0144 -0.5371
  142fsi    FSI 1328   3.294   4.928   2.284  0.5927 -0.1103  0.0092
  143fsi    FSI 1329   2.458   5.204   2.720  0.0981  0.1136  0.1111
  143fsi    SBT 1330   2.588   5.278   2.746  0.4757  0.1118  0.0315
  143fsi    NBT 1331   2.607   5.349   2.602  0.0764  0.6932 -0.2923
  143fsi    OBT 1332   2.549   5.368   2.854  0.2926 -0.1072 -0.4941
  143fsi    OBT 1333   2.676   5.171   2.774  0.1435  0.3071  0.3845
  143fsi    SBT 1334   2.696   5.303   2.479  0.0568  0.2598 -0.1366
  143fsi    OBT 1335   2.811   5.220   2.517  0.8645 -0.9667 -0.4240
  143fsi    OBT 1336   2.715   5.402   2.372  0.4321 -0.1734  0.1799
  143fsi    FSI 1337   2.605   5.201   2.405 -0.2287 -0.2114 -0.2557
  144fsi    FSI 1338   3.445   4.625   2.781 -0.2289  0.2893 -0.1963
  144fsi    SBT 1339   3.311   4.601   2.714 -0.0865  0.3773 -0.2632
  144fsi    NBT 1340   3.335   4.610   2.562  0.1532  0.1262 -0.2000
  144fsi    OBT 1341   3.273   4.471   2.756 -0.1159 -0.0527  0.2144
  144fsi    OBT 1342   3.221   4.708   2.750 -0.3711 -0.5303 -0.1239
  144fsi    SBT 1343   3.396   4.505   2.466  0.0145  0.0666 -0.1838
  144fsi    OBT 1344   3.308   4.470   2.356  0.2577 -0.2590  0.4974
  144fsi    OBT 1345   3.449   4.389   2.530  0.4115  0.7693 -0.2182
  144fsi    FSI 1346   3.526   4.575   2.408 -0.4234 -0.2282 -0.5534
  145fsi    FSI 1347   2.133   0.013   3.002 -0.4477 -0.0204 -0.3450
  145fsi    SBT 1348   2.227   0.110   3.081 -0.0751  0.0815 -0.1393
  145fsi    NBT 1349   2.288   0.215   2.975  0.4515  0.2007  0.2926
  145fsi    OBT 1350   2.136   0.173   3.175  0.5372 -0.0197 -0.4190
  145fsi    OBT 1351   2.329   0.022   3.135  0.3187  0.6547 -0.1465
  145fsi    SBT 1352   2.388   0.177   2.860  0.0196  0.4288  0.3406
  145fsi    OBT 1353   2.403   0.032   2.842  0.4266 -0.2025 -0.3936
  145fsi    OBT 1354   2.503   0.261   2.851 -1.0863 -0.5335 -0.5702
  145fsi    FSI 1355   2.299   0.224   2.735  0.2471 -0.1935  0.6926
  146fsi    FSI 1356   3.448   1.198   1.811  0.6255 -0.1239 -0.1867
  146fsi    SBT 1357   3.507   1.180   1.953  0.1025  0.4010 -0.3714
  146fsi    NBT 1358   3.643   1.263   1.954  0.3781  0.1806  0.2565
  146fsi    OBT 1359   3.412   1.233   2.043  0.3479 -0.2550  0.3204
  146fsi    OBT 1360   3.526   1.038   1.959 -0.1747  0.0963  0.1406
  146fsi    SBT 1361   3.785   1.220   1.926 -0.2031  0.2848 -0.0772
  146fsi    OBT 1362   3.807   1.085   1.969 -0.0755  0.0058  0.3865
  146fsi    OBT 1363   3.887   1.315   1.968  0.1371 -0.4232 -0.2659
  146fsi    FSI 1364   3.788   1.216   1.766 -0.2303  0.2410  0.1270
  147fsi    FSI 1365   1.471   1.666   2.366  0.7877 -0.1005  0.2132
  147fsi    SBT 1366   1.490   1.782   2.482 -0.2164  0.0212  0.1547
  147fsi    NBT 1367   1.625   1.744   2.543  0.2386 -1.3444  0.5038
  147fsi    OBT 1368   1.493   1.903   2.406  0.5044 -0.1506  0.0844
  147fsi    OBT 1369   1.371   1.766   2.563  0.5419 -1.0376  0.2107
  147fsi    SBT 1370   1.668   1.686   2.678 -0.7180  0.2755  0.0603
  147fsi    OBT 1371   1.559   1.654   2.762 -0.3245  0.2539  0.8566
  147fsi    OBT 1372   1.782   1.758   2.733 -0.3730 -0.2577  0.1448
  147fsi    FSI 1373   1.723   1.553   2.623 -0.0573 -0.4388  0.0070
  148fsi    FSI 1374   1.880   1.771   2.413 -0.5027  0.0391  0.5926
  148fsi    SBT 1375   1.895   1.926   2.379 -0.0549  0.2809 -0.1554
  148fsi    NBT 1376   1.890   1.999   2.518  0.9742 -0.0993  0.5111
  148fsi    OBT 1377   2.028   1.933   2.323  0.5358  0.5615  0.7538
  148fsi    OBT 1378   1.781   1.958   2.292  0.6119 -0.2826 -0.3957
  148fsi    SBT 1379   1.792   2.108   2.566 -0.1593 -0.1708 -0.3094
  148fsi    OBT 1380   1.751   2.102   2.703  0.9009 -0.1849 -0.5806
  148fsi    OBT 1381   1.685   2.142   2.476 -0.2274 -0.8832  0.0244
  148fsi    FSI 1382   1.871   2.247   2.573 -0.1299 -0.0925 -0.1384
  149fsi    FSI 1383   1.382   2.129   3.272  0.7648 -0.8149  0.1662
  149fsi    SBT 1384   1.488   2.189   3.169  0.5764 -0.2329  0.5309
  149fsi    NBT 1385   1.481   2.105   3.038  0.0662  0.2153 -0.1982
  149fsi    OBT 1386   1.439   2.323   3.134  0.1564  0.8959 -0.0351
  149fsi    OBT 1387   1.609   2.170   3.242  0.1852  0.1603 -0.0597
  149fsi    SBT 1388   1.557   1.974   3.003  0.1584 -0.0135  0.0884
  149fsi    OBT 1389   1.702   1.970   3.013 -0.3728  0.4411  0.2565
  149fsi    OBT 1390   1.497   1.924   2.881 -0.9418 -0.0528 -0.1975
  149fsi    FSI 1391   1.501   1.879   3.114  0.5502  0.4944 -0.0416
  150fsi    FSI 1392   2.237   1.182   2.575  0.6649  0.0861  0.0459
  150fsi    SBT 1393   2.310   1.131   2.706  0.4447 -0.0174 -0.0017
  150fsi    NBT 1394   2.432   1.042   2.649  0.1662 -0.2870 -0.1765
  150fsi    OBT 1395   2.344   1.255   2.769  0.3636 -0.4592  0.0685
  150fsi    OBT 1396   2.203   1.061   2.778 -0.2419 -0.4765  0.7124
  150fsi    SBT 1397   2.588   1.069   2.649  0.0938 -0.3790  0.4029
  150fsi    OBT 1398   2.622   1.207   2.641 -0.3301 -0.0252 -0.3304
  150fsi    OBT 1399   2.665   0.977   2.565  0.1803  0.2500 -0.1494
  150fsi    FSI 1400   2.640   1.021   2.797  0.1894 -0.3580  0.1918
   5.64600   5.64600   5.64600
