simbox
 2300
    1Li      Li    1   1.786   2.435   1.746  0.5826 -0.0756  0.0789
    2Li      Li    2   0.142   1.738   0.078 -0.3362  0.0114 -0.0427
    3Li      Li    3   2.689   0.934   3.004 -0.5739 -0.1957  0.4931
    4Li      Li    4   2.464   0.289   2.991 -0.2368 -0.7205 -0.9855
    5Li      Li    5   1.754   0.080   2.073  0.0578 -0.2357  0.5813
    6Li      Li    6   0.700   0.965   1.400 -0.6542 -0.0770 -0.7228
    7Li      Li    7   1.209   2.618   2.994  0.4224  0.2511 -0.4087
    8Li      Li    8   1.577   2.789   0.352  0.1361 -0.4330  1.0949
    9Li      Li    9   0.078   2.368   2.596  0.1574  0.6790  0.2902
   10Li      Li   10   2.917   2.397   2.008 -0.1342 -0.9781 -0.4980
   11Li      Li   11   2.011   0.952   1.564  0.6663  0.0046  0.6171
   12Li      Li   12   2.279   1.447   2.278  0.6548  0.0591  0.1466
   13Li      Li   13   0.645   2.056   1.154  1.4273 -0.0548  0.8504
   14Li      Li   14   1.681   0.594   1.234  0.7961  0.2990 -0.0537
   15Li      Li   15   0.197   1.967   2.459 -0.0046 -0.4570  0.3067
   16Li      Li   16   2.049   2.792   1.368 -0.9868 -1.0740 -0.4672
   17Li      Li   17   0.452   0.646   2.333  0.0626 -0.2703 -0.2879
   18Li      Li   18   1.991   2.527   2.271 -0.3581 -0.3459 -0.7060
   19Li      Li   19   0.449   2.185   0.653  0.0440  0.1871 -0.1907
   20Li      Li   20   2.203   1.372   0.225 -0.1600 -0.9140  0.8334
   21Li      Li   21   0.178   0.981   0.706  1.3929  0.1262 -0.2230
   22Li      Li   22   2.799   2.884   2.359  0.1890  0.4602  1.0586
   23Li      Li   23   1.984   0.120   1.681 -0.2202  0.1919  0.9519
   24Li      Li   24   0.013   2.279   0.203 -0.9388  0.2289 -1.6767
   25Li      Li   25   1.140   1.626   2.204 -0.7714 -0.5549 -0.5901
   26Li      Li   26   2.662   2.971   0.448  0.1939  0.9124  0.3136
   27Li      Li   27   2.640   2.762   1.458 -0.8806 -0.6886  0.2907
   28Li      Li   28   1.211   1.903   0.192 -0.4755  0.1359 -0.7469
   29Li      Li   29   1.412   0.869   2.816 -0.3247 -0.2239  0.4731
   30Li      Li   30   2.561   1.468   0.700  0.0836 -0.4674  0.0420
   31Li      Li   31   0.169   0.531   2.840  0.3895  0.6517  0.5684
   32Li      Li   32   0.470   0.817   1.093  0.2376  0.6704 -0.5303
   33Li      Li   33   0.091   0.925   1.837 -0.9103 -0.1025  0.1388
   34Li      Li   34   0.567   2.522   2.913 -0.5823 -0.7207 -0.0908
   35Li      Li   35   2.581   1.938   0.190  0.5630 -0.2383  0.9381
   36Li      Li   36   2.403   0.570   1.453 -0.2154  0.0744  0.0290
   37Li      Li   37   0.714   2.683   0.960  0.4627  0.3269  0.0082
   38Li      Li   38   0.546   2.232   0.278  0.7337  0.2085  0.0977
   39Li      Li   39   0.728   0.396   0.025  0.1518 -1.1608  0.8562
   40Li      Li   40   0.302   0.883   0.005 -0.0589 -0.7940 -0.0461
   41Li      Li   41   0.956   2.851   2.453 -0.8201 -0.1654 -0.2633
   42Li      Li   42   2.887   0.366   2.592 -1.7216 -0.2084  0.2318
   43Li      Li   43   0.591   0.546   1.710  0.2148 -0.3850  0.3904
   44Li      Li   44   1.868   2.307   1.154  0.8917 -0.3489  0.3612
   45Li      Li   45   1.682   1.235   2.025 -1.1632  0.1730  0.7074
   46Li      Li   46   2.901   2.807   0.017 -0.4482 -0.0386 -1.4306
   47Li      Li   47   0.956   0.844   2.260  0.5257  0.0997  0.5523
   48Li      Li   48   1.098   1.044   1.949  0.5425 -0.1191  1.0288
   49Li      Li   49   1.533   2.780   1.838 -0.0220 -0.1187  0.5507
   50Li      Li   50   2.364   2.731   1.885 -0.1062  0.5442 -0.2455
   51c3c      N   51   2.096   2.973   2.866  0.1874  0.1515 -0.0879
   51c3c     C1   52   1.964   2.913   2.829 -0.1923 -0.0400 -0.2316
   51c3c     C2   53   2.134   3.030   2.733 -0.0224  0.5128 -0.2487
   51c3c     C3   54   1.899   3.020   2.748 -0.4515 -0.5181 -0.1075
   51c3c     C4   55   2.009   3.099   2.681 -0.8875 -1.0304  0.2702
   51c3c     C5   56   2.089   3.072   2.971 -0.1008  0.3557  0.2183
   51c3c     C6   57   2.190   2.874   2.924  0.1506 -0.5371 -0.1374
   51c3c     H1   58   1.892   2.885   2.906 -0.0849  2.0282  0.6540
   51c3c     H2   59   1.991   2.839   2.754  1.3168 -1.7283  1.9028
   51c3c     H3   60   2.218   3.094   2.759  0.6784 -0.8860  1.0099
   51c3c     H4   61   2.157   2.953   2.659 -2.3126  0.0287 -0.5125
   51c3c     H5   62   1.854   3.087   2.821 -2.3439 -3.2263  1.2850
   51c3c     H6   63   1.837   2.985   2.666 -1.4653 -2.2778  1.3794
   51c3c     H7   64   2.003   3.200   2.722  0.4178 -0.6214 -0.5343
   51c3c     H8   65   1.992   3.096   2.574 -0.2647 -1.3252  0.1762
   51c3c     H9   66   2.037   3.038   3.060 -0.1599 -1.9072 -0.6347
   51c3c    H10   67   2.190   3.112   2.986  1.2826 -2.6682 -0.5658
   51c3c    H11   68   2.037   3.166   2.952 -0.0373  0.3039 -0.2183
   51c3c    H12   69   2.285   2.918   2.955  0.4336 -0.7973 -0.6224
   51c3c    H13   70   2.145   2.831   3.013  0.7452 -1.6104 -0.3526
   51c3c     C7   71   2.225   2.747   2.845  0.2127  0.0473  0.1996
   51c3c    H14   72   2.269   2.772   2.749 -1.8552 -1.6786 -1.2469
   51c3c    H15   73   2.136   2.684   2.842  1.3587 -1.5856 -0.1372
   51c3c     C8   74   2.338   2.669   2.912  0.3904 -0.7029  0.0948
   51c3c    H16   75   2.313   2.626   3.009  1.6111  0.1796  0.8052
   51c3c    H17   76   2.432   2.723   2.917  0.7217 -0.9311 -2.8494
   51c3c    H18   77   2.365   2.580   2.855  1.1191 -0.2204 -0.3204
   52c3c      N   78   1.835   0.594   0.570 -0.3476 -0.3452  0.6232
   52c3c     C1   79   1.863   0.458   0.605 -0.0956  0.0542  0.1954
   52c3c     C2   80   1.762   0.650   0.682  0.0002 -0.0565  0.2255
   52c3c     C3   81   1.857   0.444   0.762 -0.1510  0.4016 -0.2971
   52c3c     C4   82   1.819   0.587   0.807 -0.1522  0.4186 -0.0805
   52c3c     C5   83   1.963   0.666   0.552 -0.2439 -0.3650  0.0356
   52c3c     C6   84   1.764   0.611   0.443  0.6479  0.2026  0.4314
   52c3c     H1   85   1.954   0.425   0.555 -0.2168  1.2333 -0.8467
   52c3c     H2   86   1.793   0.382   0.570 -1.2178  0.1589  2.1577
   52c3c     H3   87   1.754   0.758   0.692 -0.4170 -0.1411  0.8388
   52c3c     H4   88   1.667   0.596   0.681 -0.3896  0.6172 -1.0000
   52c3c     H5   89   1.943   0.402   0.815  0.9453  3.2592  0.2470
   52c3c     H6   90   1.769   0.384   0.782 -1.5571  1.8330 -2.0543
   52c3c     H7   91   1.913   0.635   0.832 -0.4553  2.1998 -2.1805
   52c3c     H8   92   1.758   0.601   0.896  1.7173  1.7455  1.0230
   52c3c     H9   93   2.005   0.635   0.456  0.4425  0.5327  0.0445
   52c3c    H10   94   1.945   0.773   0.561 -0.4890 -0.4579  0.7254
   52c3c    H11   95   2.044   0.635   0.619 -0.1524 -1.1565 -0.4323
   52c3c    H12   96   1.770   0.715   0.410  2.6070 -0.0187  0.0534
   52c3c    H13   97   1.809   0.551   0.364  0.6977  0.6313  0.1291
   52c3c     C7   98   1.612   0.560   0.439  0.0085  0.1875  0.2218
   52c3c    H14   99   1.554   0.615   0.513  0.6488  0.2316  0.6941
   52c3c    H15  100   1.606   0.454   0.464  0.0700  0.4369  1.3277
   52c3c     C8  101   1.539   0.594   0.305  0.0822 -0.1013  0.1276
   52c3c    H16  102   1.518   0.700   0.298 -1.0644 -0.1697  2.1259
   52c3c    H17  103   1.448   0.535   0.295  0.1825 -0.9247  3.5265
   52c3c    H18  104   1.599   0.564   0.219  2.8797  1.1771  1.5715
   53c3c      N  105   2.825   1.046   1.437 -0.1522  0.2737 -0.5346
   53c3c     C1  106   2.952   1.080   1.371 -0.5341 -0.2050  0.2997
   53c3c     C2  107   2.737   1.098   1.337 -0.5485  0.0580  0.3758
   53c3c     C3  108   2.940   1.046   1.223 -0.1624 -0.6780 -0.1433
   53c3c     C4  109   2.788   1.038   1.206  0.6030  0.1281 -0.0675
   53c3c     C5  110   2.816   0.899   1.451  0.2930  0.4466 -0.2832
   53c3c     C6  111   2.810   1.097   1.577 -0.2602 -0.4519  0.1865
   53c3c     H1  112   3.040   1.036   1.419 -0.3066 -0.7469 -0.6076
   53c3c     H2  113   2.966   1.188   1.376 -0.6256 -0.1081 -1.3245
   53c3c     H3  114   2.631   1.077   1.346 -0.2779 -1.8664 -0.6879
   53c3c     H4  115   2.741   1.207   1.340 -0.0327  0.0993 -1.3689
   53c3c     H5  116   2.994   0.953   1.203  1.0873 -0.0118  0.0239
   53c3c     H6  117   2.984   1.124   1.159  0.3541  0.2493  1.3089
   53c3c     H7  118   2.749   0.939   1.180  1.6707  0.2453 -2.1932
   53c3c     H8  119   2.750   1.104   1.128 -0.7206 -1.7629 -1.0748
   53c3c     H9  120   2.898   0.865   1.513 -0.7619  0.1632  0.9897
   53c3c    H10  121   2.729   0.861   1.505  2.2492  0.2550  2.8345
   53c3c    H11  122   2.831   0.839   1.362 -0.0547 -0.2024  0.0880
   53c3c    H12  123   2.724   1.049   1.625  1.8877 -3.8292  0.7853
   53c3c    H13  124   2.891   1.067   1.643 -0.9502 -0.7339  0.9207
   53c3c     C7  125   2.787   1.256   1.593  0.1676 -0.1655 -0.2281
   53c3c    H14  126   2.701   1.299   1.542 -0.3786 -0.5598  0.3518
   53c3c    H15  127   2.871   1.309   1.548 -0.9707  0.8878 -1.1509
   53c3c     C8  128   2.775   1.288   1.743 -0.2817 -0.0836  0.4737
   53c3c    H16  129   2.860   1.255   1.802 -0.4876  0.6560  1.2050
   53c3c    H17  130   2.692   1.242   1.798  0.7560 -1.8731  0.5865
   53c3c    H18  131   2.775   1.397   1.750 -0.1485 -0.0808  0.4290
   54c3c      N  132   0.407   1.576   1.320  0.2947  0.0601 -0.0561
   54c3c     C1  133   0.413   1.719   1.335 -0.7948 -0.1629 -0.3323
   54c3c     C2  134   0.502   1.540   1.208 -0.0351 -0.6511  0.0672
   54c3c     C3  135   0.563   1.756   1.305 -0.0783  0.0149 -0.1348
   54c3c     C4  136   0.614   1.646   1.211  0.2540  0.4952  0.4814
   54c3c     C5  137   0.453   1.518   1.448  0.6843  0.2914  0.7239
   54c3c     C6  138   0.270   1.521   1.299  0.0010 -0.6040  0.2227
   54c3c     H1  139   0.384   1.755   1.434 -1.5375 -0.6984 -0.3538
   54c3c     H2  140   0.342   1.767   1.267 -0.2448  1.3506  0.1341
   54c3c     H3  141   0.539   1.437   1.213 -2.4067 -1.5819 -0.8235
   54c3c     H4  142   0.456   1.546   1.109 -0.7957  0.2503  0.4717
   54c3c     H5  143   0.627   1.750   1.393  0.8855 -1.4619 -0.9061
   54c3c     H6  144   0.568   1.850   1.250 -0.9011 -0.1460 -0.4937
   54c3c     H7  145   0.702   1.598   1.255  0.8195  0.9242 -0.1862
   54c3c     H8  146   0.641   1.677   1.110 -0.6822 -0.0554  0.0529
   54c3c     H9  147   0.391   1.550   1.531 -2.1303  0.8558 -1.5065
   54c3c    H10  148   0.443   1.409   1.442 -3.6824  0.7543 -3.1421
   54c3c    H11  149   0.551   1.556   1.475  0.1796  1.9385  0.2747
   54c3c    H12  150   0.278   1.413   1.302  1.0810 -0.5195  0.5162
   54c3c    H13  151   0.219   1.547   1.392  0.1124 -0.3673  0.2178
   54c3c     C7  152   0.181   1.562   1.176 -0.0237 -0.2833 -0.6787
   54c3c    H14  153   0.236   1.524   1.090  1.4465 -1.8369  0.8970
   54c3c    H15  154   0.185   1.670   1.170 -0.7108 -0.2792 -1.0152
   54c3c     C8  155   0.038   1.499   1.190  0.4356 -0.3042 -0.1436
   54c3c    H16  156   0.038   1.394   1.217 -2.9427 -0.9024 -2.1479
   54c3c    H17  157  -0.012   1.506   1.093 -1.6734 -1.1265  0.8511
   54c3c    H18  158  -0.034   1.555   1.250  1.2116 -1.4901  1.9151
   55c3c      N  159   0.144   2.726   1.247 -0.4397  0.2812 -0.0278
   55c3c     C1  160   0.285   2.728   1.210 -0.8151  0.1085 -0.2416
   55c3c     C2  161   0.115   2.583   1.273 -0.1363  0.2533  0.8897
   55c3c     C3  162   0.353   2.611   1.281  0.0277 -0.8398  0.0623
   55c3c     C4  163   0.236   2.518   1.325  0.1918 -0.2045 -0.2292
   55c3c     C5  164   0.135   2.802   1.374 -0.4077 -0.7712 -0.4154
   55c3c     C6  165   0.055   2.799   1.154  0.4270  0.5757  0.7826
   55c3c     H1  166   0.342   2.818   1.233  0.1259 -0.5553  0.0478
   55c3c     H2  167   0.291   2.707   1.103 -1.9188  0.7232 -0.4317
   55c3c     H3  168   0.025   2.562   1.332  0.8615 -1.3261  1.8812
   55c3c     H4  169   0.094   2.537   1.177  2.0297  0.5725  0.2331
   55c3c     H5  170   0.402   2.653   1.369  2.6099  1.7812 -2.5411
   55c3c     H6  171   0.426   2.557   1.222 -0.3113  0.5429 -1.6376
   55c3c     H7  172   0.234   2.523   1.434 -1.2001  0.2541 -0.2778
   55c3c     H8  173   0.239   2.414   1.293  1.1755 -0.3507  0.2932
   55c3c     H9  174   0.196   2.892   1.378 -1.3825 -0.0819 -1.0480
   55c3c    H10  175   0.031   2.824   1.398 -0.1931 -1.0754  0.8592
   55c3c    H11  176   0.180   2.758   1.463 -0.1622  1.3799  0.5448
   55c3c    H12  177  -0.048   2.796   1.189 -0.1409  0.6037 -0.8031
   55c3c    H13  178   0.081   2.904   1.144 -2.1773  1.1006 -1.2489
   55c3c     C7  179   0.065   2.743   1.009 -0.7067 -0.5496 -0.1227
   55c3c    H14  180   0.057   2.635   1.007  0.0472 -0.6096 -0.0873
   55c3c    H15  181   0.158   2.770   0.958 -1.2695 -0.7813 -1.2788
   55c3c     C8  182  -0.045   2.794   0.917  0.5481  0.1217  0.0529
   55c3c    H16  183  -0.145   2.757   0.942 -0.1935  1.1458 -1.3534
   55c3c    H17  184  -0.022   2.754   0.819 -0.2971  2.4669 -1.1391
   55c3c    H18  185  -0.049   2.900   0.892  0.0967 -0.1135 -0.9069
   56c3c      N  186   1.451   1.793   0.991  0.0043 -0.1563 -0.1373
   56c3c     C1  187   1.549   1.903   0.962  0.3551  0.3153 -0.5368
   56c3c     C2  188   1.320   1.862   1.015  0.0522 -0.9196  0.0538
   56c3c     C3  189   1.471   2.003   0.882  0.2419  0.3009 -0.4310
   56c3c     C4  190   1.323   1.982   0.925  0.1966 -0.2279  0.2647
   56c3c     C5  191   1.438   1.705   0.873  0.0930 -0.3936 -1.0316
   56c3c     C6  192   1.481   1.705   1.102  0.2003  0.0895  0.0473
   56c3c     H1  193   1.643   1.870   0.918  0.8334  0.3173  0.4781
   56c3c     H2  194   1.575   1.948   1.057 -2.1147 -1.0083  0.8415
   56c3c     H3  195   1.239   1.798   0.980  1.9033 -4.4130  1.8850
   56c3c     H4  196   1.305   1.886   1.120 -0.7154 -0.4600 -0.1633
   56c3c     H5  197   1.491   1.973   0.779 -0.2070  0.0785 -0.4524
   56c3c     H6  198   1.514   2.102   0.895  4.0138 -1.3687  0.4967
   56c3c     H7  199   1.261   1.961   0.838  0.2324 -0.4655  0.2963
   56c3c     H8  200   1.289   2.064   0.989  0.5463  1.6969 -1.9539
   56c3c     H9  201   1.535   1.666   0.842  0.6287  0.7015 -0.7454
   56c3c    H10  202   1.379   1.613   0.878  2.1900 -1.6588  1.7713
   56c3c    H11  203   1.404   1.763   0.787  1.4154 -0.2863 -1.4812
   56c3c    H12  204   1.399   1.634   1.111 -1.3415  1.9177  0.6701
   56c3c    H13  205   1.565   1.639   1.076 -0.0846 -1.4261  2.7753
   56c3c     C7  206   1.514   1.762   1.243 -0.1868 -0.4006  0.2709
   56c3c    H14  207   1.426   1.798   1.295 -1.5189 -1.7047 -1.0163
   56c3c    H15  208   1.581   1.847   1.233 -1.5670  0.5047 -1.6837
   56c3c     C8  209   1.593   1.655   1.323  0.2846  0.1291  0.3660
   56c3c    H16  210   1.698   1.654   1.295 -0.1483  0.2394 -1.3236
   56c3c    H17  211   1.550   1.556   1.314 -0.5141  0.5810 -0.8965
   56c3c    H18  212   1.586   1.685   1.428 -1.4007 -0.3564  0.4133
   57c3c      N  213   0.973   0.257   0.992 -0.4678 -0.2597  0.2268
   57c3c     C1  214   0.836   0.208   1.015  0.5041 -0.7271 -0.4880
   57c3c     C2  215   0.969   0.404   0.997  0.3830  0.2939  0.2912
   57c3c     C3  216   0.773   0.305   1.117  1.0594 -0.6132 -0.9490
   57c3c     C4  217   0.875   0.424   1.120 -0.5558  0.0650  0.3789
   57c3c     C5  218   1.055   0.204   1.108 -0.5030  0.0481 -0.1509
   57c3c     C6  219   1.040   0.205   0.872 -0.3175 -0.4703 -0.1495
   57c3c     H1  220   0.836   0.106   1.056  1.4111 -0.7849 -0.6387
   57c3c     H2  221   0.775   0.204   0.924 -0.5203 -1.4130  0.2028
   57c3c     H3  222   1.063   0.458   1.011  0.7778 -0.7186  1.6741
   57c3c     H4  223   0.911   0.445   0.915 -1.0318 -1.1201  0.5701
   57c3c     H5  224   0.770   0.254   1.213 -2.4024  0.2617 -0.5412
   57c3c     H6  225   0.668   0.326   1.099  1.5692  1.4755 -1.5395
   57c3c     H7  226   0.915   0.411   1.220 -1.9148  1.2725  1.0886
   57c3c     H8  227   0.825   0.518   1.098 -0.7301  0.3318  1.8814
   57c3c     H9  228   1.060   0.096   1.112  2.5995  0.2351  4.1206
   57c3c    H10  229   1.158   0.238   1.107 -0.6746  0.6594  1.6124
   57c3c    H11  230   1.013   0.234   1.204 -1.4470 -1.2621 -0.1386
   57c3c    H12  231   1.145   0.235   0.873  0.2117 -2.2292  0.1913
   57c3c    H13  232   1.046   0.097   0.887 -1.0788 -0.3423  1.1515
   57c3c     C7  233   0.987   0.242   0.740 -0.5868  0.0044  0.2650
   57c3c    H14  234   0.989   0.349   0.717 -3.5421  0.1540  0.4267
   57c3c    H15  235   0.881   0.217   0.736 -0.7240  0.6489 -0.1771
   57c3c     C8  236   1.063   0.159   0.630 -0.3413 -0.1836 -0.1994
   57c3c    H16  237   1.021   0.160   0.529 -1.2805 -0.4004  0.1769
   57c3c    H17  238   1.075   0.055   0.660  1.9018 -0.4933 -2.0158
   57c3c    H18  239   1.164   0.198   0.624  0.5794 -2.5900 -0.9687
   58c3c      N  240   1.687   1.662   2.659  0.4269 -0.4471  0.2723
   58c3c     C1  241   1.643   1.560   2.558 -0.5563  0.8131 -0.1427
   58c3c     C2  242   1.804   1.596   2.726 -0.4164  0.0244  0.0420
   58c3c     C3  243   1.776   1.497   2.505 -0.0531 -0.0501  0.6266
   58c3c     C4  244   1.878   1.524   2.610 -0.0839  0.2116 -0.4323
   58c3c     C5  245   1.744   1.784   2.593  0.2639  0.2405 -0.1488
   58c3c     C6  246   1.579   1.707   2.753 -0.6224 -0.2197  0.5533
   58c3c     H1  247   1.591   1.590   2.467  1.4231 -0.6960 -1.8238
   58c3c     H2  248   1.582   1.487   2.610 -0.1613 -0.6421 -1.6482
   58c3c     H3  249   1.876   1.661   2.775  1.0382 -2.0661  0.7599
   58c3c     H4  250   1.779   1.523   2.803  2.7620  1.0916  2.1598
   58c3c     H5  251   1.799   1.552   2.413 -0.7380 -1.1731 -0.2399
   58c3c     H6  252   1.777   1.389   2.487  0.0843  0.0847 -0.2184
   58c3c     H7  253   1.959   1.587   2.573 -1.0462  0.3075 -2.4564
   58c3c     H8  254   1.918   1.425   2.631  0.8276  0.0300 -2.8577
   58c3c     H9  255   1.668   1.830   2.529  1.4222 -0.4242 -2.0664
   58c3c    H10  256   1.767   1.859   2.667 -1.3455 -2.0652  2.7982
   58c3c    H11  257   1.835   1.772   2.533  1.0960  2.3719  0.6620
   58c3c    H12  258   1.636   1.775   2.816 -0.8780  0.4352  0.0744
   58c3c    H13  259   1.498   1.756   2.699  1.5780  0.4895 -2.2100
   58c3c     C7  260   1.503   1.609   2.842 -0.6616  0.3108  0.2227
   58c3c    H14  261   1.548   1.511   2.826 -1.2046  0.3031 -1.3016
   58c3c    H15  262   1.401   1.597   2.805 -0.6104 -1.0500  0.5027
   58c3c     C8  263   1.503   1.640   2.991  0.5088  0.0107  0.4037
   58c3c    H16  264   1.458   1.562   3.053  1.1405  0.3903  1.3600
   58c3c    H17  265   1.460   1.736   3.019  1.8976  0.5698  0.6779
   58c3c    H18  266   1.607   1.658   3.021  1.2916 -1.3890 -1.4435
   59c3c      N  267   0.835   2.304   2.211  0.2511  0.1888 -0.7167
   59c3c     C1  268   0.847   2.410   2.310  0.5125 -0.5884  0.0893
   59c3c     C2  269   0.923   2.204   2.272  0.7321 -0.8385 -0.2223
   59c3c     C3  270   0.826   2.346   2.447  0.4075 -0.0571  0.2208
   59c3c     C4  271   0.895   2.213   2.420  0.1651 -0.2299  0.5858
   59c3c     C5  272   0.700   2.239   2.195 -0.0859  0.5784  0.0744
   59c3c     C6  273   0.876   2.351   2.082 -0.6793 -0.1204 -0.2410
   59c3c     H1  274   0.774   2.488   2.290  1.1814 -0.4655 -2.0116
   59c3c     H2  275   0.946   2.455   2.313  0.2228  0.0046  1.2817
   59c3c     H3  276   0.902   2.103   2.238  2.4333 -0.4291 -2.6531
   59c3c     H4  277   1.029   2.223   2.254  0.8684  1.3528  2.5755
   59c3c     H5  278   0.718   2.349   2.466 -0.1816  0.6258 -2.9557
   59c3c     H6  279   0.878   2.409   2.519 -0.6650  1.4024 -0.2403
   59c3c     H7  280   0.835   2.129   2.457  1.6906 -0.9576  1.4542
   59c3c     H8  281   0.982   2.218   2.485 -0.0424 -0.3808  0.8773
   59c3c     H9  282   0.619   2.308   2.170 -1.6315 -0.7127  1.3414
   59c3c    H10  283   0.696   2.154   2.127 -0.0603  0.1829  0.5659
   59c3c    H11  284   0.656   2.189   2.282 -1.4145 -0.9246 -1.4339
   59c3c    H12  285   0.857   2.269   2.012 -2.2698 -1.4514  1.7050
   59c3c    H13  286   0.807   2.423   2.040 -1.8598 -1.5712 -0.8359
   59c3c     C7  287   1.027   2.403   2.075  0.5524 -0.4484 -0.2871
   59c3c    H14  288   1.102   2.324   2.086  1.3489  0.4013  0.5040
   59c3c    H15  289   1.051   2.485   2.143  0.3722 -0.8225  0.2392
   59c3c     C8  290   1.042   2.467   1.933  0.0323 -0.1413  0.0814
   59c3c    H16  291   1.031   2.397   1.850  3.1479 -1.2687  0.5594
   59c3c    H17  292   1.141   2.509   1.917 -0.7116  1.4299 -0.5111
   59c3c    H18  293   0.967   2.545   1.919 -2.4718 -2.8078 -2.0581
   60c3c      N  294   1.559   0.543   1.771 -0.8562 -0.0497  0.2394
   60c3c     C1  295   1.685   0.478   1.789  0.7556 -0.1514  0.2802
   60c3c     C2  296   1.534   0.618   1.894  0.4439 -0.4006  0.5797
   60c3c     C3  297   1.774   0.574   1.864  0.0843 -0.6760 -0.0353
   60c3c     C4  298   1.673   0.662   1.947  0.0484 -0.0251  0.7008
   60c3c     C5  299   1.565   0.645   1.662 -0.5815 -0.5117  0.4126
   60c3c     C6  300   1.462   0.446   1.723  0.1506  0.0409  0.0382
   60c3c     H1  301   1.733   0.428   1.706  0.3575  1.2083 -0.7805
   60c3c     H2  302   1.680   0.392   1.856 -1.4536  0.3786  0.8284
   60c3c     H3  303   1.455   0.692   1.885  2.1970  1.4775  0.2995
   60c3c     H4  304   1.496   0.547   1.969  2.0636 -1.3966  0.4760
   60c3c     H5  305   1.820   0.633   1.786 -0.3266  0.1158  0.3147
   60c3c     H6  306   1.853   0.529   1.923 -0.3517  0.3365  1.3572
   60c3c     H7  307   1.682   0.764   1.909  0.6667  0.3230  1.7569
   60c3c     H8  308   1.681   0.657   2.056  0.2541  1.8283  0.7976
   60c3c     H9  309   1.614   0.602   1.575  1.9583  1.9957  0.5242
   60c3c    H10  310   1.466   0.679   1.629 -0.2692 -0.6642 -0.7110
   60c3c    H11  311   1.629   0.732   1.673 -2.1380  0.9996 -1.8245
   60c3c    H12  312   1.368   0.495   1.699  0.9612  0.8174 -1.6442
   60c3c    H13  313   1.488   0.399   1.628  1.8917 -2.0139  1.4970
   60c3c     C7  314   1.419   0.335   1.816 -0.1232 -0.2675 -0.1778
   60c3c    H14  315   1.382   0.390   1.903 -1.2094  0.7168 -1.2417
   60c3c    H15  316   1.502   0.272   1.848  0.2975  1.2812  1.9180
   60c3c     C8  317   1.306   0.247   1.758  0.2284 -0.3213  0.4271
   60c3c    H16  318   1.338   0.206   1.662  1.6788  0.8350  0.4008
   60c3c    H17  319   1.217   0.309   1.749  1.3153  1.2713  0.3533
   60c3c    H18  320   1.276   0.165   1.823  1.2854 -1.5956 -0.6545
   61c3c      N  321   1.952   2.264   2.939  0.0644 -0.0410 -0.1068
   61c3c     C1  322   1.852   2.343   2.849 -0.1702  0.2521  0.2690
   61c3c     C2  323   1.971   2.143   2.854  0.0238  0.1115 -0.6433
   61c3c     C3  324   1.906   2.328   2.701  0.4308  0.0642  0.2562
   61c3c     C4  325   1.987   2.194   2.709  0.3076  0.3258  0.3700
   61c3c     C5  326   2.077   2.335   2.962  0.1725 -0.3738 -0.2888
   61c3c     C6  327   1.898   2.228   3.075  0.0587  0.3934  0.0720
   61c3c     H1  328   1.842   2.447   2.878  1.5029  0.2572  0.8831
   61c3c     H2  329   1.755   2.293   2.851  0.1171 -0.3924 -1.1101
   61c3c     H3  330   2.052   2.082   2.892 -1.5955 -1.5347  0.2715
   61c3c     H4  331   1.882   2.080   2.862 -0.1596  0.3694 -0.6476
   61c3c     H5  332   1.976   2.410   2.683 -1.5801  1.8483  0.4964
   61c3c     H6  333   1.835   2.319   2.619 -0.2689 -1.8319  1.0621
   61c3c     H7  334   2.095   2.199   2.696  0.3981 -0.0004  0.9682
   61c3c     H8  335   1.952   2.127   2.630  0.4777  0.8629 -0.1654
   61c3c     H9  336   2.073   2.427   3.021 -0.3518 -0.0499 -0.8177
   61c3c    H10  337   2.149   2.272   3.015 -0.3128 -0.8418 -0.1752
   61c3c    H11  338   2.132   2.364   2.873  0.9019 -0.1480  0.2366
   61c3c    H12  339   1.958   2.158   3.134 -3.0632 -0.9627  1.7326
   61c3c    H13  340   1.900   2.317   3.137 -0.0523  0.5846 -0.1978
   61c3c     C7  341   1.753   2.188   3.086  0.7919  0.5119 -0.3870
   61c3c    H14  342   1.741   2.111   3.010  1.3418 -0.5284  0.5753
   61c3c    H15  343   1.692   2.274   3.057  1.7318  1.2533 -0.1660
   61c3c     C8  344   1.701   2.160   3.223 -0.1327 -0.4133 -0.4476
   61c3c    H16  345   1.775   2.109   3.284 -0.8732 -0.9404  0.0198
   61c3c    H17  346   1.602   2.115   3.231 -0.8539  1.0479 -0.8004
   61c3c    H18  347   1.684   2.259   3.267  0.0121 -0.3120 -0.6178
   62c3c      N  348   1.226   0.889   1.171  0.3429 -0.2161 -0.4300
   62c3c     C1  349   1.296   0.778   1.233  0.1450  0.2631 -0.1430
   62c3c     C2  350   1.097   0.875   1.241 -0.3298  0.8309  0.2059
   62c3c     C3  351   1.269   0.797   1.381 -0.5076 -1.3569 -0.1454
   62c3c     C4  352   1.131   0.863   1.389  0.7221 -0.2034 -0.4833
   62c3c     C5  353   1.280   1.020   1.202 -0.9324  0.1141  0.3227
   62c3c     C6  354   1.209   0.875   1.026 -0.0413  0.3906  0.6097
   62c3c     H1  355   1.402   0.773   1.210  0.1877 -0.5616  0.2096
   62c3c     H2  356   1.254   0.680   1.211  1.4704 -0.6729  1.3366
   62c3c     H3  357   1.029   0.956   1.217  0.5285  1.2504 -0.8710
   62c3c     H4  358   1.053   0.778   1.219  0.3305 -0.0470  2.6374
   62c3c     H5  359   1.340   0.867   1.425 -1.8956 -0.3273  0.5117
   62c3c     H6  360   1.276   0.705   1.438 -3.0148 -1.4327  0.0997
   62c3c     H7  361   1.140   0.965   1.427 -1.6411  0.4903 -1.7130
   62c3c     H8  362   1.061   0.799   1.443  1.7784 -1.0268 -0.0673
   62c3c     H9  363   1.375   1.035   1.152 -0.8881 -0.3534  0.2731
   62c3c    H10  364   1.217   1.102   1.165 -0.7676  0.3511  0.5611
   62c3c    H11  365   1.304   1.042   1.306 -2.1842 -0.9604  0.8526
   62c3c    H12  366   1.149   0.962   0.999  0.7110  0.6982 -0.1044
   62c3c    H13  367   1.307   0.890   0.981 -0.1681 -0.8877 -0.1237
   62c3c     C7  368   1.146   0.743   0.973 -0.0444  0.1437  0.4603
   62c3c    H14  369   1.048   0.729   1.017 -0.5540 -2.4275 -1.4214
   62c3c    H15  370   1.200   0.651   0.992  0.6893  0.1521 -1.4288
   62c3c     C8  371   1.110   0.746   0.824  0.4230 -0.0314 -0.2230
   62c3c    H16  372   1.198   0.723   0.764  0.4086 -2.9821  0.8064
   62c3c    H17  373   1.070   0.841   0.787 -1.7579  0.7639  3.8805
   62c3c    H18  374   1.027   0.679   0.803  2.4349 -2.3294 -1.0947
   63c3c      N  375   1.413   2.338   2.377 -0.0538  0.5852  0.4270
   63c3c     C1  376   1.542   2.300   2.440  0.3211  0.0194 -0.1647
   63c3c     C2  377   1.317   2.338   2.485 -0.2946 -0.0290  0.2640
   63c3c     C3  378   1.539   2.370   2.572 -0.6087 -0.5871 -0.4188
   63c3c     C4  379   1.393   2.411   2.602  0.2179 -0.0479 -0.3686
   63c3c     C5  380   1.428   2.474   2.326 -0.2112 -1.4204  0.4251
   63c3c     C6  381   1.364   2.261   2.262 -0.2532 -0.0637  0.9720
   63c3c     H1  382   1.636   2.314   2.387  0.7099  0.6342  0.6724
   63c3c     H2  383   1.539   2.196   2.472  0.0695 -0.2749 -1.1361
   63c3c     H3  384   1.227   2.388   2.450 -0.7401 -1.8741 -1.2634
   63c3c     H4  385   1.295   2.237   2.519 -1.7025  0.5136  1.0390
   63c3c     H5  386   1.604   2.457   2.576  0.1444 -1.0956 -1.5186
   63c3c     H6  387   1.584   2.303   2.645  1.7575 -0.4696 -1.7219
   63c3c     H7  388   1.375   2.518   2.612  0.5459  0.2193 -2.2817
   63c3c     H8  389   1.373   2.355   2.693  1.3447 -0.6644 -0.4874
   63c3c     H9  390   1.489   2.468   2.236 -1.1417 -2.3182 -0.1479
   63c3c    H10  391   1.330   2.517   2.310 -0.9891 -2.2194  2.8673
   63c3c    H11  392   1.484   2.539   2.394 -0.2995 -0.9357  0.0340
   63c3c    H12  393   1.274   2.306   2.219 -0.5833  0.1623  1.8904
   63c3c    H13  394   1.438   2.261   2.182 -1.2488  1.8316  0.0161
   63c3c     C7  395   1.337   2.111   2.301 -0.8253 -0.4557  0.6015
   63c3c    H14  396   1.247   2.106   2.363 -0.9926 -1.8435  0.2771
   63c3c    H15  397   1.427   2.067   2.343  0.2272  1.7337  0.6944
   63c3c     C8  398   1.307   2.031   2.176 -0.0856  0.3070 -0.6300
   63c3c    H16  399   1.287   1.926   2.198  0.3495  0.1842 -0.8211
   63c3c    H17  400   1.398   2.033   2.116  0.5680 -2.5779  0.2038
   63c3c    H18  401   1.220   2.061   2.118  0.6212  0.2127 -1.7516
   64c3c      N  402   2.467   2.123   1.491  0.1330  0.2692 -0.3264
   64c3c     C1  403   2.464   2.268   1.463 -0.4893  0.3333 -0.2332
   64c3c     C2  404   2.328   2.078   1.480  0.1148 -0.0540  0.7945
   64c3c     C3  405   2.360   2.283   1.348  0.4253 -0.4499 -0.0010
   64c3c     C4  406   2.266   2.166   1.366  0.0132  0.3377  0.2670
   64c3c     C5  407   2.545   2.055   1.389 -0.1754 -0.0665  0.7299
   64c3c     C6  408   2.528   2.098   1.619 -0.2706 -0.2671  0.1459
   64c3c     H1  409   2.558   2.320   1.444 -0.3745  0.4073  0.5439
   64c3c     H2  410   2.415   2.320   1.545 -1.8111  0.7224 -1.2418
   64c3c     H3  411   2.317   1.976   1.445  1.4203 -0.2633  0.9730
   64c3c     H4  412   2.265   2.079   1.569  1.1178 -0.1207  1.5231
   64c3c     H5  413   2.403   2.276   1.248 -1.1734  0.4428 -0.7581
   64c3c     H6  414   2.303   2.375   1.357 -0.2617 -0.8097 -0.6538
   64c3c     H7  415   2.280   2.107   1.276 -0.8111 -0.6794  0.8029
   64c3c     H8  416   2.165   2.202   1.383 -0.6391  0.2471 -3.0542
   64c3c     H9  417   2.650   2.084   1.394 -0.0207 -0.7715  1.8803
   64c3c    H10  418   2.548   1.947   1.404  1.5387 -0.2499 -0.7099
   64c3c    H11  419   2.503   2.062   1.289 -1.6152  2.2238  1.4835
   64c3c    H12  420   2.535   1.989   1.613  0.0711 -0.2049 -0.7173
   64c3c    H13  421   2.635   2.120   1.628  0.4623 -2.8690 -1.5267
   64c3c     C7  422   2.456   2.150   1.746  0.6868  0.6313  0.3923
   64c3c    H14  423   2.353   2.117   1.752  0.1572  1.9577 -1.1242
   64c3c    H15  424   2.449   2.259   1.748 -1.1001  0.6088 -2.3351
   64c3c     C8  425   2.520   2.117   1.882 -1.2270  0.5393 -1.2952
   64c3c    H16  426   2.625   2.140   1.895 -1.7940  1.8058  1.2768
   64c3c    H17  427   2.511   2.011   1.904  1.0554  0.8470  1.3935
   64c3c    H18  428   2.468   2.173   1.960  0.4972 -0.7114  0.8163
   65c3c      N  429   2.478   2.593   0.742 -0.4775  0.2396  0.4117
   65c3c     C1  430   2.578   2.647   0.655 -0.7638 -0.5249 -0.3758
   65c3c     C2  431   2.523   2.452   0.753  0.2652 -0.0197 -0.1597
   65c3c     C3  432   2.710   2.590   0.702  0.3365 -0.2353 -0.3197
   65c3c     C4  433   2.675   2.462   0.753  0.1798  0.3490 -0.7767
   65c3c     C5  434   2.487   2.660   0.874  0.6929  0.1836 -0.0243
   65c3c     C6  435   2.337   2.606   0.694  0.3191  0.3033  1.1860
   65c3c     H1  436   2.577   2.756   0.658 -0.6534 -0.4433 -2.5115
   65c3c     H2  437   2.579   2.620   0.549  1.6195 -0.0079 -0.5304
   65c3c     H3  438   2.483   2.411   0.845  2.4706 -1.7880  0.0721
   65c3c     H4  439   2.489   2.397   0.666  0.1267  0.0686 -0.1608
   65c3c     H5  440   2.765   2.641   0.780  1.7997 -0.5068 -1.1460
   65c3c     H6  441   2.775   2.563   0.618 -0.1388 -1.2274 -0.3789
   65c3c     H7  442   2.714   2.444   0.853 -0.0376 -0.6254 -0.8609
   65c3c     H8  443   2.708   2.377   0.693  0.9066  0.5609 -0.6792
   65c3c     H9  444   2.483   2.768   0.860  1.2521 -0.0897 -2.5007
   65c3c    H10  445   2.407   2.646   0.947  0.3852  1.4322 -0.1061
   65c3c    H11  446   2.577   2.624   0.923  1.8641  2.4409 -0.4559
   65c3c    H12  447   2.267   2.578   0.773  0.9730 -0.2574  1.5733
   65c3c    H13  448   2.309   2.708   0.670  0.4965  0.3921  1.3589
   65c3c     C7  449   2.300   2.527   0.561  0.1953 -0.4501  0.6483
   65c3c    H14  450   2.298   2.422   0.589 -0.2606 -0.5951  0.0866
   65c3c    H15  451   2.374   2.535   0.482 -1.1415  2.7717 -0.3471
   65c3c     C8  452   2.160   2.545   0.495  0.7920 -0.4270 -0.0800
   65c3c    H16  453   2.082   2.545   0.572  0.5502 -0.1338 -0.3253
   65c3c    H17  454   2.136   2.459   0.433 -0.7041 -1.4670  1.8686
   65c3c    H18  455   2.161   2.637   0.438  2.1059 -1.6221 -2.0389
   66c3c      N  456   1.004   2.350   0.681  0.1187 -0.4715 -0.1287
   66c3c     C1  457   1.027   2.287   0.551 -0.4871  0.4874 -0.7165
   66c3c     C2  458   0.986   2.498   0.641 -0.2521  0.0550  0.5377
   66c3c     C3  459   0.927   2.349   0.455  0.2934 -0.5526  0.3496
   66c3c     C4  460   0.909   2.493   0.505  0.1730 -0.1455 -0.2169
   66c3c     C5  461   0.877   2.307   0.733  0.4987 -0.1469  0.4634
   66c3c     C6  462   1.107   2.335   0.782  0.0972 -0.0636  0.1353
   66c3c     H1  463   1.009   2.180   0.540  1.4138 -0.1563  1.8009
   66c3c     H2  464   1.125   2.300   0.506 -0.1097  2.3539  0.5886
   66c3c     H3  465   0.925   2.560   0.706 -0.2988  0.3651  0.1989
   66c3c     H4  466   1.086   2.538   0.623 -0.0964 -0.5413  0.0343
   66c3c     H5  467   0.830   2.305   0.432 -0.8388  1.3004  1.4357
   66c3c     H6  468   0.978   2.346   0.358  0.2841 -1.0962  0.3619
   66c3c     H7  469   0.807   2.530   0.518  1.0286  2.0369  0.4808
   66c3c     H8  470   0.948   2.563   0.431 -0.8050  0.9388  0.2760
   66c3c     H9  471   0.896   2.202   0.757  0.5124 -0.3594 -0.4750
   66c3c    H10  472   0.843   2.350   0.827 -1.6754 -1.9100  0.5134
   66c3c    H11  473   0.801   2.328   0.658  1.1342  2.0681  0.3925
   66c3c    H12  474   1.085   2.414   0.853  3.7882  0.6120  0.6372
   66c3c    H13  475   1.097   2.238   0.830  0.6576  0.2342  0.8555
   66c3c     C7  476   1.259   2.331   0.746  0.1794  0.4658 -0.4367
   66c3c    H14  477   1.286   2.410   0.676  3.0800  0.0664  0.1716
   66c3c    H15  478   1.277   2.235   0.698  0.2979 -0.0756  0.6750
   66c3c     C8  479   1.348   2.345   0.867  0.1312  0.2960 -0.0548
   66c3c    H16  480   1.319   2.291   0.957  0.4788 -0.5181 -0.4271
   66c3c    H17  481   1.353   2.453   0.882  1.9827  0.2533 -0.2408
   66c3c    H18  482   1.446   2.308   0.838  0.6776  1.0848  0.7624
   67c3c      N  483   0.295   0.029   2.625 -0.0386 -0.2737  0.0849
   67c3c     C1  484   0.186  -0.038   2.567  0.1937 -0.3565  0.4054
   67c3c     C2  485   0.417  -0.009   2.562 -0.1744 -0.1415 -0.3080
   67c3c     C3  486   0.242  -0.080   2.425 -0.4027  0.2347  0.4321
   67c3c     C4  487   0.384  -0.026   2.421  0.3806  0.6917  0.0611
   67c3c     C5  488   0.270   0.173   2.602 -0.9469 -0.7351  0.7229
   67c3c     C6  489   0.305   0.014   2.770 -0.0099 -0.4164 -0.4535
   67c3c     H1  490   0.090   0.014   2.556  1.3053  1.1814 -2.6591
   67c3c     H2  491   0.166  -0.132   2.619  0.7405  0.5162  2.2193
   67c3c     H3  492   0.496   0.062   2.588  0.5705 -0.0608 -2.6935
   67c3c     H4  493   0.454  -0.103   2.603 -1.3275 -1.1300 -1.5258
   67c3c     H5  494   0.181  -0.040   2.344  0.9617  0.0413 -0.6942
   67c3c     H6  495   0.248  -0.188   2.417  2.0320  0.4202 -0.3921
   67c3c     H7  496   0.383   0.064   2.360  0.2461 -1.0583 -2.5793
   67c3c     H8  497   0.450  -0.097   2.370  0.2843  0.0539  0.8069
   67c3c     H9  498   0.182   0.203   2.659 -0.8732 -0.8882  0.9206
   67c3c    H10  499   0.352   0.238   2.632  1.0249 -2.5975 -0.4859
   67c3c    H11  500   0.254   0.196   2.497  1.6573  1.1686  0.6921
   67c3c    H12  501   0.394   0.068   2.803  0.0090 -1.3534  1.0921
   67c3c    H13  502   0.218   0.056   2.820  0.4370  1.0021 -0.8348
   67c3c     C7  503   0.315  -0.137   2.827 -0.2822  0.0559 -0.0678
   67c3c    H14  504   0.391  -0.197   2.778  2.3891  3.0830  0.1770
   67c3c    H15  505   0.217  -0.181   2.810 -0.4804 -0.2297  1.6790
   67c3c     C8  506   0.357  -0.147   2.971 -0.8714  0.3307  0.0788
   67c3c    H16  507   0.270  -0.111   3.027 -2.0102 -1.5866 -0.4430
   67c3c    H17  508   0.438  -0.079   2.997  0.3485 -0.8150 -0.6779
   67c3c    H18  509   0.380  -0.251   2.994  3.0120  0.7195 -1.6469
   68c3c      N  510   0.371   2.897   1.903  0.6069 -0.5172  0.2121
   68c3c     C1  511   0.513   2.930   1.907  0.4375  0.1494  0.1399
   68c3c     C2  512   0.305   2.964   2.015 -0.4582  0.7816  0.0647
   68c3c     C3  513   0.515   3.078   1.966  0.0948  0.3886  0.2086
   68c3c     C4  514   0.375   3.107   2.032 -0.6278  0.6068  0.0439
   68c3c     C5  515   0.302   2.962   1.787  0.2807  0.0612  0.5644
   68c3c     C6  516   0.341   2.752   1.902  0.1311 -0.0968 -0.6323
   68c3c     H1  517   0.564   2.937   1.811 -0.3292  2.7374 -0.1004
   68c3c     H2  518   0.567   2.869   1.980  2.4092 -0.2584 -1.6106
   68c3c     H3  519   0.197   2.976   2.021 -0.7242 -1.7436  0.8571
   68c3c     H4  520   0.325   2.915   2.110 -1.0115 -0.1069 -0.2703
   68c3c     H5  521   0.541   3.149   1.888  0.6722 -0.4926 -0.4110
   68c3c     H6  522   0.591   3.087   2.043  0.1121 -0.7869  0.3391
   68c3c     H7  523   0.317   3.183   1.979 -0.4805 -0.2714 -1.3988
   68c3c     H8  524   0.379   3.134   2.137  1.1436 -0.0831  0.1661
   68c3c     H9  525   0.346   2.938   1.690  0.5011  0.6183  0.5228
   68c3c    H10  526   0.198   2.929   1.793  0.7184 -1.2836  0.9661
   68c3c    H11  527   0.304   3.071   1.779  0.6983 -0.1324 -3.1458
   68c3c    H12  528   0.234   2.741   1.924  0.9177 -0.2268  3.3639
   68c3c    H13  529   0.369   2.719   1.802  1.7447  1.8035 -0.8350
   68c3c     C7  530   0.407   2.658   2.012 -0.0267 -0.8617  0.3747
   68c3c    H14  531   0.384   2.696   2.111  0.3836  0.0110  0.1378
   68c3c    H15  532   0.513   2.666   1.987 -0.0555 -0.1022  0.4901
   68c3c     C8  533   0.371   2.511   2.010 -0.1261 -0.1274  0.7002
   68c3c    H16  534   0.269   2.509   2.049 -0.3866  4.6222  0.6263
   68c3c    H17  535   0.431   2.458   2.083  0.5919  0.4072  0.5025
   68c3c    H18  536   0.382   2.470   1.909 -2.2228 -0.0724  0.4221
   69c3c      N  537   2.030   2.053   0.556  0.3518 -0.0772 -0.0072
   69c3c     C1  538   1.944   1.947   0.514 -0.2039  0.3600 -0.1221
   69c3c     C2  539   2.031   2.030   0.701  0.9819 -0.1212 -0.4766
   69c3c     C3  540   1.983   1.818   0.587  0.1377  0.2184 -0.0841
   69c3c     C4  541   2.040   1.872   0.724 -0.0631  0.0143 -0.2098
   69c3c     C5  542   2.160   2.030   0.499  0.3820 -0.6603  0.5487
   69c3c     C6  543   1.983   2.188   0.522 -0.5727 -0.0454 -0.2248
   69c3c     H1  544   1.964   1.933   0.408  1.0728 -2.4767  0.4647
   69c3c     H2  545   1.838   1.966   0.532 -0.1104  2.2346 -1.4136
   69c3c     H3  546   2.109   2.080   0.759  1.7837 -0.6580 -1.0769
   69c3c     H4  547   1.934   2.051   0.746  2.0268  1.9911  0.8619
   69c3c     H5  548   2.049   1.767   0.517  0.5549 -0.2626  0.6565
   69c3c     H6  549   1.903   1.749   0.613 -1.5114  1.9569 -0.3651
   69c3c     H7  550   2.143   1.852   0.753  0.0582  0.6780 -0.1656
   69c3c     H8  551   1.989   1.834   0.812  1.1518 -1.9368 -0.3347
   69c3c     H9  552   2.168   2.029   0.390 -0.4097  0.1307  0.4782
   69c3c    H10  553   2.225   2.109   0.537 -0.9031 -0.2064  1.8487
   69c3c    H11  554   2.212   1.938   0.526 -1.6869 -1.8193  0.6464
   69c3c    H12  555   2.052   2.261   0.565  2.0263 -1.8891 -1.1116
   69c3c    H13  556   1.986   2.198   0.413 -1.8170  1.4710 -0.1283
   69c3c     C7  557   1.829   2.208   0.554 -0.8242  0.1729  0.5980
   69c3c    H14  558   1.795   2.175   0.652 -0.8272  2.0453  1.2596
   69c3c    H15  559   1.753   2.162   0.492  0.0307 -3.3144  1.9887
   69c3c     C8  560   1.784   2.354   0.547 -0.1133  0.0486  1.0806
   69c3c    H16  561   1.852   2.413   0.609  0.1795  1.6859 -0.7540
   69c3c    H17  562   1.683   2.380   0.581 -0.1777  1.1980  0.0498
   69c3c    H18  563   1.785   2.386   0.443 -0.9498  1.3158  1.4500
   70c3c      N  564   1.114   2.136   1.500 -0.2490  0.2494  0.0839
   70c3c     C1  565   1.074   2.114   1.360  0.3564  0.0965 -0.4316
   70c3c     C2  566   1.175   2.266   1.503 -0.2614  0.1461  0.1918
   70c3c     C3  567   1.041   2.251   1.299  0.5957 -0.3361  0.5159
   70c3c     C4  568   1.081   2.349   1.413 -0.2844  0.9169  0.4289
   70c3c     C5  569   1.000   2.141   1.590  0.0989 -1.1359 -0.8471
   70c3c     C6  570   1.203   2.035   1.551 -0.2692  0.1048 -0.2472
   70c3c     H1  571   0.989   2.046   1.362  0.5627 -0.2082 -1.6102
   70c3c     H2  572   1.158   2.065   1.311  1.4022  0.6026  0.8184
   70c3c     H3  573   1.189   2.312   1.601 -2.4218 -3.2350  2.2197
   70c3c     H4  574   1.273   2.268   1.457  1.3729 -1.4883  3.4017
   70c3c     H5  575   0.938   2.265   1.268  1.0271 -0.3096 -0.9370
   70c3c     H6  576   1.107   2.272   1.215  0.2782 -4.5483 -0.8552
   70c3c     H7  577   1.001   2.390   1.476 -0.6432  1.2859 -0.2573
   70c3c     H8  578   1.143   2.429   1.372 -1.0141  1.9065  1.2029
   70c3c     H9  579   0.971   2.038   1.611 -1.0094 -0.7751 -0.5525
   70c3c    H10  580   1.003   2.196   1.684 -0.9602 -2.1312 -0.2164
   70c3c    H11  581   0.908   2.179   1.545  0.8868 -0.7159 -2.1314
   70c3c    H12  582   1.208   2.065   1.656 -0.1236 -1.0134  0.0751
   70c3c    H13  583   1.149   1.940   1.541 -1.4571  0.5966  1.1544
   70c3c     C7  584   1.353   2.033   1.492 -0.4477  0.1583 -0.4791
   70c3c    H14  585   1.411   2.125   1.501  0.6588 -0.5336 -0.3510
   70c3c    H15  586   1.347   2.015   1.385  2.0217  0.7290 -0.7588
   70c3c     C8  587   1.429   1.913   1.554 -0.6914  0.0277 -0.3745
   70c3c    H16  588   1.459   1.953   1.651 -0.9443 -1.7030  0.4466
   70c3c    H17  589   1.519   1.891   1.496 -0.1562  1.9408 -0.2916
   70c3c    H18  590   1.371   1.820   1.560 -1.2592  0.4692  1.1935
   71c3c      N  591   2.412   0.808   0.833 -0.5482  0.4120 -0.2972
   71c3c     C1  592   2.332   0.818   0.709  0.3634 -0.6834 -0.1398
   71c3c     C2  593   2.472   0.670   0.818  0.2290  0.3315  0.5917
   71c3c     C3  594   2.392   0.729   0.599 -0.0367 -0.3814 -0.9022
   71c3c     C4  595   2.512   0.666   0.673  0.0908 -0.4294 -0.0199
   71c3c     C5  596   2.523   0.901   0.833 -1.1140 -0.4473  0.5608
   71c3c     C6  597   2.337   0.823   0.963 -0.0729 -0.6621  0.5558
   71c3c     H1  598   2.328   0.919   0.667 -0.3575  0.2990  2.2241
   71c3c     H2  599   2.226   0.796   0.722 -0.3444  2.6392  0.1267
   71c3c     H3  600   2.552   0.657   0.891 -0.2782  0.4746  1.1797
   71c3c     H4  601   2.398   0.592   0.838 -0.9786  1.1389 -0.6815
   71c3c     H5  602   2.430   0.788   0.516 -1.0954 -0.8479 -1.7386
   71c3c     H6  603   2.316   0.661   0.560  0.8006 -0.3461 -2.6496
   71c3c     H7  604   2.599   0.716   0.631 -1.1547  0.0035 -2.1243
   71c3c     H8  605   2.527   0.564   0.638  1.7143  0.2847 -1.5117
   71c3c     H9  606   2.476   1.000   0.832  0.1957  0.1828 -0.6309
   71c3c    H10  607   2.592   0.885   0.917 -2.4152  0.3474  1.8059
   71c3c    H11  608   2.580   0.906   0.740 -2.5985 -1.4172 -0.4074
   71c3c    H12  609   2.401   0.794   1.046  2.5956  1.5772 -0.6541
   71c3c    H13  610   2.314   0.928   0.981 -0.1056 -0.6137  0.2447
   71c3c     C7  611   2.204   0.751   0.976  0.3981  0.1941  0.8108
   71c3c    H14  612   2.205   0.654   0.926 -0.9037 -0.3376  1.7606
   71c3c    H15  613   2.133   0.800   0.910  1.3886  1.0629  0.3811
   71c3c     C8  614   2.155   0.734   1.117 -0.4042  0.6756  0.1065
   71c3c    H16  615   2.062   0.679   1.129 -0.6437  0.9159 -0.5682
   71c3c    H17  616   2.130   0.832   1.158 -2.6016  0.1274  0.1773
   71c3c    H18  617   2.235   0.697   1.180  0.6405  0.8996 -1.0821
   72c3c      N  618   2.084   0.864   2.932  0.3467 -0.6847 -0.1825
   72c3c     C1  619   1.963   0.790   2.890 -0.3708 -0.0374 -0.0748
   72c3c     C2  620   2.095   0.856   3.080 -0.4268  0.8299  0.6731
   72c3c     C3  621   1.957   0.671   2.981 -0.1698  0.2402  0.5392
   72c3c     C4  622   2.020   0.719   3.106 -0.7930  0.1387 -0.3087
   72c3c     C5  623   2.190   0.791   2.866  0.3974  0.3723  0.0954
   72c3c     C6  624   2.077   1.002   2.876 -0.6873 -0.4706 -0.2632
   72c3c     H1  625   1.943   0.773   2.784  0.3958  0.8015 -0.3583
   72c3c     H2  626   1.874   0.847   2.918  0.9669  1.8330  0.4667
   72c3c     H3  627   2.197   0.857   3.119  0.5162 -0.1438 -1.6424
   72c3c     H4  628   2.037   0.933   3.130 -0.2343  0.3862  1.5790
   72c3c     H5  629   2.008   0.585   2.939 -2.4489 -1.3256  0.8979
   72c3c     H6  630   1.855   0.637   2.999  0.2647 -0.6156  1.4345
   72c3c     H7  631   2.084   0.635   3.135  0.3358  1.3076  0.6333
   72c3c     H8  632   1.941   0.731   3.180 -0.1798 -0.8909  0.5378
   72c3c     H9  633   2.190   0.799   2.757  0.7319 -0.3778  0.0331
   72c3c    H10  634   2.286   0.828   2.902 -0.0501  0.5796  1.0931
   72c3c    H11  635   2.202   0.684   2.886  1.4189  0.5896  0.6753
   72c3c    H12  636   2.168   1.051   2.913 -1.0869 -0.2895  0.4988
   72c3c    H13  637   2.095   1.002   2.769 -3.3890 -1.7507 -0.7436
   72c3c     C7  638   1.956   1.093   2.913 -0.0697 -0.5533 -0.6056
   72c3c    H14  639   1.935   1.081   3.019  0.9840 -5.1948 -0.7973
   72c3c    H15  640   1.866   1.077   2.854  0.1876 -1.0951 -0.8564
   72c3c     C8  641   1.990   1.230   2.867 -0.3493  0.8147 -0.9205
   72c3c    H16  642   1.909   1.300   2.890 -0.3059  0.6869 -0.3746
   72c3c    H17  643   2.005   1.238   2.760 -0.4508  2.3090 -0.8448
   72c3c    H18  644   2.078   1.258   2.924 -1.0150  0.0184  0.5315
   73c3c      N  645   2.525   2.204   2.477  0.0250 -0.3315 -0.2289
   73c3c     C1  646   2.528   2.262   2.342 -0.1734  0.5619  0.5305
   73c3c     C2  647   2.389   2.219   2.529 -1.1276  0.1477  0.5448
   73c3c     C3  648   2.390   2.224   2.279  0.5400  0.6887 -0.2478
   73c3c     C4  649   2.307   2.186   2.405 -0.0429  0.0323 -0.5240
   73c3c     C5  650   2.562   2.064   2.464  0.1323  0.0971 -0.3214
   73c3c     C6  651   2.620   2.263   2.573  0.0695 -0.5730  0.0409
   73c3c     H1  652   2.611   2.236   2.276 -2.0694 -0.3565 -1.5551
   73c3c     H2  653   2.543   2.369   2.356  0.5013  0.3338  1.5901
   73c3c     H3  654   2.369   2.143   2.604 -0.4547 -0.6996 -0.1080
   73c3c     H4  655   2.364   2.320   2.561 -0.7485  0.0008  1.3177
   73c3c     H5  656   2.404   2.150   2.201 -0.2881 -0.5001  0.7181
   73c3c     H6  657   2.331   2.306   2.237 -0.3026 -0.4872 -1.3730
   73c3c     H7  658   2.290   2.079   2.415  1.0164 -0.1558 -0.6893
   73c3c     H8  659   2.214   2.242   2.414  0.9743  1.3427  2.3646
   73c3c     H9  660   2.666   2.053   2.431  0.1228 -0.2206 -0.2472
   73c3c    H10  661   2.557   2.013   2.561 -1.1163  1.3997  0.3080
   73c3c    H11  662   2.485   2.020   2.401 -2.0409 -0.1661  2.4235
   73c3c    H12  663   2.614   2.205   2.665 -1.0089 -1.5902 -0.6438
   73c3c    H13  664   2.723   2.258   2.538  0.8466 -0.6258  2.3042
   73c3c     C7  665   2.604   2.409   2.619 -0.1793  0.4174 -0.2005
   73c3c    H14  666   2.510   2.412   2.674  0.1455 -1.5528  0.5104
   73c3c    H15  667   2.602   2.476   2.534 -0.0481  2.3425  1.2901
   73c3c     C8  668   2.722   2.445   2.710 -1.1009  0.2243  0.1467
   73c3c    H16  669   2.679   2.503   2.792  1.5497  2.5699 -0.0483
   73c3c    H17  670   2.807   2.493   2.661 -1.7351  1.4367  0.2024
   73c3c    H18  671   2.770   2.361   2.760  0.1147 -1.4535 -3.6133
   74c3c      N  672   0.976   1.381   1.586  0.5258 -0.0054  0.1784
   74c3c     C1  673   0.887   1.466   1.503 -0.3179  0.3530 -0.6435
   74c3c     C2  674   1.026   1.466   1.692  0.4243 -0.2846  0.1170
   74c3c     C3  675   0.826   1.575   1.604  0.9165  0.1052  1.2903
   74c3c     C4  676   0.905   1.557   1.728 -0.1679 -0.0574 -0.1303
   74c3c     C5  677   0.897   1.275   1.642 -0.2847  0.1148 -0.5491
   74c3c     C6  678   1.090   1.325   1.518 -0.5721  0.0617  0.0214
   74c3c     H1  679   0.811   1.408   1.451 -0.7476  0.2579  0.1014
   74c3c     H2  680   0.935   1.523   1.423 -0.8785 -0.1206 -1.3201
   74c3c     H3  681   1.067   1.422   1.782  0.0677  0.1950  0.5156
   74c3c     H4  682   1.102   1.534   1.653 -0.9433  1.3835  0.3115
   74c3c     H5  683   0.724   1.541   1.621  0.7873  0.4480  1.2266
   74c3c     H6  684   0.823   1.679   1.570 -2.3595 -1.2724 -3.1836
   74c3c     H7  685   0.852   1.511   1.811 -1.5403 -0.4568 -1.2160
   74c3c     H8  686   0.937   1.657   1.756 -0.5075  0.4666 -1.5675
   74c3c     H9  687   0.854   1.202   1.573 -1.9077 -0.1934  0.7418
   74c3c    H10  688   0.963   1.220   1.709 -0.9085  0.3595  0.2823
   74c3c    H11  689   0.816   1.318   1.702 -0.8837  0.1550 -1.3784
   74c3c    H12  690   1.160   1.281   1.589  1.0209  2.4225 -0.0269
   74c3c    H13  691   1.055   1.237   1.465 -0.6326  1.1939 -1.8732
   74c3c     C7  692   1.176   1.415   1.424  0.2426 -0.4794 -0.1754
   74c3c    H14  693   1.194   1.515   1.464  2.1100 -0.9485  0.1925
   74c3c    H15  694   1.111   1.409   1.338 -0.0636  0.1626  0.0068
   74c3c     C8  695   1.316   1.368   1.395 -0.1560 -0.1838  0.3825
   74c3c    H16  696   1.361   1.444   1.332  1.5219  0.3505  2.1487
   74c3c    H17  697   1.303   1.273   1.344  2.0761  0.2302 -1.0145
   74c3c    H18  698   1.378   1.353   1.483  0.4096 -0.0487  0.0063
   75c3c      N  699   1.773   0.814   2.424  0.2567  0.2549 -0.2608
   75c3c     C1  700   1.782   0.947   2.358  0.0199  0.4027  0.1453
   75c3c     C2  701   1.779   0.851   2.567 -0.0295 -0.1002 -0.2728
   75c3c     C3  702   1.707   1.041   2.445 -0.0680 -0.1127 -0.5346
   75c3c     C4  703   1.684   0.978   2.582  0.2126  0.3383 -0.3132
   75c3c     C5  704   1.639   0.757   2.394  0.3365 -0.3603 -0.1484
   75c3c     C6  705   1.867   0.705   2.383  0.5552  0.2626 -0.0332
   75c3c     H1  706   1.745   0.943   2.255 -0.1472  0.6767  0.1949
   75c3c     H2  707   1.885   0.977   2.339  1.4894 -3.8065  0.9925
   75c3c     H3  708   1.740   0.769   2.628  1.2971 -3.2137 -3.4151
   75c3c     H4  709   1.877   0.887   2.595  0.0700  0.2946 -1.1263
   75c3c     H5  710   1.612   1.067   2.397  0.3791 -0.9068 -1.8560
   75c3c     H6  711   1.751   1.140   2.462  1.3443 -0.8882  0.4121
   75c3c     H7  712   1.580   0.957   2.609  0.0298  0.5098 -0.8701
   75c3c     H8  713   1.729   1.040   2.660  0.9905  0.0431 -0.5235
   75c3c     H9  714   1.624   0.735   2.288 -1.3479  1.2255 -0.2582
   75c3c    H10  715   1.610   0.672   2.456 -0.7455 -0.4274 -0.7381
   75c3c    H11  716   1.558   0.828   2.407 -0.2185 -0.7845 -1.2257
   75c3c    H12  717   1.843   0.610   2.430  1.3672  1.1168  2.1715
   75c3c    H13  718   1.856   0.686   2.276  1.5974 -1.5647  0.1684
   75c3c     C7  719   2.015   0.728   2.413 -0.4194 -0.6184  0.0129
   75c3c    H14  720   2.037   0.761   2.515 -2.2673 -2.1677  0.9492
   75c3c    H15  721   2.049   0.809   2.349 -2.2199 -0.5558 -0.8710
   75c3c     C8  722   2.095   0.601   2.394  0.0277  0.4719 -0.1846
   75c3c    H16  723   2.055   0.520   2.454 -1.1997  0.3354 -1.1718
   75c3c    H17  724   2.200   0.601   2.425  0.4914 -2.3299 -1.6085
   75c3c    H18  725   2.088   0.563   2.292 -0.1277  2.1136 -0.8038
   76c3c      N  726   1.019   1.246   2.651 -1.0145  0.2473  0.2069
   76c3c     C1  727   0.943   1.123   2.646  0.3946 -0.7360  0.4789
   76c3c     C2  728   1.040   1.263   2.794  0.4290  0.9992 -0.7868
   76c3c     C3  729   0.994   1.033   2.758 -0.6575  0.4016  0.2120
   76c3c     C4  730   1.063   1.126   2.853  0.3880 -0.0432 -0.2823
   76c3c     C5  731   1.153   1.225   2.588 -0.3354  0.1972 -0.4142
   76c3c     C6  732   0.947   1.356   2.589 -0.2988  0.2827 -0.3774
   76c3c     H1  733   0.951   1.064   2.555 -0.7431  1.6696 -1.2303
   76c3c     H2  734   0.835   1.129   2.652  0.0118 -1.8725 -3.4783
   76c3c     H3  735   1.126   1.322   2.824  2.1244 -1.1046 -1.3409
   76c3c     H4  736   0.958   1.300   2.855 -0.3979 -0.8762 -0.7343
   76c3c     H5  737   1.059   0.954   2.720  0.2120  0.5069  1.4441
   76c3c     H6  738   0.906   0.986   2.804 -0.0320 -0.2956  0.7063
   76c3c     H7  739   1.169   1.098   2.858  0.8780  1.8069  0.4227
   76c3c     H8  740   1.035   1.091   2.952 -0.6748 -2.2931 -1.3546
   76c3c     H9  741   1.140   1.228   2.480 -1.4529  1.3188 -0.2756
   76c3c    H10  742   1.217   1.311   2.612 -0.7132  0.5120 -0.5170
   76c3c    H11  743   1.200   1.134   2.624 -0.7525 -0.1235 -0.6849
   76c3c    H12  744   1.019   1.438   2.581  0.7550 -0.5864 -0.0451
   76c3c    H13  745   0.915   1.309   2.496 -0.8276  1.1585 -0.6400
   76c3c     C7  746   0.822   1.410   2.655 -0.1179  0.2991 -0.0031
   76c3c    H14  747   0.832   1.484   2.734  0.1542 -1.3873  1.5724
   76c3c    H15  748   0.774   1.322   2.696 -0.8444  0.2324 -0.9671
   76c3c     C8  749   0.717   1.464   2.548 -0.2471 -0.6523 -0.3576
   76c3c    H16  750   0.684   1.383   2.482 -1.8680 -2.3319  2.3936
   76c3c    H17  751   0.758   1.542   2.484 -0.8282  1.2298  1.5067
   76c3c    H18  752   0.632   1.518   2.591  1.0057  1.1102 -0.0484
   77c3c      N  753   0.008   0.397   1.770 -0.6667  0.2370 -0.2345
   77c3c     C1  754   0.026   0.505   1.672  0.1642  0.3105  0.5302
   77c3c     C2  755  -0.138   0.410   1.806 -0.0933  0.2608  0.2151
   77c3c     C3  756  -0.111   0.520   1.590  0.4182  0.6119 -0.1867
   77c3c     C4  757  -0.198   0.424   1.667  0.1466 -0.2715  0.5696
   77c3c     C5  758   0.029   0.271   1.702  0.3261 -0.1933 -0.2751
   77c3c     C6  759   0.086   0.402   1.895  0.7747  0.3589 -0.8195
   77c3c     H1  760   0.110   0.483   1.607 -0.6113  1.2147 -0.8248
   77c3c     H2  761   0.061   0.602   1.709  0.9487  0.6367 -1.0112
   77c3c     H3  762  -0.193   0.330   1.857  0.6969 -1.4651 -1.5705
   77c3c     H4  763  -0.177   0.495   1.862  1.6400 -0.8001  3.1696
   77c3c     H5  764  -0.103   0.490   1.486  0.4050 -1.3204  0.3364
   77c3c     H6  765  -0.154   0.620   1.592 -0.9824  0.0209  3.2823
   77c3c     H7  766  -0.220   0.329   1.617 -1.3207  0.4088 -0.0957
   77c3c     H8  767  -0.299   0.465   1.661  0.4476  0.2370 -0.9502
   77c3c     H9  768   0.136   0.265   1.684  0.3911  0.3762 -0.0823
   77c3c    H10  769   0.004   0.189   1.769 -0.4604  0.8011  0.6747
   77c3c    H11  770  -0.029   0.253   1.611 -0.3120  1.4390 -0.2187
   77c3c    H12  771   0.051   0.313   1.948 -0.4177  0.5928 -1.1878
   77c3c    H13  772   0.190   0.390   1.867  0.4863 -0.8433 -1.4284
   77c3c     C7  773   0.071   0.534   1.977  0.3034  0.4708  0.1912
   77c3c    H14  774  -0.029   0.536   2.020 -0.0068 -3.0021 -0.1951
   77c3c    H15  775   0.073   0.620   1.911 -0.4264  0.5592  0.2792
   77c3c     C8  776   0.165   0.550   2.084  0.5566  0.3982 -0.2618
   77c3c    H16  777   0.161   0.459   2.144 -1.6987  0.2804 -0.5518
   77c3c    H17  778   0.148   0.637   2.147  0.7690 -0.1987  0.6367
   77c3c    H18  779   0.263   0.562   2.037 -0.0139 -0.7989 -1.7998
   78c3c      N  780   3.002   0.612   0.339 -0.1956  0.2938 -0.0162
   78c3c     C1  781   2.935   0.581   0.466  0.0306 -0.5732 -0.7753
   78c3c     C2  782   2.952   0.514   0.243  0.4647 -0.1276  0.7293
   78c3c     C3  783   2.794   0.535   0.431 -0.3128 -0.3700 -0.2749
   78c3c     C4  784   2.819   0.465   0.302 -0.5215 -0.4415  0.0251
   78c3c     C5  785   2.963   0.742   0.282  0.4065  0.5662  0.3288
   78c3c     C6  786   3.149   0.618   0.343 -0.5246 -0.8288  0.2812
   78c3c     H1  787   2.940   0.665   0.535  2.7252  0.5473 -2.2551
   78c3c     H2  788   2.991   0.504   0.518  0.3268  0.6482  0.7452
   78c3c     H3  789   2.944   0.551   0.141  1.3906 -3.0100 -0.4398
   78c3c     H4  790   3.014   0.426   0.229  2.6107  1.5630 -0.6508
   78c3c     H5  791   2.731   0.621   0.411 -0.6589 -0.5523  0.0357
   78c3c     H6  792   2.742   0.481   0.510 -1.0201  0.2274 -0.3323
   78c3c     H7  793   2.728   0.479   0.244 -0.3349  0.5945 -0.0305
   78c3c     H8  794   2.818   0.359   0.329 -4.0458 -0.7222 -1.0073
   78c3c     H9  795   3.016   0.775   0.193 -0.9036 -3.3501 -2.0482
   78c3c    H10  796   2.855   0.740   0.271  0.3273  2.8896  0.4444
   78c3c    H11  797   2.976   0.810   0.367  0.6788  2.3864 -1.1533
   78c3c    H12  798   3.181   0.657   0.246 -1.2785  2.7599  1.3779
   78c3c    H13  799   3.164   0.695   0.419  1.8539 -0.3870 -0.5864
   78c3c     C7  800   3.225   0.481   0.377 -0.5870 -0.4492  0.0156
   78c3c    H14  801   3.205   0.412   0.295  1.5945 -0.9058 -0.1693
   78c3c    H15  802   3.191   0.425   0.464 -0.5110 -0.7827 -0.1698
   78c3c     C8  803   3.379   0.487   0.374  0.0002 -1.3199 -0.2053
   78c3c    H16  804   3.412   0.545   0.460 -0.7369 -3.0157  1.2716
   78c3c    H17  805   3.421   0.535   0.286  0.4893 -0.4275  0.5020
   78c3c    H18  806   3.417   0.385   0.383  2.7303 -0.1460  2.1944
   79c3c      N  807   0.928   0.021   1.747 -0.7417  0.3188  0.1367
   79c3c     C1  808   0.817   0.037   1.651  0.0248  0.3865  0.3252
   79c3c     C2  809   0.871  -0.078   1.837 -0.1549  0.3903 -0.6447
   79c3c     C3  810   0.765  -0.103   1.628  0.2050 -0.4457  0.4863
   79c3c     C4  811   0.806  -0.183   1.745 -0.0063  0.3168 -0.6807
   79c3c     C5  812   1.049  -0.030   1.678 -0.5261  0.2225 -0.5860
   79c3c     C6  813   0.963   0.148   1.808 -0.1269 -0.7246  0.3512
   79c3c     H1  814   0.857   0.077   1.558  0.2042  2.5355  1.2764
   79c3c     H2  815   0.738   0.104   1.685  1.6213  2.9820 -0.8823
   79c3c     H3  816   0.942  -0.136   1.897 -0.7475  0.2503 -0.0758
   79c3c     H4  817   0.791  -0.035   1.897 -2.0450 -1.2155 -1.9433
   79c3c     H5  818   0.812  -0.151   1.542 -2.2133 -0.0929 -1.0811
   79c3c     H6  819   0.657  -0.108   1.622  0.1162 -0.0258  1.6355
   79c3c     H7  820   0.878  -0.258   1.711 -0.1903 -0.3952  0.4916
   79c3c     H8  821   0.725  -0.240   1.790  1.3587 -0.6400  0.6433
   79c3c     H9  822   1.094   0.051   1.620  0.0525  0.9446  0.8402
   79c3c    H10  823   1.133  -0.053   1.743  0.0674  0.9295 -1.0835
   79c3c    H11  824   1.040  -0.111   1.606  2.2300  1.2552 -2.2000
   79c3c    H12  825   1.055   0.143   1.867  0.4555  0.0810 -0.4756
   79c3c    H13  826   0.993   0.226   1.738  0.8397 -0.6324  0.8584
   79c3c     C7  827   0.856   0.226   1.889 -1.0240 -0.1981 -0.1160
   79c3c    H14  828   0.797   0.155   1.946 -0.5241 -0.2196  0.3783
   79c3c    H15  829   0.787   0.268   1.815  0.5303  0.6403 -1.1371
   79c3c     C8  830   0.918   0.332   1.979 -1.5489  0.3334  0.2419
   79c3c    H16  831   0.926   0.304   2.084  1.3893 -0.0458 -0.0389
   79c3c    H17  832   0.875   0.432   1.971 -0.8067  0.4981 -1.8888
   79c3c    H18  833   1.026   0.334   1.967 -1.5655  0.1090  0.0683
   80c3c      N  834   2.854   1.881   0.853 -0.2094  0.0250 -0.4266
   80c3c     C1  835   2.737   1.791   0.870  0.0358  0.0834  0.2135
   80c3c     C2  836   2.845   1.974   0.970  0.3086  0.1075 -0.4444
   80c3c     C3  837   2.724   1.779   1.029  0.3645 -0.5457 -0.1126
   80c3c     C4  838   2.821   1.884   1.085 -0.0959  0.2338 -0.3353
   80c3c     C5  839   2.980   1.812   0.851  0.1926 -0.0544  0.2751
   80c3c     C6  840   2.839   1.948   0.720 -0.3634  0.5603  0.0722
   80c3c     H1  841   2.744   1.698   0.815 -0.9084  0.3444 -0.3487
   80c3c     H2  842   2.639   1.833   0.848 -0.4761 -0.9545  0.5087
   80c3c     H3  843   2.933   2.038   0.981  0.5074 -0.3242  0.5164
   80c3c     H4  844   2.757   2.039   0.970 -0.1605 -0.5087  0.8526
   80c3c     H5  845   2.757   1.687   1.076 -0.3723 -0.7500  0.0127
   80c3c     H6  846   2.624   1.811   1.060 -0.0165 -2.5675  0.8375
   80c3c     H7  847   2.909   1.830   1.119 -0.8057  0.8623  2.6535
   80c3c     H8  848   2.796   1.928   1.181  0.2556 -2.6405  1.1210
   80c3c     H9  849   3.058   1.888   0.842 -0.2641  0.4007  0.1356
   80c3c    H10  850   3.000   1.744   0.933 -0.8845 -0.8918 -0.1552
   80c3c    H11  851   2.975   1.744   0.766  0.7686  0.8417 -0.4995
   80c3c    H12  852   2.926   1.998   0.676 -1.1521  1.1408 -0.8415
   80c3c    H13  853   2.821   1.868   0.649 -0.6187 -0.0561  0.8252
   80c3c     C7  854   2.722   2.052   0.710  0.2189  0.1762  0.4339
   80c3c    H14  855   2.740   2.136   0.777 -1.5996  0.3612  0.7240
   80c3c    H15  856   2.631   2.005   0.749 -0.2017  0.4499 -0.1941
   80c3c     C8  857   2.718   2.110   0.564 -0.0789 -0.0629  0.4490
   80c3c    H16  858   2.721   2.041   0.480 -2.9794  1.9093 -1.4039
   80c3c    H17  859   2.812   2.154   0.533 -1.4439  1.2845 -1.9433
   80c3c    H18  860   2.637   2.182   0.551  0.1698  0.5790  2.3147
   81c3c      N  861   1.202   0.180   0.113 -0.4612  0.9037 -0.1283
   81c3c     C1  862   1.121   0.228  -0.000 -1.0669  0.7025  0.1593
   81c3c     C2  863   1.307   0.090   0.062  0.2061 -0.2031  0.0094
   81c3c     C3  864   1.229   0.241  -0.104  0.4573 -0.3765 -0.4545
   81c3c     C4  865   1.353   0.169  -0.057 -0.1127  0.1594  0.8788
   81c3c     C5  866   1.266   0.296   0.181  0.0549 -0.0018 -0.3362
   81c3c     C6  867   1.118   0.120   0.219 -0.2443 -0.0025  0.2669
   81c3c     H1  868   1.063   0.317   0.024  0.2804  1.8122 -0.6410
   81c3c     H2  869   1.047   0.162  -0.047 -2.4444  2.1663  0.2133
   81c3c     H3  870   1.383   0.090   0.140 -0.4022 -0.3849  0.6088
   81c3c     H4  871   1.282  -0.011   0.029 -0.6701  0.0627 -0.1604
   81c3c     H5  872   1.250   0.347  -0.116 -0.1096 -0.2986 -0.7636
   81c3c     H6  873   1.194   0.185  -0.191 -0.3828 -1.2403  0.4302
   81c3c     H7  874   1.431   0.242  -0.037 -0.2722  0.5425  0.1303
   81c3c     H8  875   1.394   0.103  -0.133  0.2358 -1.3606  2.3501
   81c3c     H9  876   1.194   0.372   0.213  0.2548 -0.2981  0.8448
   81c3c    H10  877   1.315   0.254   0.269 -1.7197  0.7878  1.0609
   81c3c    H11  878   1.340   0.352   0.124  1.5873 -3.4678 -1.9254
   81c3c    H12  879   1.173   0.103   0.311 -0.7446 -0.9611  0.3942
   81c3c    H13  880   1.028   0.178   0.240  0.8463  1.4256  1.0130
   81c3c     C7  881   1.045  -0.020   0.173 -0.5110  0.3666  0.1168
   81c3c    H14  882   1.126  -0.083   0.138 -1.2137  0.5209 -1.9037
   81c3c    H15  883   0.976   0.004   0.091 -0.9411 -1.4012 -0.0478
   81c3c     C8  884   0.964  -0.086   0.279 -0.4248  0.3705 -0.6791
   81c3c    H16  885   1.018  -0.121   0.367 -0.0195 -3.1946 -2.2871
   81c3c    H17  886   0.930  -0.180   0.237 -1.8576 -0.4801  2.2440
   81c3c    H18  887   0.897  -0.004   0.304  3.3541  3.0077  1.4193
   82c3c      N  888   0.153   0.348   0.952 -0.1665 -0.0433  0.3006
   82c3c     C1  889   0.073   0.231   0.965  0.3242 -0.3467  0.4714
   82c3c     C2  890   0.062   0.457   0.910  0.0283  0.6103 -0.6528
   82c3c     C3  891  -0.069   0.280   1.016 -0.5132 -0.1576 -0.2708
   82c3c     C4  892  -0.080   0.422   0.964 -0.5029  0.8629  0.2503
   82c3c     C5  893   0.203   0.393   1.083  0.1366 -0.0812 -0.5508
   82c3c     C6  894   0.276   0.343   0.869  0.1799 -0.3339  0.3861
   82c3c     H1  895   0.129   0.152   1.017 -1.2686 -2.7406 -1.3657
   82c3c     H2  896   0.051   0.186   0.868 -0.2650 -3.5590  2.0106
   82c3c     H3  897   0.098   0.557   0.933  0.2850  0.9443 -2.4814
   82c3c     H4  898   0.058   0.455   0.801 -0.4531  1.2282 -0.6525
   82c3c     H5  899  -0.063   0.295   1.124 -0.6579 -1.3819 -0.0928
   82c3c     H6  900  -0.153   0.222   0.980 -2.0563  1.2360  0.9589
   82c3c     H7  901  -0.116   0.494   1.038 -1.0384 -0.1014  0.9471
   82c3c     H8  902  -0.151   0.417   0.882  0.4884  1.6859 -0.6721
   82c3c     H9  903   0.256   0.314   1.135 -0.6313 -0.0297  0.3279
   82c3c    H10  904   0.269   0.480   1.080  1.9704 -1.4345 -0.0881
   82c3c    H11  905   0.115   0.418   1.142 -0.1123  1.1540 -1.4162
   82c3c    H12  906   0.312   0.446   0.860  0.0326 -0.4710 -2.0768
   82c3c    H13  907   0.349   0.272   0.907 -1.6326 -1.6561  1.5074
   82c3c     C7  908   0.265   0.298   0.729  0.1923 -0.7122 -0.2358
   82c3c    H14  909   0.188   0.353   0.674 -1.6836  0.8395  3.7330
   82c3c    H15  910   0.216   0.201   0.730 -0.3197 -0.4872 -1.6855
   82c3c     C8  911   0.401   0.292   0.658 -0.3119 -0.1115 -0.3327
   82c3c    H16  912   0.477   0.242   0.719  0.7343  0.7254 -0.9283
   82c3c    H17  913   0.438   0.389   0.624 -0.2340  0.8184  2.3149
   82c3c    H18  914   0.386   0.230   0.570  1.7005  0.1534 -0.8843
   83c3c      N  915   2.487   0.211   2.055 -0.2496 -0.6787  0.7892
   83c3c     C1  916   2.406   0.114   2.126 -0.0418 -0.1671 -0.6792
   83c3c     C2  917   2.443   0.344   2.094 -0.1596 -1.1627  0.3740
   83c3c     C3  918   2.392   0.169   2.262 -0.0084 -0.0124  0.5651
   83c3c     C4  919   2.393   0.319   2.236  0.0415  0.6142  0.4021
   83c3c     C5  920   2.625   0.193   2.097 -0.1344  0.5762 -0.2148
   83c3c     C6  921   2.481   0.185   1.909 -0.5532 -0.2000 -0.9473
   83c3c     H1  922   2.437   0.011   2.145 -1.3730 -0.3941  0.3938
   83c3c     H2  923   2.303   0.100   2.092 -0.4523 -0.3874  0.6104
   83c3c     H3  924   2.513   0.427   2.090 -1.1593 -0.1852  2.6639
   83c3c     H4  925   2.362   0.383   2.032 -0.4578 -0.9840  0.8726
   83c3c     H5  926   2.477   0.153   2.328  0.8767 -0.0610 -0.5617
   83c3c     H6  927   2.295   0.144   2.304 -1.0654  2.7954 -0.1472
   83c3c     H7  928   2.468   0.356   2.305  1.1486  1.0277 -1.0080
   83c3c     H8  929   2.298   0.367   2.263  0.1537  1.6307 -0.9255
   83c3c     H9  930   2.665   0.093   2.080  0.7763  0.8947 -0.0096
   83c3c    H10  931   2.698   0.253   2.041 -1.0137  0.8732 -1.0753
   83c3c    H11  932   2.655   0.207   2.201  1.3628  1.2718 -0.7183
   83c3c    H12  933   2.546   0.258   1.861 -2.4931  2.3138  0.1489
   83c3c    H13  934   2.534   0.093   1.882  0.0424  0.2650 -1.3788
   83c3c     C7  935   2.350   0.195   1.822  0.0704  0.2855 -0.2205
   83c3c    H14  936   2.326   0.301   1.818  0.1641  0.2835 -0.9126
   83c3c    H15  937   2.271   0.143   1.875  1.9353 -1.9609  0.4828
   83c3c     C8  938   2.353   0.141   1.681  0.3192  0.8767 -0.3614
   83c3c    H16  939   2.381   0.226   1.619  0.3387  0.1507 -1.3685
   83c3c    H17  940   2.250   0.118   1.654  0.8803  2.2139 -3.9010
   83c3c    H18  941   2.411   0.050   1.662 -1.8661 -0.8021  0.8046
   84c3c      N  942   0.848   0.948   0.408  0.6410  0.9596  0.1080
   84c3c     C1  943   0.894   0.860   0.296 -0.3061  0.3114  0.4800
   84c3c     C2  944   0.801   1.067   0.334 -0.2607 -0.0171 -0.0611
   84c3c     C3  945   0.792   0.878   0.188 -0.1112  0.3890 -0.2517
   84c3c     C4  946   0.747   1.024   0.198 -0.3979  0.6654  0.6495
   84c3c     C5  947   0.737   0.883   0.481  0.2365  0.1144  0.3305
   84c3c     C6  948   0.952   0.971   0.509  0.4027 -0.2946 -0.2786
   84c3c     H1  949   0.922   0.756   0.315 -0.5545  0.2982  0.7816
   84c3c     H2  950   0.989   0.897   0.258 -0.3467  1.5658  1.5420
   84c3c     H3  951   0.739   1.133   0.395 -0.3509 -3.0117  3.2501
   84c3c     H4  952   0.891   1.123   0.309  0.6638 -0.8330  1.3955
   84c3c     H5  953   0.708   0.817   0.218  1.0113 -0.5024  1.1427
   84c3c     H6  954   0.842   0.853   0.094  0.5934  1.8288 -0.2753
   84c3c     H7  955   0.638   1.027   0.201 -0.4592  1.0161 -1.0436
   84c3c     H8  956   0.774   1.093   0.117 -0.5311  0.8858  0.7930
   84c3c     H9  957   0.698   0.945   0.561 -2.4352  1.3730 -1.8381
   84c3c    H10  958   0.647   0.876   0.420 -0.3858  1.1084  1.1126
   84c3c    H11  959   0.762   0.785   0.521  0.0812  0.0930  0.3761
   84c3c    H12  960   0.915   1.046   0.579  0.0800 -0.7435  0.0324
   84c3c    H13  961   0.957   0.878   0.566  2.5491 -0.3231 -0.4603
   84c3c     C7  962   1.087   1.019   0.460 -0.4174 -0.1688 -0.9217
   84c3c    H14  963   1.071   1.096   0.385  0.9198  0.1353 -0.9065
   84c3c    H15  964   1.146   0.941   0.411 -0.6349 -0.1546 -1.2064
   84c3c     C8  965   1.168   1.094   0.563 -0.2486 -0.6534 -0.0478
   84c3c    H16  966   1.188   1.041   0.656  4.1265  1.0774  0.1600
   84c3c    H17  967   1.132   1.194   0.589  0.0288 -0.2780 -1.0797
   84c3c    H18  968   1.265   1.112   0.516 -1.0672  2.3981 -0.7115
   85c3c      N  969   0.228   1.241   2.555 -0.4034 -0.1303 -0.8346
   85c3c     C1  970   0.304   1.180   2.447 -0.1377  0.3105  0.3436
   85c3c     C2  971   0.293   1.205   2.681 -0.6575 -0.2615  0.0901
   85c3c     C3  972   0.441   1.186   2.503  0.2369 -0.1851 -0.1383
   85c3c     C4  973   0.442   1.209   2.653 -0.2752  0.0306 -0.8130
   85c3c     C5  974   0.241   1.385   2.549 -0.0740  0.0526 -0.3672
   85c3c     C6  975   0.081   1.213   2.553  0.0442  0.1246  0.8196
   85c3c     H1  976   0.303   1.234   2.352 -1.0809  0.8034  0.6276
   85c3c     H2  977   0.277   1.076   2.425 -0.7725  0.1687  1.7139
   85c3c     H3  978   0.262   1.258   2.771 -1.5050 -0.6415  0.0238
   85c3c     H4  979   0.279   1.098   2.699  2.3319 -0.1162  3.9692
   85c3c     H5  980   0.521   1.244   2.458  0.5629 -1.1504 -0.8098
   85c3c     H6  981   0.473   1.083   2.488  1.0638  0.1252 -0.5021
   85c3c     H7  982   0.492   1.303   2.678  0.0214 -0.2520 -0.3308
   85c3c     H8  983   0.495   1.126   2.700  1.2549  0.8289 -1.1037
   85c3c     H9  984   0.185   1.424   2.464  0.5399 -0.8013 -1.1841
   85c3c    H10  985   0.198   1.432   2.637  0.4531 -0.6384  0.2713
   85c3c    H11  986   0.340   1.429   2.549 -0.2353  0.4331 -1.4484
   85c3c    H12  987   0.029   1.260   2.637  1.2513  0.0158  1.6498
   85c3c    H13  988   0.045   1.251   2.458  3.4891 -1.5282 -1.2412
   85c3c     C7  989   0.034   1.066   2.564  0.6556  0.0913 -0.5524
   85c3c    H14  990   0.066   1.026   2.660 -0.3438  0.6717  0.0358
   85c3c    H15  991   0.096   1.005   2.497  1.8237  0.9835 -0.3084
   85c3c     C8  992  -0.120   1.047   2.549 -0.2794 -0.4057 -0.7213
   85c3c    H16  993  -0.156   0.946   2.571  1.7451 -0.7218  1.3258
   85c3c    H17  994  -0.153   1.062   2.446  2.5280 -0.5726 -1.6905
   85c3c    H18  995  -0.165   1.117   2.618  0.5553 -0.6905  0.1218
   86c3c      N  996   2.420   1.567   1.693  0.2468  0.0456 -0.2024
   86c3c     C1  997   2.288   1.509   1.655  0.1401  0.3977  0.4818
   86c3c     C2  998   2.400   1.706   1.726  0.4781 -0.1941  0.8740
   86c3c     C3  999   2.186   1.591   1.735  0.2733  0.2563  0.6873
   86c3c     C4 1000   2.247   1.729   1.711 -0.0529 -0.1655 -0.6505
   86c3c     C5 1001   2.464   1.497   1.817  0.6486 -0.0039 -0.0658
   86c3c     C6 1002   2.525   1.545   1.596 -0.1801 -0.6108 -0.0288
   86c3c     H1 1003   2.282   1.401   1.672 -0.5884  0.4413  0.5116
   86c3c     H2 1004   2.270   1.521   1.548 -2.4819 -1.8403  0.6231
   86c3c     H3 1005   2.420   1.735   1.830 -2.4974 -0.4218  1.5625
   86c3c     H4 1006   2.440   1.783   1.660  1.4099 -0.9526  0.5609
   86c3c     H5 1007   2.190   1.560   1.840 -0.9136  0.0454  0.6854
   86c3c     H6 1008   2.086   1.576   1.694  1.2897 -0.1944 -1.6748
   86c3c     H7 1009   2.214   1.811   1.776  0.8267 -0.2117 -0.1275
   86c3c     H8 1010   2.226   1.763   1.610  1.8127  0.9853 -0.6806
   86c3c     H9 1011   2.482   1.390   1.808 -1.4762 -0.5227  1.4174
   86c3c    H10 1012   2.564   1.533   1.839 -0.8794  3.5286  1.4698
   86c3c    H11 1013   2.389   1.496   1.896 -0.9424  0.6498 -1.5070
   86c3c    H12 1014   2.615   1.581   1.645 -1.3043  2.6254 -0.2619
   86c3c    H13 1015   2.557   1.441   1.587  3.2344  0.2697  1.2385
   86c3c     C7 1016   2.510   1.605   1.454 -0.2115  0.4914 -0.2681
   86c3c    H14 1017   2.478   1.709   1.465  1.1465  0.9733 -0.7432
   86c3c    H15 1018   2.437   1.551   1.394 -0.3314  0.6071 -0.2254
   86c3c     C8 1019   2.640   1.594   1.369  0.2417  0.4033  0.3400
   86c3c    H16 1020   2.717   1.665   1.401  0.7326  0.2830 -0.5669
   86c3c    H17 1021   2.609   1.624   1.269  1.5747 -2.2556 -0.9282
   86c3c    H18 1022   2.669   1.490   1.360 -1.7610 -0.2482  1.2249
   87c3c      N 1023   2.159   0.091   0.670  0.3869 -0.7299  0.0545
   87c3c     C1 1024   2.263   0.002   0.718 -0.3507 -0.2291 -0.3770
   87c3c     C2 1025   2.057   0.067   0.777 -0.3766  0.5972  0.6417
   87c3c     C3 1026   2.264   0.033   0.868  0.1067  0.1815 -0.0249
   87c3c     C4 1027   2.128   0.069   0.905  0.3768 -0.8359  0.4833
   87c3c     C5 1028   2.196   0.237   0.654  0.2381  0.5875  0.7065
   87c3c     C6 1029   2.114   0.051   0.537 -0.1722 -0.3510  0.3604
   87c3c     H1 1030   2.355   0.022   0.664 -0.4578 -1.9065 -1.2174
   87c3c     H2 1031   2.239  -0.104   0.709 -0.8036 -0.1495 -0.1479
   87c3c     H3 1032   1.985   0.148   0.768 -0.8342  0.1677  0.4644
   87c3c     H4 1033   2.011  -0.032   0.780  1.5167 -0.2896  2.3946
   87c3c     H5 1034   2.337   0.113   0.879  0.7757 -0.4346 -0.0172
   87c3c     H6 1035   2.294  -0.045   0.938  1.0367 -0.5584 -1.2453
   87c3c     H7 1036   2.135   0.167   0.953  1.6976 -0.0829 -1.2025
   87c3c     H8 1037   2.095  -0.005   0.978 -1.5279 -1.7516 -1.2442
   87c3c     H9 1038   2.285   0.257   0.594  0.0915  2.7656  1.1510
   87c3c    H10 1039   2.117   0.300   0.613  1.3703  1.6368  0.0652
   87c3c    H11 1040   2.217   0.282   0.751 -1.2278  1.5201  0.6105
   87c3c    H12 1041   2.029   0.104   0.494  0.6410 -0.3569 -1.3287
   87c3c    H13 1042   2.193   0.075   0.466  0.7158 -1.6701  0.8770
   87c3c     C7 1043   2.094  -0.099   0.506 -0.5077 -0.8882 -0.7408
   87c3c    H14 1044   2.041  -0.150   0.587  1.8915 -1.4121  0.5396
   87c3c    H15 1045   2.185  -0.156   0.487  1.3924  2.0104 -0.5531
   87c3c     C8 1046   2.008  -0.128   0.386  0.4531  0.2103  1.2089
   87c3c    H16 1047   1.984  -0.234   0.376 -0.4309  0.2784  2.5821
   87c3c    H17 1048   2.054  -0.104   0.290  0.1371 -0.5041  0.8756
   87c3c    H18 1049   1.910  -0.081   0.391  0.4334 -0.0295  3.3984
   88c3c      N 1050   2.951   1.380   0.356 -0.5685 -0.1275 -0.2738
   88c3c     C1 1051   2.861   1.491   0.322 -0.0162  0.0360 -0.2100
   88c3c     C2 1052   2.869   1.258   0.373 -0.2203 -0.1011  0.0928
   88c3c     C3 1053   2.753   1.425   0.233 -0.4051  0.7377 -0.1792
   88c3c     C4 1054   2.762   1.277   0.267  0.0051  0.7328 -0.2471
   88c3c     C5 1055   3.048   1.370   0.246  0.4062 -0.0665 -0.4591
   88c3c     C6 1056   3.029   1.408   0.480 -0.0396 -0.5770 -0.1438
   88c3c     H1 1057   2.910   1.583   0.290 -0.7442 -0.2532 -2.2429
   88c3c     H2 1058   2.798   1.523   0.406 -0.1738 -1.8443  0.4155
   88c3c     H3 1059   2.921   1.165   0.350 -0.2728 -0.3093  0.8003
   88c3c     H4 1060   2.807   1.259   0.463 -0.2381  0.8726  0.0766
   88c3c     H5 1061   2.773   1.458   0.131  1.2082  1.2060  0.2725
   88c3c     H6 1062   2.651   1.449   0.261 -1.2116  0.9799 -3.1731
   88c3c     H7 1063   2.786   1.220   0.177 -4.4439  1.3263 -1.9185
   88c3c     H8 1064   2.663   1.239   0.291  0.0890  0.1452 -0.7869
   88c3c     H9 1065   3.088   1.470   0.228 -3.8810  2.0537  1.1852
   88c3c    H10 1066   3.132   1.303   0.267  1.2707  1.4270  0.9785
   88c3c    H11 1067   3.006   1.327   0.155 -0.1785 -2.2385  0.8027
   88c3c    H12 1068   3.066   1.308   0.504  2.1384 -0.1313 -1.5665
   88c3c    H13 1069   3.110   1.478   0.462  0.3653 -0.4880  1.8733
   88c3c     C7 1070   2.957   1.456   0.606 -0.0663 -0.5790 -0.2232
   88c3c    H14 1071   2.860   1.409   0.625 -0.4564  0.8655  1.4957
   88c3c    H15 1072   2.927   1.558   0.582  0.8017 -0.1512  0.4855
   88c3c     C8 1073   3.042   1.458   0.730  1.0949  0.1073  0.1271
   88c3c    H16 1074   3.075   1.357   0.753  1.7398  0.1234 -0.7122
   88c3c    H17 1075   2.980   1.496   0.812 -0.4705 -1.4378 -0.3217
   88c3c    H18 1076   3.135   1.512   0.715 -0.7264  2.7698 -2.1496
   89c3c      N 1077   1.473   2.904   1.002  0.3643  0.0802  0.0724
   89c3c     C1 1078   1.603   2.983   0.997  0.1083 -0.4287  0.5313
   89c3c     C2 1079   1.383   2.992   0.920  0.5965 -0.5003 -0.2831
   89c3c     C3 1080   1.616   3.034   0.850 -0.2701  0.3609 -0.1608
   89c3c     C4 1081   1.472   3.033   0.798  0.6514  0.1058  0.5526
   89c3c     C5 1082   1.486   2.778   0.941 -0.0577  0.0473 -0.0321
   89c3c     C6 1083   1.415   2.870   1.136 -0.8633 -0.7219 -0.1118
   89c3c     H1 1084   1.698   2.947   1.036 -1.0326 -3.4626  0.5949
   89c3c     H2 1085   1.589   3.074   1.056 -0.3163 -0.0880 -0.0866
   89c3c     H3 1086   1.288   2.948   0.893 -0.0848  1.4194 -1.1425
   89c3c     H4 1087   1.357   3.080   0.979 -0.6017 -2.6009  2.3764
   89c3c     H5 1088   1.665   2.957   0.790  0.6924  0.6264  0.2962
   89c3c     H6 1089   1.666   3.129   0.832  3.3871 -1.7131 -1.4764
   89c3c     H7 1090   1.473   2.964   0.714 -0.6784 -0.0604  0.6629
   89c3c     H8 1091   1.436   3.123   0.749  0.0334  0.7457  2.1257
   89c3c     H9 1092   1.540   2.706   1.002  0.6070 -0.3094 -1.0233
   89c3c    H10 1093   1.389   2.732   0.920 -0.8827  1.5036  0.5566
   89c3c    H11 1094   1.549   2.781   0.852 -0.0122  0.4146  0.0128
   89c3c    H12 1095   1.312   2.835   1.126 -0.8829 -0.9499  0.8371
   89c3c    H13 1096   1.469   2.791   1.188  1.5974  0.4875 -0.7205
   89c3c     C7 1097   1.411   2.992   1.239 -0.2563 -0.6461 -0.0347
   89c3c    H14 1098   1.338   3.066   1.205 -0.2910 -0.1985  0.9995
   89c3c    H15 1099   1.508   3.039   1.256 -0.9597  0.9085 -0.2737
   89c3c     C8 1100   1.366   2.928   1.377 -0.1267 -0.8577 -0.0271
   89c3c    H16 1101   1.368   3.005   1.454 -0.9135  0.3786 -1.2208
   89c3c    H17 1102   1.434   2.850   1.412 -0.5295 -1.2018 -0.0075
   89c3c    H18 1103   1.267   2.885   1.365 -0.7078  0.5116 -0.2267
   90c3c      N 1104   2.452   1.625   2.742 -0.3070 -0.0739 -0.2864
   90c3c     C1 1105   2.488   1.751   2.679 -0.7606 -0.0275 -0.5899
   90c3c     C2 1106   2.436   1.661   2.881 -0.5622 -0.4846  0.5051
   90c3c     C3 1107   2.394   1.853   2.747 -0.3789  0.3408  0.1533
   90c3c     C4 1108   2.374   1.800   2.886  0.4228  0.0220  0.0670
   90c3c     C5 1109   2.322   1.579   2.687  0.1630 -0.0370 -0.5754
   90c3c     C6 1110   2.558   1.518   2.718  0.5447  0.0947  0.5222
   90c3c     H1 1111   2.478   1.741   2.571 -0.2110 -0.9033 -0.5714
   90c3c     H2 1112   2.593   1.773   2.700 -1.0397  0.5308  0.2474
   90c3c     H3 1113   2.371   1.584   2.925  0.9980 -2.4357 -0.5191
   90c3c     H4 1114   2.524   1.670   2.944  1.3849 -2.0621 -1.9063
   90c3c     H5 1115   2.291   1.858   2.711  0.4444 -0.5337 -2.4158
   90c3c     H6 1116   2.440   1.951   2.739  1.7506 -0.5584  0.8579
   90c3c     H7 1117   2.268   1.788   2.908  0.3187  0.0163 -0.4401
   90c3c     H8 1118   2.408   1.870   2.962 -0.0683  0.1225  0.1970
   90c3c     H9 1119   2.237   1.648   2.695  0.4666  0.2556  0.1000
   90c3c    H10 1120   2.322   1.544   2.583 -1.2866  3.1473 -1.7164
   90c3c    H11 1121   2.280   1.491   2.735  1.3776 -0.5552 -0.4483
   90c3c    H12 1122   2.509   1.430   2.760  1.2359 -0.8957 -0.7229
   90c3c    H13 1123   2.568   1.489   2.613 -1.0471  2.6803 -0.3809
   90c3c     C7 1124   2.698   1.534   2.791  0.2436 -0.7583 -0.6394
   90c3c    H14 1125   2.683   1.520   2.898 -0.3756 -1.9214 -0.8735
   90c3c    H15 1126   2.741   1.634   2.779  1.4985 -1.0762  1.0847
   90c3c     C8 1127   2.787   1.416   2.752 -0.8653  0.1268  0.0716
   90c3c    H16 1128   2.889   1.424   2.788 -1.5271  2.4764  1.5931
   90c3c    H17 1129   2.800   1.402   2.644  1.4105  1.4864  0.1267
   90c3c    H18 1130   2.745   1.324   2.792  2.3508  0.2664  4.0388
   91c3c      N 1131   0.171   1.538   2.018 -0.4847  0.0324  0.6676
   91c3c     C1 1132   0.133   1.541   2.157 -0.6473  1.0646 -0.2683
   91c3c     C2 1133   0.065   1.454   1.962 -1.0684  0.1342 -0.0459
   91c3c     C3 1134  -0.014   1.561   2.165 -0.0970 -0.1429 -0.2633
   91c3c     C4 1135  -0.063   1.506   2.033  0.5705 -0.4425 -0.2644
   91c3c     C5 1136   0.157   1.680   1.971 -0.8288  0.3106  0.1333
   91c3c     C6 1137   0.303   1.484   1.995 -0.0838  0.2456 -0.3079
   91c3c     H1 1138   0.191   1.612   2.216 -0.0927  0.3766  0.0252
   91c3c     H2 1139   0.162   1.449   2.208  0.4764  0.7444 -1.4730
   91c3c     H3 1140   0.059   1.468   1.854 -1.5237 -2.5880 -0.4147
   91c3c     H4 1141   0.067   1.346   1.979 -1.7264  0.0272 -0.6238
   91c3c     H5 1142  -0.034   1.667   2.180 -0.9619 -0.4089  0.4920
   91c3c     H6 1143  -0.064   1.499   2.240 -0.8728 -0.0265 -0.6877
   91c3c     H7 1144  -0.102   1.582   1.965 -0.4938 -1.4970 -0.8554
   91c3c     H8 1145  -0.145   1.436   2.050  2.2640 -2.2474  0.5088
   91c3c     H9 1146   0.057   1.724   1.965 -0.6511  0.7573  0.3764
   91c3c    H10 1147   0.218   1.746   2.033  0.0505 -1.8533  1.6301
   91c3c    H11 1148   0.206   1.697   1.875 -0.5411 -0.2915  0.1700
   91c3c    H12 1149   0.330   1.507   1.892  0.9093 -2.0446 -0.5953
   91c3c    H13 1150   0.376   1.537   2.056 -0.4077  0.8984 -0.4801
   91c3c     C7 1151   0.332   1.337   2.025 -0.1505  0.2914 -0.0224
   91c3c    H14 1152   0.289   1.264   1.956  0.2938  0.3542 -0.3717
   91c3c    H15 1153   0.292   1.314   2.124 -2.5841  2.8712 -0.3584
   91c3c     C8 1154   0.487   1.317   2.020  0.5212 -0.6459 -0.7398
   91c3c    H16 1155   0.531   1.353   1.927  0.4241  2.2568  0.2834
   91c3c    H17 1156   0.498   1.211   2.046  1.6928  0.0409  1.7567
   91c3c    H18 1157   0.541   1.358   2.106 -2.2172 -0.6234  1.0258
   92c3c      N 1158   0.787   1.496   0.646 -0.4804 -0.2633 -0.1918
   92c3c     C1 1159   0.664   1.449   0.720 -0.8845  0.3304 -0.1161
   92c3c     C2 1160   0.800   1.638   0.673 -0.3198 -0.0562 -0.7892
   92c3c     C3 1161   0.676   1.524   0.858  0.1873 -0.0359 -0.1871
   92c3c     C4 1162   0.748   1.658   0.818  0.8117  0.4413 -0.0217
   92c3c     C5 1163   0.903   1.421   0.700 -0.0739 -0.2903 -0.3622
   92c3c     C6 1164   0.790   1.475   0.496  0.7419  0.1481  0.2258
   92c3c     H1 1165   0.650   1.341   0.723  2.8213 -0.1564  2.5409
   92c3c     H2 1166   0.580   1.504   0.678 -1.4978 -0.4612  0.0556
   92c3c     H3 1167   0.901   1.676   0.656  0.7674 -2.2636  0.5256
   92c3c     H4 1168   0.733   1.686   0.602 -0.3331 -0.1566 -0.8444
   92c3c     H5 1169   0.726   1.467   0.936  0.3167  0.0365 -0.2163
   92c3c     H6 1170   0.580   1.555   0.899  0.3115  0.0564  0.0324
   92c3c     H7 1171   0.828   1.679   0.890 -0.6859 -1.0461  2.1537
   92c3c     H8 1172   0.679   1.743   0.820  1.9211  1.3617  0.1286
   92c3c     H9 1173   0.908   1.319   0.661  0.6670 -0.0671 -0.8654
   92c3c    H10 1174   0.995   1.462   0.657 -1.4461  1.5285 -1.6166
   92c3c    H11 1175   0.920   1.432   0.807  2.2350 -0.2340 -0.7054
   92c3c    H12 1176   0.887   1.510   0.460 -0.3073  0.9487 -1.8778
   92c3c    H13 1177   0.786   1.368   0.479 -0.3580  0.2828 -0.4042
   92c3c     C7 1178   0.670   1.538   0.408  0.6040 -0.1099  0.2828
   92c3c    H14 1179   0.701   1.642   0.411  0.6847 -0.1424  0.5483
   92c3c    H15 1180   0.577   1.535   0.466  0.3121 -1.6449 -0.2307
   92c3c     C8 1181   0.662   1.465   0.276 -0.1341 -0.4383 -0.1152
   92c3c    H16 1182   0.627   1.365   0.298 -0.5985 -0.4851 -1.0239
   92c3c    H17 1183   0.755   1.449   0.221  0.2788 -0.6877  0.6506
   92c3c    H18 1184   0.590   1.513   0.209  0.6038 -1.1738 -1.4637
   93c3c      N 1185   1.268   0.280   2.433 -0.0946 -0.1922  0.0637
   93c3c     C1 1186   1.233   0.412   2.478  0.6923 -0.6542  0.0431
   93c3c     C2 1187   1.146   0.204   2.463  0.1702  0.1867 -0.3122
   93c3c     C3 1188   1.089   0.437   2.426  0.0918 -0.5248  0.1925
   93c3c     C4 1189   1.027   0.299   2.432 -0.4392  0.2487 -0.9035
   93c3c     C5 1190   1.305   0.287   2.290 -0.2616  0.1062 -0.0309
   93c3c     C6 1191   1.386   0.235   2.513 -0.2543 -0.4220 -0.2925
   93c3c     H1 1192   1.301   0.485   2.433 -1.0922  0.8514 -0.3021
   93c3c     H2 1193   1.240   0.421   2.586  0.0768  2.7574 -0.1227
   93c3c     H3 1194   1.134   0.115   2.401 -1.6058  0.5935 -0.5710
   93c3c     H4 1195   1.136   0.152   2.558 -1.4471 -3.5385 -2.4161
   93c3c     H5 1196   1.080   0.478   2.325  2.5515  0.4274  0.3364
   93c3c     H6 1197   1.036   0.506   2.491 -0.1943  0.7200 -1.3147
   93c3c     H7 1198   0.995   0.266   2.333 -0.0384 -0.4840 -0.7909
   93c3c     H8 1199   0.951   0.305   2.511  1.2724  1.4187  0.6834
   93c3c     H9 1200   1.300   0.185   2.251 -1.1651 -0.1597  0.7598
   93c3c    H10 1201   1.233   0.350   2.237 -0.0941  1.4297  1.2855
   93c3c    H11 1202   1.405   0.328   2.275  0.8325 -3.7707 -4.4662
   93c3c    H12 1203   1.467   0.307   2.503 -2.0413  1.5466 -0.8285
   93c3c    H13 1204   1.363   0.243   2.619 -0.0164 -0.1519 -0.2625
   93c3c     C7 1205   1.431   0.092   2.485  0.0331 -0.0659 -0.5513
   93c3c    H14 1206   1.464   0.084   2.381  1.2852 -1.7267 -0.0609
   93c3c    H15 1207   1.348   0.022   2.487 -0.1898  0.2153  0.1712
   93c3c     C8 1208   1.534   0.056   2.585 -0.0177  0.4133  0.8524
   93c3c    H16 1209   1.579  -0.039   2.556  1.3376  0.9392  1.1691
   93c3c    H17 1210   1.497   0.048   2.687  0.3534  0.5198  0.9960
   93c3c    H18 1211   1.619   0.124   2.588  0.2783  0.0173  1.6018
   94c3c      N 1212   1.659   1.405   0.465  0.4081  0.2843 -0.0692
   94c3c     C1 1213   1.594   1.476   0.574 -0.8291 -0.6984 -0.3090
   94c3c     C2 1214   1.575   1.425   0.343  0.4802 -0.1386  0.5087
   94c3c     C3 1215   1.542   1.608   0.506  0.7785  0.1104  1.3581
   94c3c     C4 1216   1.529   1.572   0.356 -0.1355  0.1964  1.3444
   94c3c     C5 1217   1.791   1.451   0.425  0.2247  0.4118 -0.1213
   94c3c     C6 1218   1.672   1.260   0.496 -0.2189 -0.2956 -0.3347
   94c3c     H1 1219   1.664   1.492   0.656 -1.4909  1.2382 -0.1072
   94c3c     H2 1220   1.497   1.432   0.598 -0.6033  0.3413  2.7814
   94c3c     H3 1221   1.619   1.389   0.250 -1.3171 -0.0205 -0.4003
   94c3c     H4 1222   1.484   1.364   0.340  0.2892 -0.0049  2.6311
   94c3c     H5 1223   1.593   1.704   0.511  1.3731 -0.1114 -0.3409
   94c3c     H6 1224   1.444   1.628   0.548  0.4386  0.7165  0.2695
   94c3c     H7 1225   1.588   1.634   0.289 -1.0935 -0.5278 -0.1996
   94c3c     H8 1226   1.423   1.573   0.330  0.1313  1.6669  0.2664
   94c3c     H9 1227   1.865   1.443   0.505 -0.4591  0.6942  0.5384
   94c3c    H10 1228   1.841   1.388   0.352 -2.0608 -0.8305 -0.6647
   94c3c    H11 1229   1.788   1.550   0.380  0.4092 -0.6971 -2.6681
   94c3c    H12 1230   1.722   1.202   0.418  1.1757  1.1366 -0.5301
   94c3c    H13 1231   1.741   1.243   0.579 -0.8923 -1.0025  0.0796
   94c3c     C7 1232   1.537   1.172   0.509 -0.1517 -0.2230 -0.4017
   94c3c    H14 1233   1.493   1.161   0.410  0.3402  2.8739 -1.0204
   94c3c    H15 1234   1.465   1.212   0.580 -0.0840 -0.2411 -0.3230
   94c3c     C8 1235   1.561   1.041   0.573 -0.7442 -0.2759  0.3989
   94c3c    H16 1236   1.634   1.043   0.654  0.5987 -2.5086 -0.6959
   94c3c    H17 1237   1.606   0.978   0.497  2.2452 -1.2765  2.8820
   94c3c    H18 1238   1.469   0.994   0.610 -1.2221  0.9210  0.7539
   95c3c      N 1239   0.731   1.886   2.837  0.4065 -0.0380  0.0503
   95c3c     C1 1240   0.695   1.892   2.696 -0.9114  0.4187 -0.2602
   95c3c     C2 1241   0.619   1.963   2.894  0.0213 -0.2290 -0.5587
   95c3c     C3 1242   0.546   1.864   2.679  0.0461 -0.5854  0.4288
   95c3c     C4 1243   0.495   1.931   2.806  0.0906 -0.0739  0.4486
   95c3c     C5 1244   0.717   1.747   2.883  0.3201  0.1911 -0.0888
   95c3c     C6 1245   0.872   1.926   2.855  0.6567  0.2309  0.3891
   95c3c     H1 1246   0.751   1.824   2.632 -1.7185 -0.1725 -0.3454
   95c3c     H2 1247   0.718   1.986   2.646  2.1023 -1.0102 -1.7241
   95c3c     H3 1248   0.592   1.944   2.998 -0.9117  1.3792 -0.4846
   95c3c     H4 1249   0.642   2.069   2.905 -1.6874  0.1087  0.0489
   95c3c     H5 1250   0.507   1.762   2.685 -1.5369 -0.0294 -0.2978
   95c3c     H6 1251   0.506   1.914   2.591 -0.9434 -1.2071  0.5212
   95c3c     H7 1252   0.436   1.854   2.856  0.6589  0.1572  1.4839
   95c3c     H8 1253   0.439   2.021   2.779  0.3950 -0.0900 -0.2486
   95c3c     H9 1254   0.781   1.680   2.827  1.1965  1.4238 -0.5716
   95c3c    H10 1255   0.744   1.739   2.988  1.0862  0.9643 -0.2280
   95c3c    H11 1256   0.615   1.709   2.875 -0.1177  0.4461  3.3016
   95c3c    H12 1257   0.906   1.898   2.955 -0.7567  2.0162  1.3969
   95c3c    H13 1258   0.930   1.886   2.772 -0.7373  0.5346 -0.7505
   95c3c     C7 1259   0.899   2.085   2.830 -0.3698  0.3407  0.2634
   95c3c    H14 1260   0.849   2.130   2.916 -1.8934 -0.8886  0.0353
   95c3c    H15 1261   0.857   2.127   2.739 -1.7100  1.6219  1.4355
   95c3c     C8 1262   1.042   2.123   2.849  0.3691 -0.1051  0.1097
   95c3c    H16 1263   1.057   2.217   2.797  0.0864 -0.0880  0.0576
   95c3c    H17 1264   1.097   2.047   2.794 -2.4743  0.5141 -3.8220
   95c3c    H18 1265   1.077   2.116   2.952  1.9278 -0.1624 -0.4204
   96c3c      N 1266   0.320   2.087   1.721  0.1706 -0.2137 -0.1366
   96c3c     C1 1267   0.236   2.088   1.601 -0.3360  0.1505  0.1793
   96c3c     C2 1268   0.347   2.224   1.753  0.1863 -0.2677  0.2641
   96c3c     C3 1269   0.173   2.227   1.589  0.1715  0.0978 -0.6475
   96c3c     C4 1270   0.229   2.306   1.709  0.0481 -0.4655  0.2247
   96c3c     C5 1271   0.234   2.028   1.829  0.6871 -0.1832  0.3195
   96c3c     C6 1272   0.444   2.010   1.720  0.3705  0.1792  0.4685
   96c3c     H1 1273   0.167   2.004   1.600  0.4535 -0.5115  0.7639
   96c3c     H2 1274   0.283   2.079   1.503  1.0012  0.9690  0.7466
   96c3c     H3 1275   0.365   2.239   1.860  0.5488  0.7580  0.0652
   96c3c     H4 1276   0.435   2.257   1.699 -1.0391  1.7059 -0.6139
   96c3c     H5 1277   0.065   2.213   1.581  0.3250 -1.6910  0.0778
   96c3c     H6 1278   0.198   2.277   1.495  2.5268  0.1263 -0.0482
   96c3c     H7 1279   0.154   2.301   1.789 -2.0054 -0.8842 -1.6762
   96c3c     H8 1280   0.244   2.412   1.689 -2.0982 -0.5065 -1.7893
   96c3c     H9 1281   0.208   1.922   1.819 -0.9826  0.1772  0.6243
   96c3c    H10 1282   0.284   2.030   1.926  0.1889  1.2479  0.5608
   96c3c    H11 1283   0.142   2.086   1.843  2.0929  1.7919  1.5947
   96c3c    H12 1284   0.502   2.042   1.806 -0.8890  0.7381  1.1312
   96c3c    H13 1285   0.421   1.906   1.742  1.6421  0.1485  1.6781
   96c3c     C7 1286   0.535   2.000   1.595  0.5917 -0.0927  0.7582
   96c3c    H14 1287   0.533   2.103   1.558 -1.1505 -0.5102 -0.3698
   96c3c    H15 1288   0.480   1.940   1.523 -2.6920  2.7294  0.7538
   96c3c     C8 1289   0.675   1.955   1.617  0.9600 -0.2190  0.2344
   96c3c    H16 1290   0.735   2.009   1.690  1.4746 -0.2537 -0.1554
   96c3c    H17 1291   0.725   1.977   1.522  0.3182 -0.8983 -0.2654
   96c3c    H18 1292   0.679   1.848   1.637 -1.5499 -0.2436  0.8179
   97c3c      N 1293   2.508   0.848   2.294 -0.3072 -0.0348  0.2520
   97c3c     C1 1294   2.493   0.702   2.281 -0.5631 -0.4888  0.1302
   97c3c     C2 1295   2.428   0.875   2.416 -0.0103 -0.2946 -0.2881
   97c3c     C3 1296   2.489   0.651   2.417 -0.3841  0.4542 -0.0735
   97c3c     C4 1297   2.469   0.769   2.508  0.0273 -0.2372  1.0576
   97c3c     C5 1298   2.648   0.879   2.317  0.2614  0.3414  0.1835
   97c3c     C6 1299   2.461   0.928   2.171 -0.3120  0.1603  0.1843
   97c3c     H1 1300   2.570   0.659   2.217  0.1539  2.2910 -0.9243
   97c3c     H2 1301   2.399   0.676   2.232  0.3230 -0.3795 -1.6647
   97c3c     H3 1302   2.454   0.972   2.459 -0.3915  0.1834 -1.1167
   97c3c     H4 1303   2.320   0.873   2.403  0.0928 -2.3695 -0.8975
   97c3c     H5 1304   2.583   0.601   2.437 -0.8821 -1.3954 -2.1427
   97c3c     H6 1305   2.408   0.578   2.426 -0.0301 -0.0468 -0.8832
   97c3c     H7 1306   2.567   0.796   2.548 -0.9941 -0.7870  4.0169
   97c3c     H8 1307   2.398   0.740   2.585 -2.0223  0.2284 -0.6078
   97c3c     H9 1308   2.704   0.852   2.227  1.4068  2.3370  0.2551
   97c3c    H10 1309   2.669   0.980   2.353  1.4033 -0.9909  3.3471
   97c3c    H11 1310   2.696   0.816   2.391 -0.5980  0.0909  0.5310
   97c3c    H12 1311   2.460   1.034   2.195  0.7228  0.5599 -1.4984
   97c3c    H13 1312   2.537   0.922   2.093 -2.6404 -0.2304 -2.1356
   97c3c     C7 1313   2.314   0.900   2.123  0.0074  0.3760  0.3173
   97c3c    H14 1314   2.240   0.891   2.202 -1.9389 -0.2346 -1.5511
   97c3c    H15 1315   2.325   0.807   2.067  0.3218 -0.6979  2.1119
   97c3c     C8 1316   2.287   0.998   2.018  0.6039 -0.2150 -0.0945
   97c3c    H16 1317   2.268   1.101   2.048  0.5955 -0.4140  0.5882
   97c3c    H17 1318   2.203   0.968   1.956  0.0998  2.6556 -0.8932
   97c3c    H18 1319   2.362   1.001   1.940 -0.9106  0.2232 -1.5642
   98c3c      N 1320   1.940   1.375   1.158  0.1752 -0.3359 -0.5285
   98c3c     C1 1321   2.074   1.416   1.203  0.0738 -0.3541 -0.0475
   98c3c     C2 1322   1.972   1.251   1.089  0.6630 -0.1189 -0.0102
   98c3c     C3 1323   2.148   1.295   1.250 -0.4078  0.3731 -1.1359
   98c3c     C4 1324   2.066   1.181   1.186 -0.2961 -0.0409 -0.2938
   98c3c     C5 1325   1.854   1.362   1.277  0.1514  0.2106 -0.2802
   98c3c     C6 1326   1.868   1.465   1.069  0.7103 -0.2783  0.6697
   98c3c     H1 1327   2.070   1.496   1.277  2.3922  1.3707 -1.7247
   98c3c     H2 1328   2.127   1.441   1.111  0.6209  0.5130  0.5113
   98c3c     H3 1329   1.894   1.178   1.065 -0.6531  1.2854 -0.0434
   98c3c     H4 1330   2.032   1.279   1.002 -0.0762 -1.6665 -1.0482
   98c3c     H5 1331   2.120   1.297   1.356 -2.7032  2.6943 -1.7486
   98c3c     H6 1332   2.253   1.295   1.220 -0.4266 -0.1484 -1.1975
   98c3c     H7 1333   2.019   1.123   1.265 -1.9847  1.5131 -0.1365
   98c3c     H8 1334   2.138   1.105   1.155  1.0213  1.9174 -2.1654
   98c3c     H9 1335   1.827   1.461   1.313  2.1408  0.3676  0.8551
   98c3c    H10 1336   1.758   1.313   1.259 -0.3444  0.6530  1.1020
   98c3c    H11 1337   1.889   1.308   1.365  0.7186  1.6764  0.4028
   98c3c    H12 1338   1.767   1.427   1.060 -0.7303  3.6808 -0.7873
   98c3c    H13 1339   1.852   1.562   1.117 -1.3766 -0.1530 -0.2505
   98c3c     C7 1340   1.920   1.493   0.931 -0.2929  0.6063 -0.7686
   98c3c    H14 1341   1.901   1.403   0.873 -0.6521  0.8602 -1.0463
   98c3c    H15 1342   2.027   1.515   0.923  0.0900 -1.3598 -1.2112
   98c3c     C8 1343   1.838   1.602   0.863  0.6942  0.2395  0.0099
   98c3c    H16 1344   1.835   1.702   0.906  0.5813 -0.0992  0.7951
   98c3c    H17 1345   1.735   1.568   0.850  0.6668  0.9623 -1.8425
   98c3c    H18 1346   1.857   1.600   0.755 -2.4958 -0.8689 -0.5956
   99c3c      N 1347   1.793   1.788   1.850 -0.2728 -0.1081  0.2858
   99c3c     C1 1348   1.651   1.765   1.862  0.1948  0.2294  0.1503
   99c3c     C2 1349   1.825   1.870   1.964 -0.6640 -0.0619 -0.1657
   99c3c     C3 1350   1.631   1.735   2.013 -0.1294 -0.2035  0.1700
   99c3c     C4 1351   1.748   1.806   2.080  0.6045 -0.5306  0.3568
   99c3c     C5 1352   1.871   1.660   1.852  0.0313  0.4912  0.7875
   99c3c     C6 1353   1.828   1.855   1.719 -0.4560 -0.1330  0.1219
   99c3c     H1 1354   1.612   1.693   1.790  0.0053  0.3068  0.1754
   99c3c     H2 1355   1.600   1.857   1.833  0.7983  0.7220  0.6333
   99c3c     H3 1356   1.932   1.875   1.982 -0.4097  0.9542 -1.9045
   99c3c     H4 1357   1.795   1.974   1.963  0.4755  0.2612 -1.1303
   99c3c     H5 1358   1.641   1.629   2.035  0.4465 -0.9140 -3.2871
   99c3c     H6 1359   1.533   1.772   2.046  0.7552  0.3500  2.2866
   99c3c     H7 1360   1.812   1.737   2.135  0.9185  0.5248  1.3542
   99c3c     H8 1361   1.728   1.891   2.146 -0.3753  1.6833 -2.6520
   99c3c     H9 1362   1.848   1.597   1.767 -0.7681  0.4023  1.0629
   99c3c    H10 1363   1.977   1.682   1.861  0.4445 -0.4962 -1.3989
   99c3c    H11 1364   1.841   1.596   1.935 -0.3718  1.5581  1.4775
   99c3c    H12 1365   1.933   1.844   1.691 -1.3369 -1.2750 -3.0151
   99c3c    H13 1366   1.775   1.799   1.642 -1.8284 -0.2771  1.1481
   99c3c     C7 1367   1.780   2.002   1.701 -0.4849 -0.1796 -0.8598
   99c3c    H14 1368   1.846   2.070   1.754 -1.8641 -0.3543  1.1232
   99c3c    H15 1369   1.678   2.024   1.734 -0.2741 -0.8090  0.2341
   99c3c     C8 1370   1.791   2.050   1.554 -0.4407  0.2989 -0.2181
   99c3c    H16 1371   1.894   2.041   1.522 -0.4095 -1.3663  0.3132
   99c3c    H17 1372   1.760   2.153   1.537  0.5700  0.8711  1.3054
   99c3c    H18 1373   1.748   1.979   1.483 -0.1552 -0.8815  0.7709
  100c3c      N 1374   0.292   2.855   0.446 -0.2633 -0.5697  0.0905
  100c3c     C1 1375   0.377   2.742   0.483  0.0919 -0.5148 -0.4432
  100c3c     C2 1376   0.236   2.811   0.322  0.0055 -0.1994  0.7851
  100c3c     C3 1377   0.310   2.613   0.438  0.4001  0.2383 -0.0734
  100c3c     C4 1378   0.234   2.661   0.316 -0.4315  0.7602 -0.3113
  100c3c     C5 1379   0.179   2.875   0.539 -0.0696 -0.7441 -0.0226
  100c3c     C6 1380   0.364   2.982   0.438 -0.3906  0.4897  1.2230
  100c3c     H1 1381   0.388   2.750   0.591 -3.0678 -1.3813 -0.0060
  100c3c     H2 1382   0.475   2.759   0.438 -0.1300  1.1284 -0.3106
  100c3c     H3 1383   0.144   2.854   0.283  0.3917 -0.0932 -0.0385
  100c3c     H4 1384   0.303   2.843   0.242 -0.5236 -0.5034  0.2182
  100c3c     H5 1385   0.240   2.579   0.515 -0.0739  0.1822 -0.5262
  100c3c     H6 1386   0.378   2.529   0.425 -0.2790 -0.4069  0.5066
  100c3c     H7 1387   0.132   2.627   0.331 -0.3676  0.5406 -0.3782
  100c3c     H8 1388   0.262   2.620   0.219  0.5293 -0.6668  0.5536
  100c3c     H9 1389   0.213   2.923   0.631 -0.0882 -1.2055  0.2267
  100c3c    H10 1390   0.105   2.940   0.493  1.5545  0.8346 -0.4642
  100c3c    H11 1391   0.123   2.790   0.577  1.1300 -1.1119  0.9643
  100c3c    H12 1392   0.296   3.060   0.403  0.4160  0.5428 -0.2632
  100c3c    H13 1393   0.394   3.007   0.540  0.9026  1.6799  0.5768
  100c3c     C7 1394   0.488   3.000   0.349 -0.5214 -0.2613  0.1219
  100c3c    H14 1395   0.465   2.976   0.245 -0.1588 -0.7662  0.1566
  100c3c    H15 1396   0.571   2.939   0.386 -0.6631  0.4189  1.5560
  100c3c     C8 1397   0.545   3.130   0.360  0.3154 -0.3492 -0.4733
  100c3c    H16 1398   0.562   3.168   0.461  1.8533 -0.0248 -0.8432
  100c3c    H17 1399   0.475   3.197   0.310  1.6633  0.8908 -0.7208
  100c3c    H18 1400   0.631   3.134   0.293 -0.4493 -0.8091 -1.4957
  101fsi     F1 1401   1.831   2.713   1.184 -0.2361  0.3166 -0.0117
  101fsi     S1 1402   1.955   2.648   1.113 -0.0850  0.0153  0.0097
  101fsi      N 1403   1.891   2.515   1.066  0.0672  0.4209  0.2104
  101fsi     O1 1404   1.989   2.745   1.010  0.3293 -0.7941 -0.5109
  101fsi     O2 1405   2.046   2.624   1.222 -0.0776  0.0660  0.3600
  101fsi     S2 1406   1.836   2.476   0.921 -0.2401  0.3214 -0.4778
  101fsi     O3 1407   1.723   2.558   0.874 -0.3447 -0.2298 -0.7577
  101fsi     O4 1408   1.820   2.336   0.898  1.1311 -0.1642 -0.8619
  101fsi     F2 1409   1.944   2.507   0.818 -0.1528  0.4853  0.1449
  102fsi     F1 1410   1.420   1.303   2.906  0.0785  0.2963 -0.3868
  102fsi     S1 1411   1.522   1.192   2.867  0.2705 -0.0851 -0.4122
  102fsi      N 1412   1.580   1.154   3.009  0.5424 -0.1069  0.1229
  102fsi     O1 1413   1.440   1.094   2.800 -0.5391  0.1176 -0.6916
  102fsi     O2 1414   1.611   1.261   2.780 -0.1246 -0.6178  0.0567
  102fsi     S2 1415   1.581   1.013   3.085  0.0150 -0.0877  0.1192
  102fsi     O3 1416   1.696   0.978   3.165  0.1874  0.3965 -0.3546
  102fsi     O4 1417   1.530   0.907   2.997  0.1479  0.6660  0.0986
  102fsi     F2 1418   1.475   1.020   3.185  0.0919  0.5228  0.2564
  103fsi     F1 1419   0.385   1.132   0.921  0.1081  0.2383 -0.2634
  103fsi     S1 1420   0.272   1.108   1.028  0.0915 -0.1558  0.2028
  103fsi      N 1421   0.355   1.017   1.130  0.2167 -0.0254 -0.5491
  103fsi     O1 1422   0.229   1.233   1.079  0.2366  0.0737 -0.0185
  103fsi     O2 1423   0.178   1.029   0.956 -0.3556 -0.1862 -0.0681
  103fsi     S2 1424   0.437   1.057   1.256 -0.2018  0.2647  0.1429
  103fsi     O3 1425   0.488   1.189   1.249 -0.5155  0.2896 -0.4325
  103fsi     O4 1426   0.517   0.948   1.302 -0.1784 -0.1311 -0.2916
  103fsi     F2 1427   0.331   1.057   1.361  0.1858 -0.5271  0.2672
  104fsi     F1 1428   0.331   1.822   0.885  0.3059  0.1078  0.0170
  104fsi     S1 1429   0.388   1.964   0.922  0.0800 -0.4182  0.1822
  104fsi      N 1430   0.277   2.041   1.007  0.0561  0.0169  0.6520
  104fsi     O1 1431   0.502   1.929   1.006  0.1785  0.6247 -0.2364
  104fsi     O2 1432   0.410   2.037   0.797  0.1179  0.2374  0.1047
  104fsi     S2 1433   0.259   2.045   1.165 -0.2961 -0.3046  0.0859
  104fsi     O3 1434   0.381   2.049   1.248  0.1879 -0.2500 -0.7130
  104fsi     O4 1435   0.154   1.958   1.211 -0.5977  0.2706 -0.1200
  104fsi     F2 1436   0.198   2.192   1.184  0.2773  0.2080  0.6198
  105fsi     F1 1437   2.849   2.048   2.713  0.1219 -0.1219  0.0049
  105fsi     S1 1438   3.004   2.079   2.710 -0.3078  0.1941 -0.4169
  105fsi      N 1439   3.057   1.940   2.647  0.0273 -0.8725 -0.0034
  105fsi     O1 1440   3.012   2.176   2.610  0.1049 -0.8274 -0.1860
  105fsi     O2 1441   3.043   2.109   2.844 -0.1796  0.2103  0.5350
  105fsi     S2 1442   3.120   1.820   2.725  0.1312  0.1872 -0.0182
  105fsi     O3 1443   3.134   1.833   2.868 -0.5400 -0.4570 -0.1769
  105fsi     O4 1444   3.226   1.764   2.645  0.1668  0.1985  0.1889
  105fsi     F2 1445   2.997   1.715   2.721  0.0179  0.7081  0.3575
  106fsi     F1 1446   2.863   2.057   2.308  0.0978 -0.0411  0.1259
  106fsi     S1 1447   2.992   1.986   2.243  0.0404  0.1781 -0.4151
  106fsi      N 1448   3.118   2.080   2.273 -0.1026 -0.7108 -0.0834
  106fsi     O1 1449   3.012   1.868   2.324  0.1301 -0.3158 -0.0209
  106fsi     O2 1450   2.956   1.965   2.100 -0.0955  0.1064  0.6009
  106fsi     S2 1451   3.165   2.202   2.183 -0.0865 -0.0256  0.2544
  106fsi     O3 1452   3.069   2.264   2.099 -0.3323  0.6666 -0.2752
  106fsi     O4 1453   3.293   2.195   2.122  0.1694  0.0560  0.1286
  106fsi     F2 1454   3.174   2.312   2.299 -0.2540  0.3072 -0.3694
  107fsi     F1 1455   0.462   2.330   1.034  0.3605  0.0422 -0.0810
  107fsi     S1 1456   0.594   2.331   0.946 -0.1094  0.1848  0.0924
  107fsi      N 1457   0.537   2.337   0.801 -0.8070  0.4769 -0.2007
  107fsi     O1 1458   0.670   2.449   0.985 -0.0016 -0.3435  0.9122
  107fsi     O2 1459   0.653   2.202   0.974  0.1923  0.3123 -0.0325
  107fsi     S2 1460   0.541   2.452   0.701 -0.3981  0.1622  0.3439
  107fsi     O3 1461   0.544   2.391   0.571  0.2747 -0.1383 -0.2209
  107fsi     O4 1462   0.632   2.559   0.729  0.0164 -0.3078  0.4736
  107fsi     F2 1463   0.398   2.520   0.714  0.1956  0.2020  0.9884
  108fsi     F1 1464   1.360   2.080   2.750 -0.3542  0.5305  0.2213
  108fsi     S1 1465   1.450   2.074   2.882  0.5281  0.2404 -0.0141
  108fsi      N 1466   1.463   2.227   2.925 -0.2920  0.2295 -0.2851
  108fsi     O1 1467   1.370   1.999   2.973  0.1630  0.0376 -0.5380
  108fsi     O2 1468   1.574   2.030   2.834  0.0378  0.2294  0.1933
  108fsi     S2 1469   1.373   2.324   3.009 -0.2018 -0.3157 -0.1589
  108fsi     O3 1470   1.281   2.250   3.088 -0.0506  0.1577  0.3371
  108fsi     O4 1471   1.325   2.441   2.937  0.2162 -0.3183 -0.0803
  108fsi     F2 1472   1.466   2.382   3.117  0.0988  0.1752 -0.2095
  109fsi     F1 1473   2.091   0.555   1.770 -0.4090 -0.2299 -0.1030
  109fsi     S1 1474   2.080   0.429   1.673 -0.3571 -0.1353  0.4980
  109fsi      N 1475   1.962   0.460   1.585  0.1408  0.0750  0.1312
  109fsi     O1 1476   2.204   0.435   1.608 -0.1035 -0.8804  0.3224
  109fsi     O2 1477   2.055   0.316   1.759 -0.3474  0.7433 -0.1771
  109fsi     S2 1478   1.956   0.584   1.484 -0.2510 -0.0961 -0.4128
  109fsi     O3 1479   2.007   0.712   1.537  0.1598  0.3898  1.3244
  109fsi     O4 1480   1.830   0.585   1.416 -0.1104  0.7815 -0.6859
  109fsi     F2 1481   2.054   0.537   1.374 -0.0358 -0.5364 -0.6613
  110fsi     F1 1482   2.874   2.267   1.503 -0.1953 -0.1242 -0.4442
  110fsi     S1 1483   2.844   2.363   1.633  0.1717 -0.1674  0.7746
  110fsi      N 1484   2.947   2.481   1.614 -0.5277 -0.1485 -0.0763
  110fsi     O1 1485   2.702   2.402   1.625 -0.0498 -0.4300 -0.2884
  110fsi     O2 1486   2.876   2.279   1.743 -0.2860  0.0078  0.0727
  110fsi     S2 1487   3.018   2.580   1.715  0.1774  0.0862  0.0022
  110fsi     O3 1488   3.121   2.665   1.667 -0.3806 -0.0439 -0.0617
  110fsi     O4 1489   3.029   2.513   1.841  0.1991 -0.1804 -0.3749
  110fsi     F2 1490   2.897   2.681   1.734 -0.0763 -0.6079  0.1091
  111fsi     F1 1491   0.798   0.012   0.707  0.3241 -0.4721 -0.0236
  111fsi     S1 1492   0.699  -0.106   0.726 -0.3421 -0.0779 -0.1298
  111fsi      N 1493   0.561  -0.045   0.760 -0.6685  0.2521  0.2171
  111fsi     O1 1494   0.693  -0.158   0.595 -0.3691 -0.1600  0.3371
  111fsi     O2 1495   0.761  -0.182   0.834 -0.1648  0.3604 -0.2368
  111fsi     S2 1496   0.477  -0.068   0.895 -0.3421  0.1795  0.0397
  111fsi     O3 1497   0.494  -0.199   0.955 -0.1045 -0.4378  0.1350
  111fsi     O4 1498   0.345  -0.019   0.869  0.5246  0.1591 -0.5547
  111fsi     F2 1499   0.525   0.040   0.996  0.4101 -0.0919  0.2976
  112fsi     F1 1500   2.473   1.822   0.562  0.1999 -0.0751 -0.0124
  112fsi     S1 1501   2.555   1.719   0.481  0.0838  0.1570  0.1184
  112fsi      N 1502   2.448   1.641   0.401 -0.2601  0.1411  0.8157
  112fsi     O1 1503   2.639   1.806   0.397 -0.2191 -0.3749 -0.3136
  112fsi     O2 1504   2.619   1.647   0.589  0.0210 -0.1228  0.5282
  112fsi     S2 1505   2.373   1.673   0.269 -0.0187  0.0990 -0.3710
  112fsi     O3 1506   2.328   1.559   0.200  0.1350  0.0428 -0.8150
  112fsi     O4 1507   2.430   1.776   0.192  0.4893  0.3376 -0.6079
  112fsi     F2 1508   2.238   1.730   0.321 -0.2935  0.6174 -0.0512
  113fsi     F1 1509   2.541   0.111   2.653  0.2544 -0.5402 -0.1163
  113fsi     S1 1510   2.690   0.083   2.628 -0.1340  0.0608  0.2131
  113fsi      N 1511   2.716  -0.035   2.727  0.1398 -0.3584 -1.0233
  113fsi     O1 1512   2.702   0.048   2.489 -0.4965  0.0515  0.3773
  113fsi     O2 1513   2.746   0.211   2.665  0.2628  0.1788  0.2031
  113fsi     S2 1514   2.779  -0.176   2.695  0.0416 -0.3076 -0.6456
  113fsi     O3 1515   2.843  -0.243   2.807  0.3892  0.1050  0.3252
  113fsi     O4 1516   2.846  -0.186   2.570  0.0156 -0.7258 -0.2658
  113fsi     F2 1517   2.655  -0.265   2.677 -0.0445 -0.2832  0.1319
  114fsi     F1 1518   2.383   1.165   0.551 -0.3148  0.3176  0.7130
  114fsi     S1 1519   2.420   1.306   0.492 -0.3142  0.0550 -0.4394
  114fsi      N 1520   2.335   1.392   0.591 -0.4308  0.1397  1.0266
  114fsi     O1 1521   2.563   1.322   0.523  0.4800  0.1836  0.2997
  114fsi     O2 1522   2.374   1.305   0.355  0.2478  0.4792 -0.6017
  114fsi     S2 1523   2.198   1.469   0.566 -0.0096  0.1638  0.2930
  114fsi     O3 1524   2.137   1.451   0.438 -0.4562  0.2150  0.1524
  114fsi     O4 1525   2.199   1.602   0.620 -0.4223  0.3880 -0.0417
  114fsi     F2 1526   2.110   1.403   0.668 -0.7887  0.3814 -0.0082
  115fsi     F1 1527   1.578   2.107   1.283 -0.1043  0.1393 -0.1012
  115fsi     S1 1528   1.533   2.250   1.240 -0.1340  0.2920  0.6128
  115fsi      N 1529   1.542   2.345   1.370  0.2652 -0.7420 -0.8229
  115fsi     O1 1530   1.616   2.281   1.129  0.2884  0.0241  0.2559
  115fsi     O2 1531   1.395   2.231   1.196  0.2556 -0.6196 -0.4403
  115fsi     S2 1532   1.657   2.445   1.415  0.3611  0.2061  0.5327
  115fsi     O3 1533   1.774   2.435   1.336 -0.3851 -0.3336 -0.1511
  115fsi     O4 1534   1.673   2.458   1.556  0.2715  0.1501 -0.1597
  115fsi     F2 1535   1.599   2.580   1.364  0.2820  0.3079  0.0187
  116fsi     F1 1536   2.936   0.997   2.205  0.0867  0.7707  0.8013
  116fsi     S1 1537   3.061   1.079   2.145 -0.7558 -0.3023  0.5547
  116fsi      N 1538   3.192   1.008   2.188  0.2918  0.0411  0.1516
  116fsi     O1 1539   3.038   1.082   2.003  0.4505  0.0245 -0.1299
  116fsi     O2 1540   3.059   1.202   2.214  0.4947  0.3102 -0.1646
  116fsi     S2 1541   3.278   0.898   2.108  0.0627  0.2229 -0.4403
  116fsi     O3 1542   3.211   0.835   1.998 -0.1240  0.0137 -0.4431
  116fsi     O4 1543   3.350   0.816   2.204  0.6885  0.6947  0.2099
  116fsi     F2 1544   3.390   0.990   2.036  0.4359 -0.1108  0.4598
  117fsi     F1 1545   2.049   0.295   2.261 -0.2232  1.0000 -0.0867
  117fsi     S1 1546   1.976   0.341   2.129 -0.0962 -0.3444 -0.4309
  117fsi      N 1547   1.847   0.415   2.174 -0.1167  0.9209 -0.0588
  117fsi     O1 1548   2.074   0.420   2.064 -0.3182  0.0298 -1.0433
  117fsi     O2 1549   1.934   0.218   2.062 -0.0532  0.1674  0.4046
  117fsi     S2 1550   1.701   0.368   2.186 -0.2048 -0.3793  0.2065
  117fsi     O3 1551   1.644   0.279   2.091 -0.6177  0.5568  0.0708
  117fsi     O4 1552   1.624   0.476   2.239 -0.0246 -0.0523 -0.1731
  117fsi     F2 1553   1.717   0.278   2.316 -0.3141 -0.1866  0.6464
  118fsi     F1 1554   1.687   2.883   1.402 -0.6294 -0.0051 -0.3214
  118fsi     S1 1555   1.750   2.847   1.537 -0.2125 -0.2744 -0.1177
  118fsi      N 1556   1.785   2.988   1.603 -0.6148 -0.1825 -0.7090
  118fsi     O1 1557   1.641   2.786   1.603 -0.5708  0.5845  0.3110
  118fsi     O2 1558   1.868   2.772   1.503  0.5793  0.1835 -0.0117
  118fsi     S2 1559   1.697   3.080   1.700 -0.1062 -0.2081 -0.0204
  118fsi     O3 1560   1.774   3.126   1.816  0.9038  0.2561 -0.1922
  118fsi     O4 1561   1.562   3.034   1.730 -0.2409  0.0653 -0.1896
  118fsi     F2 1562   1.686   3.209   1.608  0.3163  0.0522  0.5403
  119fsi     F1 1563   1.285   2.442   0.393  0.4771 -0.3413 -0.3751
  119fsi     S1 1564   1.315   2.586   0.342 -0.2297  0.2221 -0.2945
  119fsi      N 1565   1.234   2.677   0.445 -0.4079 -0.5957 -0.3052
  119fsi     O1 1566   1.461   2.595   0.347 -0.2395  0.3494  0.1055
  119fsi     O2 1567   1.254   2.590   0.211 -0.7399 -0.5714 -0.2804
  119fsi     S2 1568   1.296   2.765   0.551  0.0888 -0.1766 -0.2667
  119fsi     O3 1569   1.211   2.869   0.590  0.6222 -0.0511 -0.3016
  119fsi     O4 1570   1.436   2.808   0.533  0.0945  0.0119 -0.2622
  119fsi     F2 1571   1.310   2.674   0.677 -0.8493  0.0784  0.3292
  120fsi     F1 1572   2.352   2.895   2.415 -0.1323 -0.8402 -0.0513
  120fsi     S1 1573   2.428   2.765   2.376 -0.1918 -0.0053  0.1403
  120fsi      N 1574   2.376   2.656   2.475 -0.6876  0.1163 -0.7349
  120fsi     O1 1575   2.379   2.742   2.239  0.1870 -0.0257 -0.3413
  120fsi     O2 1576   2.568   2.797   2.389 -0.0481 -0.0543 -0.5613
  120fsi     S2 1577   2.232   2.596   2.490  0.0578  0.7632 -0.4812
  120fsi     O3 1578   2.214   2.508   2.603 -0.2934  0.6553 -0.1887
  120fsi     O4 1579   2.179   2.542   2.367 -0.0165 -0.1853  0.0141
  120fsi     F2 1580   2.149   2.722   2.524 -0.3328 -0.6114 -0.0125
  121fsi     F1 1581   2.489   0.433   0.405 -0.1691 -0.1513  0.3402
  121fsi     S1 1582   2.478   0.303   0.310  0.3086 -0.7629  0.0635
  121fsi      N 1583   2.330   0.254   0.329 -0.0472 -0.5838  0.4450
  121fsi     O1 1584   2.508   0.347   0.180  0.2283 -0.6002  0.0265
  121fsi     O2 1585   2.566   0.206   0.367  0.6780 -0.0158 -0.4570
  121fsi     S2 1586   2.196   0.327   0.279 -0.0427 -0.2921 -0.2827
  121fsi     O3 1587   2.199   0.354   0.138 -0.0111 -0.0512 -0.1085
  121fsi     O4 1588   2.157   0.437   0.370  0.1807  0.4530  0.5597
  121fsi     F2 1589   2.092   0.225   0.289 -0.2662 -0.1772 -0.2616
  122fsi     F1 1590   2.047   2.950   2.358  0.6593  0.4705 -0.8403
  122fsi     S1 1591   1.922   2.860   2.333  0.1428 -0.0620  0.2945
  122fsi      N 1592   1.872   2.821   2.477  0.5315 -0.6593  0.3288
  122fsi     O1 1593   1.827   2.948   2.271  0.3616  0.1054 -1.1793
  122fsi     O2 1594   1.970   2.746   2.261  0.3643 -0.8428  0.3922
  122fsi     S2 1595   1.816   2.683   2.534 -0.1722  0.2987  0.2341
  122fsi     O3 1596   1.809   2.676   2.680  0.0046 -0.5267  0.1096
  122fsi     O4 1597   1.854   2.565   2.456  0.1867 -0.1894  0.3325
  122fsi     F2 1598   1.669   2.700   2.495 -0.1199 -0.2884 -0.2000
  123fsi     F1 1599   1.803   0.137   0.141  0.4446 -0.1332 -0.2984
  123fsi     S1 1600   1.738   0.245   0.232 -0.1116 -0.1162 -0.2860
  123fsi      N 1601   1.789   0.197   0.371  0.3012  0.2259  1.1054
  123fsi     O1 1602   1.800   0.367   0.189  0.6385 -0.6117  0.3711
  123fsi     O2 1603   1.598   0.231   0.205  0.2361 -0.1186  0.2440
  123fsi     S2 1604   1.714   0.106   0.479 -0.2097 -0.0727 -0.1221
  123fsi     O3 1605   1.793   0.081   0.594  0.1569 -0.3310  0.1019
  123fsi     O4 1606   1.634  -0.006   0.431 -0.3681  0.3117  0.4500
  123fsi     F2 1607   1.608   0.202   0.541  0.1719  0.5485 -0.3850
  124fsi     F1 1608   2.817   0.277   2.948  0.5210  0.1762  0.8682
  124fsi     S1 1609   2.973   0.268   2.919 -0.4282  0.0868 -0.1710
  124fsi      N 1610   3.018   0.237   3.068  0.1416  0.5050  0.7118
  124fsi     O1 1611   2.988   0.163   2.816  0.3668 -0.3512 -0.0973
  124fsi     O2 1612   2.992   0.404   2.881  0.4752 -0.1144 -0.1353
  124fsi     S2 1613   3.079   0.106   3.129 -0.2397  0.2259  0.0158
  124fsi     O3 1614   3.035  -0.021   3.067  0.1816 -0.3403 -0.4014
  124fsi     O4 1615   3.078   0.103   3.273 -0.1477 -0.3556 -0.7009
  124fsi     F2 1616   3.239   0.117   3.094  0.5694 -0.0866  0.4192
  125fsi     F1 1617   2.840   1.816   2.920  0.1070  0.1895 -0.0501
  125fsi     S1 1618   2.849   1.752   3.061 -0.1758 -0.2462 -0.0267
  125fsi      N 1619   2.946   1.842   3.144  0.2543  0.0291  0.0326
  125fsi     O1 1620   2.716   1.760   3.114 -0.7831  0.4011 -0.1018
  125fsi     O2 1621   2.909   1.622   3.042 -0.2076  0.1615  0.4325
  125fsi     S2 1622   2.916   1.972   3.231 -0.0833 -0.0692  0.4038
  125fsi     O3 1623   2.782   2.025   3.231 -0.3908  0.5479  0.4591
  125fsi     O4 1624   3.026   2.058   3.228  0.1338 -0.2046 -0.1202
  125fsi     F2 1625   2.913   1.908   3.374 -0.2923  0.3873  0.1139
  126fsi     F1 1626   2.967   0.817   0.992  0.1844  0.4012  0.0602
  126fsi     S1 1627   2.915   0.828   0.841  0.1621 -0.1458 -0.5376
  126fsi      N 1628   2.850   0.968   0.843 -0.5505  0.0808 -0.2194
  126fsi     O1 1629   3.032   0.824   0.759  0.6063  0.3277  0.2043
  126fsi     O2 1630   2.816   0.725   0.828 -0.1109  0.0388  0.5066
  126fsi     S2 1631   2.869   1.097   0.756  0.3716  0.4510  0.0735
  126fsi     O3 1632   2.980   1.096   0.668  0.2078 -0.1576  0.2862
  126fsi     O4 1633   2.853   1.220   0.832 -0.0614 -0.5542 -0.5173
  126fsi     F2 1634   2.746   1.109   0.652  0.2245 -0.2893 -0.6188
  127fsi     F1 1635   2.257   1.074   1.707 -0.1826  0.4573 -0.4872
  127fsi     S1 1636   2.373   1.108   1.607  0.2778  0.0837  0.1023
  127fsi      N 1637   2.403   0.968   1.543 -0.1648  0.2576 -0.0559
  127fsi     O1 1638   2.322   1.199   1.511  0.3831 -0.5212  0.7446
  127fsi     O2 1639   2.484   1.152   1.692 -0.0333  0.2532  0.7450
  127fsi     S2 1640   2.333   0.903   1.428  0.3733  0.0316 -0.1270
  127fsi     O3 1641   2.189   0.929   1.416 -0.0973 -0.5754  0.5320
  127fsi     O4 1642   2.375   0.768   1.410 -0.7601  0.6231  0.0414
  127fsi     F2 1643   2.392   0.980   1.303 -0.5720  0.1912 -0.1085
  128fsi     F1 1644   0.744   0.835   1.755 -0.1522 -0.6690  0.3623
  128fsi     S1 1645   0.879   0.892   1.721 -0.2324  0.1214  0.2092
  128fsi      N 1646   0.969   0.765   1.734 -0.3380  0.0704 -0.0321
  128fsi     O1 1647   0.868   0.933   1.583  0.0850  0.0937 -0.2544
  128fsi     O2 1648   0.894   0.993   1.818  0.5457 -0.6371  0.2766
  128fsi     S2 1649   1.097   0.738   1.811 -0.0611  0.1235 -0.3880
  128fsi     O3 1650   1.128   0.843   1.907 -0.1074  0.9834  0.5247
  128fsi     O4 1651   1.204   0.695   1.731 -0.7493  1.2124  0.5481
  128fsi     F2 1652   1.063   0.618   1.911 -0.0606 -0.2329  0.0175
  129fsi     F1 1653   0.346   1.308   0.422  0.4689  0.1995  0.2621
  129fsi     S1 1654   0.405   1.182   0.491 -0.3997 -0.2259  0.4680
  129fsi      N 1655   0.394   1.063   0.391 -0.1539 -0.6876 -0.4265
  129fsi     O1 1656   0.537   1.219   0.522 -0.4476  0.4931 -0.5483
  129fsi     O2 1657   0.320   1.162   0.602 -0.1661 -0.1898 -0.4696
  129fsi     S2 1658   0.282   0.958   0.362 -0.0450  0.1968 -0.0351
  129fsi     O3 1659   0.255   0.921   0.224 -0.2628  0.0269 -0.0335
  129fsi     O4 1660   0.162   0.968   0.439 -0.0979  0.0169 -0.2765
  129fsi     F2 1661   0.354   0.831   0.412 -0.0422  0.0290  0.0056
  130fsi     F1 1662   0.370   2.138   2.965  0.0157  0.2857 -0.0651
  130fsi     S1 1663   0.385   2.286   3.005 -0.0274  0.0791  0.0715
  130fsi      N 1664   0.287   2.363   2.914 -0.1421 -0.5606  0.1860
  130fsi     O1 1665   0.357   2.280   3.144  0.4824  0.0347 -0.0975
  130fsi     O2 1666   0.522   2.313   2.975 -0.4665  0.7108  0.2178
  130fsi     S2 1667   0.139   2.419   2.930 -0.3703  0.4428 -0.2173
  130fsi     O3 1668   0.076   2.375   3.050 -0.5029  0.1853  0.1695
  130fsi     O4 1669   0.065   2.422   2.806  0.1002 -0.0010  0.4074
  130fsi     F2 1670   0.162   2.569   2.959 -0.1622 -0.0113  0.1553
  131fsi     F1 1671   2.674   2.272   1.042  0.3382 -0.3149  0.4341
  131fsi     S1 1672   2.787   2.314   1.149  0.2825 -0.3589 -0.3807
  131fsi      N 1673   2.699   2.390   1.249 -0.1514  0.4890 -0.1202
  131fsi     O1 1674   2.826   2.179   1.196 -0.1134 -0.2521  0.1556
  131fsi     O2 1675   2.879   2.382   1.067 -0.4853 -0.3962 -0.4034
  131fsi     S2 1676   2.677   2.542   1.269 -0.1462 -0.1256 -0.2709
  131fsi     O3 1677   2.782   2.623   1.218 -0.2801 -0.1853  0.7134
  131fsi     O4 1678   2.626   2.571   1.399  0.4183  0.1837 -0.0509
  131fsi     F2 1679   2.554   2.574   1.171 -0.1943 -0.3617 -0.0944
  132fsi     F1 1680   1.001   1.908   2.399 -0.2279 -0.2344  0.8147
  132fsi     S1 1681   1.008   1.753   2.402 -0.1517 -0.0431  0.1095
  132fsi      N 1682   1.157   1.722   2.386 -0.3161 -0.2350  0.1617
  132fsi     O1 1683   0.956   1.733   2.532  0.4554  0.7084 -0.9400
  132fsi     O2 1684   0.924   1.702   2.301  0.4567  0.6206  0.3155
  132fsi     S2 1685   1.278   1.764   2.481  0.0892  0.4555 -0.2559
  132fsi     O3 1686   1.236   1.838   2.595 -0.1032  0.5376 -0.1343
  132fsi     O4 1687   1.402   1.786   2.413 -0.2141 -0.3179 -0.1440
  132fsi     F2 1688   1.299   1.623   2.539 -0.2273 -0.2611 -0.1752
  133fsi     F1 1689   1.344   2.625   1.537  0.1173 -0.2265 -0.6328
  133fsi     S1 1690   1.281   2.624   1.673  0.5194 -0.0491  0.1600
  133fsi      N 1691   1.315   2.477   1.727 -0.1091  0.0726  0.2509
  133fsi     O1 1692   1.333   2.735   1.747 -0.3058 -0.1601 -0.1577
  133fsi     O2 1693   1.138   2.629   1.637  0.3083  0.7804 -0.1994
  133fsi     S2 1694   1.426   2.423   1.831  0.1566  0.6559 -0.0397
  133fsi     O3 1695   1.366   2.370   1.953 -0.3082 -0.4334 -0.0396
  133fsi     O4 1696   1.549   2.506   1.840  0.4382  0.0224  0.6918
  133fsi     F2 1697   1.479   2.290   1.759  0.5232 -0.2789  0.2506
  134fsi     F1 1698   2.157   0.141   1.291 -0.3152  0.1499 -0.6639
  134fsi     S1 1699   2.015   0.127   1.349  0.2448  0.0020 -0.3333
  134fsi      N 1700   1.950   0.248   1.286 -0.0836  0.0935 -0.3725
  134fsi     O1 1701   1.966   0.004   1.294 -0.3384 -0.2812 -0.7812
  134fsi     O2 1702   2.035   0.142   1.490  0.0831 -0.1280  0.0917
  134fsi     S2 1703   1.842   0.267   1.172 -0.4074 -0.2189 -0.4002
  134fsi     O3 1704   1.856   0.176   1.062  0.0114 -0.2967  0.4326
  134fsi     O4 1705   1.822   0.409   1.135 -0.8504 -0.5537  0.2709
  134fsi     F2 1706   1.711   0.230   1.246  0.0176  0.1163  0.0601
  135fsi     F1 1707   1.532   0.358   0.951 -0.5886  0.2444 -0.2155
  135fsi     S1 1708   1.418   0.443   1.019 -0.3581  0.0396 -0.1690
  135fsi      N 1709   1.388   0.352   1.147  0.2631  0.5881 -0.2250
  135fsi     O1 1710   1.484   0.565   1.040 -0.2454  0.0443  0.1396
  135fsi     O2 1711   1.309   0.444   0.924  0.1438  0.3244 -0.1397
  135fsi     S2 1712   1.412   0.392   1.301  0.1775  0.3119  0.1958
  135fsi     O3 1713   1.507   0.497   1.329 -0.3397 -0.1014  0.3752
  135fsi     O4 1714   1.428   0.271   1.380  0.2225 -0.2330  0.1610
  135fsi     F2 1715   1.274   0.461   1.343 -0.3814  0.0869  0.3092
  136fsi     F1 1716   1.107   1.236   0.887 -0.0626 -0.2818  0.1631
  136fsi     S1 1717   1.192   1.369   0.901 -0.2481  0.3082  0.1929
  136fsi      N 1718   1.298   1.323   1.010 -0.1137  0.0685 -0.6639
  136fsi     O1 1719   1.243   1.387   0.769 -0.3527 -0.1037  0.4297
  136fsi     O2 1720   1.102   1.464   0.950  0.3733 -0.2270 -0.1918
  136fsi     S2 1721   1.454   1.302   0.998  0.1788 -0.1654  0.3808
  136fsi     O3 1722   1.515   1.280   1.127 -0.4245  0.3164 -1.0673
  136fsi     O4 1723   1.527   1.387   0.909 -0.0921 -0.2143 -0.4612
  136fsi     F2 1724   1.456   1.148   0.930  0.0172  0.4114  0.6011
  137fsi     F1 1725   2.773   2.850   1.922 -0.2297  0.0528  0.2693
  137fsi     S1 1726   2.682   2.797   2.042 -0.1107  0.0550 -0.3424
  137fsi      N 1727   2.700   2.639   2.061 -0.2815  0.2219  0.3941
  137fsi     O1 1728   2.742   2.866   2.154  0.1457 -0.2669  0.4329
  137fsi     O2 1729   2.555   2.839   2.002  0.4043  0.0094  0.5976
  137fsi     S2 1730   2.615   2.522   2.015 -0.2150 -0.0504  0.0627
  137fsi     O3 1731   2.699   2.404   2.004 -0.0284 -0.4511  0.8316
  137fsi     O4 1732   2.519   2.546   1.913  0.1657 -0.6021  0.0543
  137fsi     F2 1733   2.522   2.487   2.140 -0.4197  0.1652 -0.2391
  138fsi     F1 1734   0.456   2.553   2.482 -0.2526  0.0480 -0.3286
  138fsi     S1 1735   0.362   2.527   2.609  0.0496  0.4108  0.2364
  138fsi      N 1736   0.301   2.382   2.583 -0.4250  0.4410 -0.0717
  138fsi     O1 1737   0.446   2.539   2.724 -0.0762 -0.0981 -0.4000
  138fsi     O2 1738   0.257   2.623   2.600  0.3852 -0.4804  0.1888
  138fsi     S2 1739   0.388   2.255   2.558  0.2733 -0.2301  0.2011
  138fsi     O3 1740   0.309   2.139   2.560  0.0927 -0.3087  0.3572
  138fsi     O4 1741   0.509   2.246   2.639 -0.9976  0.3013  0.6067
  138fsi     F2 1742   0.435   2.264   2.406 -0.2677 -0.1997  0.4446
  139fsi     F1 1743   2.766   2.561   2.364 -0.0229  0.1381 -0.1992
  139fsi     S1 1744   2.898   2.478   2.358  0.1172 -0.0648  0.1801
  139fsi      N 1745   2.961   2.535   2.226 -0.3547  0.1954 -0.3860
  139fsi     O1 1746   2.980   2.515   2.469 -0.6284  0.0336  0.4179
  139fsi     O2 1747   2.860   2.343   2.345  0.6684  0.4608  0.5307
  139fsi     S2 1748   3.042   2.673   2.205  0.2038 -0.4870  0.2946
  139fsi     O3 1749   3.021   2.778   2.302 -0.1407  0.0249  0.3807
  139fsi     O4 1750   3.034   2.713   2.068  0.3043 -0.4484 -0.0770
  139fsi     F2 1751   3.186   2.623   2.239  0.1528  0.5746 -0.6281
  140fsi     F1 1752   1.317   2.839   2.691 -0.7406 -0.2565 -0.1125
  140fsi     S1 1753   1.165   2.840   2.728 -0.1706 -0.3896  0.2424
  140fsi      N 1754   1.131   2.684   2.751 -0.1425 -0.5052 -0.4338
  140fsi     O1 1755   1.148   2.915   2.850  0.0278 -0.5008 -0.5176
  140fsi     O2 1756   1.105   2.899   2.609  0.0888 -0.1025 -0.3597
  140fsi     S2 1757   1.077   2.577   2.647  0.2949  0.0324  0.3368
  140fsi     O3 1758   1.108   2.446   2.691  0.3536  0.9258 -0.6382
  140fsi     O4 1759   1.087   2.609   2.508  1.0969  0.3544 -0.2217
  140fsi     F2 1760   0.925   2.583   2.673  0.7144 -0.0801 -0.5846
  141fsi     F1 1761   2.546   0.643   2.806 -0.5253  0.2113 -0.3768
  141fsi     S1 1762   2.594   0.500   2.782 -0.3043  0.0859  0.0251
  141fsi      N 1763   2.481   0.458   2.685  0.2853 -0.2199 -0.1062
  141fsi     O1 1764   2.724   0.516   2.727 -0.2684 -0.3020 -0.1550
  141fsi     O2 1765   2.595   0.431   2.908  0.2218 -0.2076  0.1048
  141fsi     S2 1766   2.340   0.393   2.714  0.1082 -0.5593  0.3397
  141fsi     O3 1767   2.306   0.389   2.853 -0.7836  0.1425  0.1400
  141fsi     O4 1768   2.314   0.277   2.634  0.5769  0.2922 -0.1373
  141fsi     F2 1769   2.235   0.493   2.655  0.2864  0.1018  0.1162
  142fsi     F1 1770   1.537   2.822   2.236 -0.2728  0.1103  0.3108
  142fsi     S1 1771   1.453   2.895   2.138 -0.0465 -0.1003 -0.0187
  142fsi      N 1772   1.313   2.912   2.215 -0.7496  0.5591 -0.2978
  142fsi     O1 1773   1.519   3.020   2.121 -0.0009  1.0925  0.6263
  142fsi     O2 1774   1.450   2.802   2.031  0.1033  0.2972  0.4344
  142fsi     S2 1775   1.169   2.879   2.161 -0.3876  0.1660 -0.1257
  142fsi     O3 1776   1.074   2.886   2.267  0.3978  0.5581  0.0439
  142fsi     O4 1777   1.159   2.768   2.068 -0.3961  0.1195  0.2247
  142fsi     F2 1778   1.134   3.010   2.081  0.4187  0.2100 -0.0583
  143fsi     F1 1779   0.653   0.599   1.305 -0.1513 -0.7676  0.3285
  143fsi     S1 1780   0.742   0.681   1.396  0.2548 -0.1498  0.5189
  143fsi      N 1781   0.866   0.585   1.433  0.2930  0.8647 -0.0849
  143fsi     O1 1782   0.783   0.788   1.309  0.7106 -0.1797 -0.2497
  143fsi     O2 1783   0.653   0.722   1.501  0.1846 -0.1373  0.0420
  143fsi     S2 1784   0.882   0.472   1.540  0.2871  0.0600  0.0199
  143fsi     O3 1785   0.782   0.471   1.644  0.2224  0.0320  0.1741
  143fsi     O4 1786   1.021   0.445   1.577 -0.1884  0.2122  0.2819
  143fsi     F2 1787   0.839   0.351   1.457 -0.0391  0.7274  0.4117
  144fsi     F1 1788   1.202   1.284   0.204  0.4897 -0.1538  0.3517
  144fsi     S1 1789   1.138   1.403   0.281 -0.2274 -0.0089 -0.1127
  144fsi      N 1790   1.178   1.517   0.184  0.2078 -0.5781  0.0790
  144fsi     O1 1791   0.998   1.369   0.293 -0.0853  0.0362  0.3756
  144fsi     O2 1792   1.204   1.411   0.402  0.5383  0.4844 -0.3737
  144fsi     S2 1793   1.088   1.594   0.083  0.4113 -0.0926 -0.2442
  144fsi     O3 1794   1.100   1.739   0.097  0.3189 -0.0159 -0.3676
  144fsi     O4 1795   0.960   1.529   0.052  0.2475 -0.4857  0.3145
  144fsi     F2 1796   1.184   1.573  -0.048  0.3777  0.1071  0.2109
  145fsi     F1 1797   1.841   0.375   2.869  0.1026  0.0026  0.2845
  145fsi     S1 1798   1.824   0.434   2.726  0.0904 -0.0564  0.1041
  145fsi      N 1799   1.734   0.554   2.766 -0.3653  0.1607 -0.0383
  145fsi     O1 1800   1.950   0.487   2.694  0.2116 -0.0399  0.0228
  145fsi     O2 1801   1.768   0.326   2.653 -0.1557  0.2041  0.1270
  145fsi     S2 1802   1.584   0.554   2.781 -0.0438  0.1831  0.2712
  145fsi     O3 1803   1.501   0.474   2.696 -0.2433  0.2690  0.5074
  145fsi     O4 1804   1.528   0.688   2.791  0.0150 -0.5581 -0.1972
  145fsi     F2 1805   1.558   0.507   2.931  0.1451  0.3127  0.3828
  146fsi     F1 1806   1.800   1.458   0.038 -0.7324  0.2100 -0.2062
  146fsi     S1 1807   1.934   1.539   0.072  0.1799  0.1066 -0.0099
  146fsi      N 1808   1.875   1.669   0.143  0.0316 -0.2848  0.6294
  146fsi     O1 1809   2.003   1.454   0.162 -0.0788 -0.1858  0.2651
  146fsi     O2 1810   1.997   1.558  -0.053 -0.1209 -0.6918 -0.1079
  146fsi     S2 1811   1.858   1.814   0.092  0.3714  0.3289 -0.6459
  146fsi     O3 1812   1.838   1.822  -0.048 -0.0436 -0.2098  0.5792
  146fsi     O4 1813   1.943   1.908   0.163  0.1478  0.3808 -0.4658
  146fsi     F2 1814   1.712   1.850   0.140  0.1911 -0.1863  0.5885
  147fsi     F1 1815   2.698   0.088   1.250  0.4290  0.5217  0.4335
  147fsi     S1 1816   2.807   0.013   1.333  0.0638 -0.0774  0.2239
  147fsi      N 1817   2.781   0.078   1.476  0.6610 -0.3455  0.0302
  147fsi     O1 1818   2.765  -0.126   1.328 -0.0517  0.6275  0.2678
  147fsi     O2 1819   2.931   0.054   1.267 -0.4361  0.6583  0.1333
  147fsi     S2 1820   2.769   0.012   1.613  0.2352 -0.0933 -0.7168
  147fsi     O3 1821   2.699  -0.117   1.608  0.1481 -0.1286 -0.0489
  147fsi     O4 1822   2.726   0.100   1.718 -0.1549 -0.1612 -0.1317
  147fsi     F2 1823   2.919  -0.019   1.643 -0.4842  0.1992 -0.4033
  148fsi     F1 1824   1.162   0.767   0.108 -0.5595 -0.0885 -0.1477
  148fsi     S1 1825   1.217   0.691  -0.019 -0.0570 -0.0455  0.1847
  148fsi      N 1826   1.105   0.581  -0.042 -0.6505  1.1045 -0.2319
  148fsi     O1 1827   1.226   0.790  -0.120 -0.2545  0.0569  0.0461
  148fsi     O2 1828   1.336   0.634   0.033  0.0141 -0.4868  0.3609
  148fsi     S2 1829   0.981   0.574  -0.137  0.0492  0.3099  0.2164
  148fsi     O3 1830   0.930   0.700  -0.185  0.1475 -0.0785 -0.2087
  148fsi     O4 1831   0.884   0.478  -0.079  0.4784 -0.2029 -0.2982
  148fsi     F2 1832   1.037   0.503  -0.263 -0.6018  0.4951 -0.1425
  149fsi     F1 1833   0.790   2.716   2.104  0.1235 -0.0263  0.2308
  149fsi     S1 1834   0.718   2.744   2.250  0.4011  0.3002  0.6500
  149fsi      N 1835   0.674   2.895   2.232 -0.2032 -0.6048 -0.0921
  149fsi     O1 1836   0.605   2.658   2.252  0.6496 -0.2745 -0.0424
  149fsi     O2 1837   0.823   2.717   2.348  0.2253 -0.1545  1.0012
  149fsi     S2 1838   0.755   3.022   2.288 -0.3108 -0.0348  0.1596
  149fsi     O3 1839   0.851   3.076   2.194 -0.5266  0.3533 -0.6159
  149fsi     O4 1840   0.799   3.008   2.427  0.1881 -0.2111  0.0435
  149fsi     F2 1841   0.640   3.133   2.293 -0.0774 -0.3608  0.0845
  150fsi     F1 1842   0.815   1.442   2.094  0.5728  0.0618 -0.2135
  150fsi     S1 1843   0.948   1.353   2.124  0.0833  0.1542  0.0821
  150fsi      N 1844   0.891   1.247   2.223 -0.2929 -0.3325 -0.8816
  150fsi     O1 1845   0.991   1.293   2.002  0.6098 -0.4743 -0.1662
  150fsi     O2 1846   1.039   1.444   2.183 -0.3407 -0.1776 -0.4424
  150fsi     S2 1847   0.881   1.094   2.209  0.5432  0.1887  0.2822
  150fsi     O3 1848   0.842   1.027   2.330 -0.0263 -0.1115 -0.1545
  150fsi     O4 1849   0.987   1.030   2.137  0.2644 -0.1209  0.1459
  150fsi     F2 1850   0.746   1.082   2.119 -0.3600  0.2411  0.8123
  151fsi     F1 1851   2.666   1.228   2.363 -0.2093  0.0002  0.8506
  151fsi     S1 1852   2.604   1.309   2.241  0.0756 -0.0637 -0.0807
  151fsi      N 1853   2.667   1.449   2.254 -0.0848 -0.3270 -0.0522
  151fsi     O1 1854   2.649   1.239   2.125 -0.2986  0.0066 -0.4447
  151fsi     O2 1855   2.462   1.317   2.268  0.5094 -0.2645 -0.0166
  151fsi     S2 1856   2.609   1.586   2.318  0.1304  0.5557  0.3401
  151fsi     O3 1857   2.699   1.650   2.406 -0.8377  0.5259 -1.0186
  151fsi     O4 1858   2.460   1.588   2.347  0.3645 -0.1167  0.6797
  151fsi     F2 1859   2.618   1.684   2.195  0.1670 -0.0721 -0.5234
  152fsi     F1 1860   1.162   0.702   2.569 -0.1442  0.1563  0.1666
  152fsi     S1 1861   1.237   0.816   2.491 -0.1442  0.5276 -0.8449
  152fsi      N 1862   1.305   0.736   2.377  0.4289  0.4528  0.0040
  152fsi     O1 1863   1.138   0.906   2.445 -0.0289  0.1983 -0.1031
  152fsi     O2 1864   1.330   0.871   2.582 -0.3981 -0.2716 -0.5452
  152fsi     S2 1865   1.270   0.712   2.225  0.5489 -0.4385  0.0819
  152fsi     O3 1866   1.135   0.753   2.199  0.7489 -0.4466  0.3259
  152fsi     O4 1867   1.306   0.586   2.175 -0.6136 -0.1600  0.3213
  152fsi     F2 1868   1.365   0.803   2.149 -0.0420 -0.2178  0.4791
  153fsi     F1 1869   1.346   1.076   2.291  0.7364 -0.0696 -0.2430
  153fsi     S1 1870   1.370   1.135   2.148 -0.1081 -0.1074 -0.1322
  153fsi      N 1871   1.334   1.286   2.169 -0.4729  0.1396  0.5929
  153fsi     O1 1872   1.511   1.111   2.129  0.5431  1.0985 -0.3462
  153fsi     O2 1873   1.279   1.067   2.061  0.1592  0.1135 -0.3895
  153fsi     S2 1874   1.394   1.402   2.241  0.0021 -0.0206 -0.2498
  153fsi     O3 1875   1.327   1.522   2.208 -0.0773  0.3577 -0.8345
  153fsi     O4 1876   1.533   1.407   2.244 -0.0030 -0.2501 -0.5448
  153fsi     F2 1877   1.353   1.379   2.396  0.1914  0.3075 -0.0580
  154fsi     F1 1878   0.454   1.716   2.405 -0.7748 -0.1392  0.1220
  154fsi     S1 1879   0.481   1.846   2.317  0.0231  0.4698 -0.0792
  154fsi      N 1880   0.459   1.797   2.171  0.1002 -0.2349  0.0629
  154fsi     O1 1881   0.380   1.940   2.353 -0.0680  0.4595 -0.1969
  154fsi     O2 1882   0.617   1.881   2.348  0.1545  0.4446 -0.4895
  154fsi     S2 1883   0.541   1.820   2.035 -0.2690 -0.2819  0.6207
  154fsi     O3 1884   0.579   1.959   2.028 -0.0868 -0.2694  0.2079
  154fsi     O4 1885   0.470   1.761   1.925 -0.3203 -0.0957 -0.2897
  154fsi     F2 1886   0.675   1.734   2.060 -0.0875  0.0783  0.1976
  155fsi     F1 1887   0.139   2.093   0.547  0.8995 -0.1623 -0.3864
  155fsi     S1 1888   0.195   2.236   0.513  0.0228  0.2033  0.1366
  155fsi      N 1889   0.209   2.285   0.659  0.3518 -0.1579  0.0373
  155fsi     O1 1890   0.324   2.210   0.458  0.0282 -0.0624 -0.3177
  155fsi     O2 1891   0.088   2.293   0.431  0.2289 -0.0278  0.3059
  155fsi     S2 1892   0.102   2.367   0.742 -0.0697  0.2279  0.4097
  155fsi     O3 1893  -0.030   2.308   0.744 -0.0939 -0.5477 -0.6020
  155fsi     O4 1894   0.127   2.512   0.728  0.1733 -0.0063  0.0163
  155fsi     F2 1895   0.147   2.339   0.891 -0.1971  0.5435 -0.0999
  156fsi     F1 1896   0.005   1.571   1.557  0.1990  0.2643 -0.0428
  156fsi     S1 1897   0.042   1.718   1.587  0.0046 -0.1793 -0.2779
  156fsi      N 1898  -0.048   1.749   1.712  0.1969 -0.7129 -0.2025
  156fsi     O1 1899   0.179   1.708   1.618  0.3816 -0.0401  0.5392
  156fsi     O2 1900   0.009   1.786   1.464  0.4007  0.2720 -0.1197
  156fsi     S2 1901  -0.192   1.820   1.717  0.0710 -0.2767 -0.3169
  156fsi     O3 1902  -0.273   1.761   1.826 -0.7985 -0.2066  0.3754
  156fsi     O4 1903  -0.257   1.846   1.591 -0.1630 -0.1603 -0.4846
  156fsi     F2 1904  -0.150   1.964   1.780  0.4913  0.3236  0.9855
  157fsi     F1 1905   0.690   2.660   0.323 -0.0677  0.2298  0.5490
  157fsi     S1 1906   0.672   2.545   0.216 -0.9260 -0.0646  0.0651
  157fsi      N 1907   0.821   2.513   0.183 -0.0871  0.2650  0.4174
  157fsi     O1 1908   0.600   2.437   0.288  0.0247 -0.5238 -0.0927
  157fsi     O2 1909   0.603   2.606   0.112 -0.0979  0.4259  0.3382
  157fsi     S2 1910   0.882   2.448   0.056  0.0861  0.1045  0.5038
  157fsi     O3 1911   0.998   2.518   0.008 -0.6774 -0.1537 -0.6568
  157fsi     O4 1912   0.785   2.424  -0.049 -0.0038  0.0177  0.2007
  157fsi     F2 1913   0.925   2.303   0.100 -0.1054  0.2428 -0.0766
  158fsi     F1 1914   0.718   0.341   2.554 -0.5535  0.0737  0.0350
  158fsi     S1 1915   0.644   0.476   2.592  0.6847  0.3731  0.1943
  158fsi      N 1916   0.751   0.585   2.572 -0.1188 -0.1361 -0.5201
  158fsi     O1 1917   0.538   0.478   2.498  0.1350  0.2122  0.1789
  158fsi     O2 1918   0.609   0.457   2.728  0.0581 -0.0625  0.5794
  158fsi     S2 1919   0.750   0.718   2.493  0.2854 -0.3124  0.2674
  158fsi     O3 1920   0.628   0.747   2.430  0.4006 -0.5311  0.2232
  158fsi     O4 1921   0.870   0.740   2.417  0.4334  0.0502 -0.3769
  158fsi     F2 1922   0.764   0.830   2.607  0.1402  0.0925  0.4698
  159fsi     F1 1923   2.980   0.060   0.655 -0.1819 -0.4926  0.6351
  159fsi     S1 1924   2.897   0.170   0.584  0.3776 -0.3467 -0.0337
  159fsi      N 1925   2.788   0.213   0.688  0.0279  0.0971  0.1485
  159fsi     O1 1926   2.994   0.269   0.559 -0.3808 -0.2976  0.0050
  159fsi     O2 1927   2.849   0.100   0.472 -0.2104 -0.4409  0.0363
  159fsi     S2 1928   2.645   0.154   0.712  0.1255 -0.2359  0.0424
  159fsi     O3 1929   2.601   0.042   0.626  0.2471  0.5804 -0.3531
  159fsi     O4 1930   2.556   0.260   0.740 -0.2438  0.1843 -0.1198
  159fsi     F2 1931   2.669   0.082   0.849  0.1308 -0.4322 -0.2582
  160fsi     F1 1932   1.982   2.017   1.033 -0.3376 -0.2582 -0.0826
  160fsi     S1 1933   1.925   1.982   1.178 -0.2474 -0.1252  0.4629
  160fsi      N 1934   2.056   1.924   1.244 -0.3580  0.7922 -0.4724
  160fsi     O1 1935   1.869   2.112   1.220 -0.4125  0.3196 -0.2576
  160fsi     O2 1936   1.829   1.884   1.138  0.0628  0.1542  0.0413
  160fsi     S2 1937   2.070   1.774   1.298  0.0855  0.2170 -0.3279
  160fsi     O3 1938   1.954   1.713   1.367 -0.2805 -0.3990  0.0829
  160fsi     O4 1939   2.198   1.761   1.366 -0.1184  0.4723  0.4681
  160fsi     F2 1940   2.089   1.693   1.160  0.3021 -0.0043 -0.5603
  161fsi     F1 1941   0.698   1.058   0.826 -0.0310  0.3033  0.1031
  161fsi     S1 1942   0.737   1.028   0.973 -0.0503 -0.0448  0.0528
  161fsi      N 1943   0.735   1.172   1.033  1.0017  0.3213 -0.5814
  161fsi     O1 1944   0.627   0.946   1.020  0.1990 -0.0998 -0.6311
  161fsi     O2 1945   0.864   0.966   0.959 -0.4848 -0.6515 -0.8144
  161fsi     S2 1946   0.809   1.226   1.159 -0.1177 -0.0212  0.2802
  161fsi     O3 1947   0.801   1.133   1.264 -0.0790  0.1538 -0.6637
  161fsi     O4 1948   0.780   1.369   1.186 -1.5226 -0.4260 -0.1012
  161fsi     F2 1949   0.965   1.213   1.124  0.6066 -0.0832 -0.0118
  162fsi     F1 1950   1.367   2.109   0.487  0.0369 -0.6065 -0.1740
  162fsi     S1 1951   1.413   1.965   0.471  0.2383  0.1417  0.1469
  162fsi      N 1952   1.313   1.884   0.565  0.4437 -0.1006 -0.2474
  162fsi     O1 1953   1.393   1.936   0.330 -0.1775  0.0536  0.0605
  162fsi     O2 1954   1.548   1.967   0.520 -0.3897 -0.0120 -0.3641
  162fsi     S2 1955   1.181   1.806   0.539 -0.1739  0.2304  0.0377
  162fsi     O3 1956   1.184   1.690   0.621 -0.1820  0.3097 -0.3135
  162fsi     O4 1957   1.150   1.793   0.398 -0.0542  0.3243  0.1218
  162fsi     F2 1958   1.069   1.897   0.597  0.3444 -0.4244 -0.0192
  163fsi     F1 1959   0.518   1.797   0.191  0.0876 -0.1577  0.0280
  163fsi     S1 1960   0.396   1.901   0.231 -0.0559  0.0211  0.1189
  163fsi      N 1961   0.358   1.853   0.378  0.3933 -0.3418  0.0180
  163fsi     O1 1962   0.468   2.025   0.238 -0.6323 -0.3632  0.3658
  163fsi     O2 1963   0.299   1.886   0.125  0.1327 -1.5413 -0.1954
  163fsi     S2 1964   0.257   1.734   0.408  0.0972 -0.0681 -0.0427
  163fsi     O3 1965   0.188   1.688   0.292  0.7999  0.8131  0.4656
  163fsi     O4 1966   0.184   1.746   0.535  0.4635 -0.2056 -0.0632
  163fsi     F2 1967   0.351   1.616   0.436  0.5321  0.2266  0.3943
  164fsi     F1 1968   0.461   1.231   0.166 -0.0994 -0.8334 -0.4536
  164fsi     S1 1969   0.412   1.224   0.020  0.2682 -0.0296 -0.0554
  164fsi      N 1970   0.320   1.345   0.009  0.1072 -0.1799 -0.0097
  164fsi     O1 1971   0.524   1.233  -0.064 -0.0085  0.2672 -0.3386
  164fsi     O2 1972   0.339   1.099   0.008  0.1777  0.3048  0.6336
  164fsi     S2 1973   0.330   1.486  -0.064 -0.1228  0.4464  0.1822
  164fsi     O3 1974   0.415   1.502  -0.182 -0.3383 -0.1890 -0.1273
  164fsi     O4 1975   0.306   1.590   0.034  0.4253  0.2944 -0.5280
  164fsi     F2 1976   0.192   1.486  -0.134  0.8496 -0.0240  0.1921
  165fsi     F1 1977   1.501   1.416   1.685 -0.1103  0.2775 -0.2457
  165fsi     S1 1978   1.458   1.349   1.818  0.5533 -0.0515 -0.2197
  165fsi      N 1979   1.460   1.194   1.793  0.2827 -0.0145  0.2940
  165fsi     O1 1980   1.564   1.380   1.911 -0.0518 -0.2734  0.0753
  165fsi     O2 1981   1.323   1.396   1.847  0.7114 -0.6222 -0.5795
  165fsi     S2 1982   1.357   1.101   1.715 -0.4171 -0.0824 -0.6131
  165fsi     O3 1983   1.394   1.091   1.574 -0.0481  0.0586 -0.8246
  165fsi     O4 1984   1.220   1.114   1.749 -0.7423 -0.1840  0.1203
  165fsi     F2 1985   1.400   0.955   1.765  0.2311 -0.2146  0.0823
  166fsi     F1 1986   0.188   0.569   1.379  0.0551  0.6508 -0.0365
  166fsi     S1 1987   0.239   0.713   1.400  0.2683  0.3677  0.6153
  166fsi      N 1988   0.345   0.693   1.520 -0.3366 -0.2914  0.5053
  166fsi     O1 1989   0.308   0.732   1.277 -0.4020  0.1069 -0.0340
  166fsi     O2 1990   0.124   0.790   1.432  0.5064 -0.2528  0.3743
  166fsi     S2 1991   0.338   0.732   1.676  0.0646  0.1943 -0.0373
  166fsi     O3 1992   0.379   0.616   1.747 -0.1175 -0.6556 -0.3259
  166fsi     O4 1993   0.213   0.794   1.718 -0.1268 -0.2306 -0.1649
  166fsi     F2 1994   0.459   0.835   1.685 -0.0025  0.3310 -0.2163
  167fsi     F1 1995   1.169   0.421   0.505  0.0625  1.0833 -0.1249
  167fsi     S1 1996   1.082   0.544   0.447  0.1953  0.1535  0.4957
  167fsi      N 1997   0.979   0.465   0.355 -0.2425 -0.1403 -0.6261
  167fsi     O1 1998   1.022   0.610   0.559  0.8715  0.6637 -0.2724
  167fsi     O2 1999   1.175   0.624   0.368 -0.0787 -0.2707 -0.3220
  167fsi     S2 2000   0.823   0.431   0.371  0.3960 -0.3515  0.0130
  167fsi     O3 2001   0.790   0.384   0.503  0.5453 -0.3600  0.6232
  167fsi     O4 2002   0.774   0.351   0.265  0.3016 -0.0597 -0.0285
  167fsi     F2 2003   0.753   0.572   0.354  0.4015 -0.4708  0.2405
  168fsi     F1 2004   0.864   2.723   1.348  0.1102  0.3350 -0.1916
  168fsi     S1 2005   0.854   2.800   1.211 -0.1221 -0.1611 -0.2844
  168fsi      N 2006   0.992   2.775   1.145 -0.0895 -0.2311  0.3974
  168fsi     O1 2007   0.738   2.753   1.149  0.0968 -0.6064  0.7571
  168fsi     O2 2008   0.854   2.942   1.248 -0.4285  0.1739  0.0878
  168fsi     S2 2009   1.034   2.697   1.011  0.2011 -0.1857 -0.0720
  168fsi     O3 2010   1.111   2.782   0.927  0.0775  0.4491  0.3092
  168fsi     O4 2011   0.923   2.620   0.951  0.2234  0.8072  0.1670
  168fsi     F2 2012   1.129   2.585   1.069  0.6428 -0.0444  0.7157
  169fsi     F1 2013   2.266   1.587   0.902 -0.0214  0.1642 -0.3683
  169fsi     S1 2014   2.406   1.584   0.971  0.0486 -0.1569 -0.2078
  169fsi      N 2015   2.415   1.441   1.025 -0.0084  0.2310  0.4346
  169fsi     O1 2016   2.503   1.607   0.871  0.1232  0.1169 -0.8393
  169fsi     O2 2017   2.389   1.683   1.069 -0.1556  0.9889  0.2899
  169fsi     S2 2018   2.440   1.297   0.965 -0.4411  0.1041 -0.0714
  169fsi     O3 2019   2.461   1.194   1.057 -0.1190  0.2093  0.4874
  169fsi     O4 2020   2.515   1.298   0.844  0.1219 -0.3988  0.3016
  169fsi     F2 2021   2.290   1.273   0.914 -0.0304 -0.0736 -0.8430
  170fsi     F1 2022   2.953   0.756   2.772  0.4836 -0.3801 -0.2458
  170fsi     S1 2023   2.984   0.795   2.927 -0.1681  0.2015 -0.3335
  170fsi      N 2024   3.045   0.937   2.911 -0.0550 -0.2919  0.1549
  170fsi     O1 2025   2.859   0.785   2.999  0.1912 -0.0787 -0.4819
  170fsi     O2 2026   3.091   0.705   2.967  0.5691 -0.2391 -0.0744
  170fsi     S2 2027   2.997   1.074   2.951  0.5847  0.2629  0.0312
  170fsi     O3 2028   2.855   1.088   2.972  0.6580  0.3912 -0.4368
  170fsi     O4 2029   3.067   1.187   2.891 -0.1439 -0.9732 -0.0747
  170fsi     F2 2030   3.048   1.085   3.096 -0.2064  0.3290 -0.2336
  171fsi     F1 2031   2.633   0.630   0.105 -0.2308 -0.5007  0.1331
  171fsi     S1 2032   2.518   0.726   0.136 -0.3939  0.3774  0.1822
  171fsi      N 2033   2.555   0.784   0.282 -0.4947 -0.2903 -0.0929
  171fsi     O1 2034   2.519   0.820   0.028 -0.4756 -0.2456 -0.4436
  171fsi     O2 2035   2.400   0.647   0.141 -0.4830  0.5237 -0.6544
  171fsi     S2 2036   2.629   0.911   0.319 -0.5087  0.2194 -0.4367
  171fsi     O3 2037   2.692   0.973   0.204 -0.4415  0.3016  0.1062
  171fsi     O4 2038   2.712   0.902   0.433  0.4033 -0.0081  0.3205
  171fsi     F2 2039   2.508   1.005   0.356  0.5011 -0.4506 -0.0128
  172fsi     F1 2040   2.421   0.026   1.347  0.3254  0.0431 -0.0135
  172fsi     S1 2041   2.384  -0.124   1.307 -0.2410  0.2579  0.1137
  172fsi      N 2042   2.417  -0.203   1.441  0.5425 -0.9319  0.5769
  172fsi     O1 2043   2.243  -0.129   1.276 -0.2839  0.4864  0.1845
  172fsi     O2 2044   2.477  -0.149   1.203 -0.0422  0.1400  0.5979
  172fsi     S2 2045   2.319  -0.255   1.551 -0.1268 -0.0285 -0.4104
  172fsi     O3 2046   2.177  -0.239   1.527  0.5946  0.7541  0.1015
  172fsi     O4 2047   2.375  -0.229   1.678  0.4003 -0.0433  0.2310
  172fsi     F2 2048   2.341  -0.412   1.531 -0.2853  0.3762  0.0064
  173fsi     F1 2049   0.251   0.402   0.067 -0.4420 -0.2646 -0.8623
  173fsi     S1 2050   0.361   0.406  -0.033  0.0194 -0.0612  0.1560
  173fsi      N 2051   0.392   0.562  -0.033  0.2333 -0.1180 -0.2245
  173fsi     O1 2052   0.462   0.316   0.021 -0.0697  0.4106  0.0642
  173fsi     O2 2053   0.298   0.358  -0.159 -0.1323  0.3157  0.0020
  173fsi     S2 2054   0.513   0.645   0.029  0.4916 -0.5511 -0.0968
  173fsi     O3 2055   0.607   0.556   0.092 -0.1846  0.1107 -0.2254
  173fsi     O4 2056   0.471   0.769   0.096 -0.0918  0.1663  0.4859
  173fsi     F2 2057   0.588   0.702  -0.094  0.0325 -0.5987  0.0989
  174fsi     F1 2058   0.525   0.379   1.438 -0.0438 -0.0984  0.7712
  174fsi     S1 2059   0.451   0.283   1.543  0.1638  0.0261 -0.1146
  174fsi      N 2060   0.513   0.147   1.512  0.4651 -0.5912 -0.7765
  174fsi     O1 2061   0.486   0.348   1.666 -0.3428 -0.1087  0.2210
  174fsi     O2 2062   0.315   0.288   1.496 -0.4307 -0.1272  0.2901
  174fsi     S2 2063   0.467   0.040   1.409  0.1091  0.3201  0.1402
  174fsi     O3 2064   0.382   0.081   1.301 -0.3001 -0.0658 -0.3426
  174fsi     O4 2065   0.438  -0.091   1.459 -0.3590 -0.0669  0.2984
  174fsi     F2 2066   0.601   0.005   1.340  0.1813  0.5843  0.3095
  175fsi     F1 2067   2.584   1.150   2.678 -0.1666 -0.0333 -0.0699
  175fsi     S1 2068   2.543   1.036   2.781  0.0386 -0.3354 -0.1466
  175fsi      N 2069   2.533   1.112   2.916 -0.3229 -0.1312 -0.2702
  175fsi     O1 2070   2.417   0.997   2.722  0.3856 -0.1014 -0.2953
  175fsi     O2 2071   2.656   0.942   2.774 -0.2581 -0.6329 -0.2548
  175fsi     S2 2072   2.425   1.214   2.966 -0.6142 -0.5434  0.1626
  175fsi     O3 2073   2.330   1.240   2.863  0.5165 -0.6353 -0.0595
  175fsi     O4 2074   2.474   1.331   3.029  0.8922  0.0861 -0.2312
  175fsi     F2 2075   2.348   1.143   3.078  0.4987  0.4726 -0.3098
  176fsi     F1 2076   2.483   2.034   1.026 -0.0243  0.2930 -0.3158
  176fsi     S1 2077   2.363   2.072   0.935  0.3901 -0.1028 -0.2045
  176fsi      N 2078   2.281   2.166   1.036  0.0441  0.0253 -0.0362
  176fsi     O1 2079   2.431   2.137   0.829 -0.3293  0.8401 -0.1162
  176fsi     O2 2080   2.306   1.945   0.911 -0.0338  0.3185 -0.4948
  176fsi     S2 2081   2.189   2.286   1.003  0.2752 -0.0950 -0.3190
  176fsi     O3 2082   2.088   2.303   1.104 -0.4348 -0.3676  0.1968
  176fsi     O4 2083   2.161   2.310   0.866  0.3119  0.0594 -0.0985
  176fsi     F2 2084   2.288   2.409   1.032 -0.0744  0.1453 -0.7133
  177fsi     F1 2085   1.716   0.996   1.750 -0.5827  0.1758  0.0154
  177fsi     S1 2086   1.831   1.050   1.827  0.1356 -0.2869  0.0646
  177fsi      N 2087   1.834   1.205   1.789 -0.0140 -0.3867 -0.0336
  177fsi     O1 2088   1.798   1.041   1.970 -0.2685  0.0810  0.1210
  177fsi     O2 2089   1.944   0.977   1.779  0.3972  0.7743 -0.0671
  177fsi     S2 2090   1.922   1.278   1.682  0.0679  0.0212 -0.0322
  177fsi     O3 2091   1.865   1.401   1.642  0.1135 -0.4806 -0.0178
  177fsi     O4 2092   1.963   1.190   1.577  0.3761  0.1994  0.0953
  177fsi     F2 2093   2.053   1.319   1.764 -0.1181  0.4046 -0.2499
  178fsi     F1 2094   1.348   1.884   1.872 -0.4133  0.4065  0.0075
  178fsi     S1 2095   1.226   1.788   1.869  0.3694 -0.1858 -0.1517
  178fsi      N 2096   1.105   1.885   1.848  0.0410  0.4758  0.0508
  178fsi     O1 2097   1.258   1.705   1.754  0.5787  0.0617  0.7259
  178fsi     O2 2098   1.232   1.725   1.998 -0.1767  0.6519  1.1693
  178fsi     S2 2099   1.004   1.937   1.959 -0.0817 -0.1571  0.0947
  178fsi     O3 2100   0.985   2.080   1.944  0.6495  0.2183 -0.1761
  178fsi     O4 2101   1.030   1.895   2.095  0.7019 -0.4030  0.0225
  178fsi     F2 2102   0.872   1.870   1.912 -0.1726  0.4200 -0.5746
  179fsi     F1 2103   0.666   0.362   2.197 -0.2217  0.1845  0.1758
  179fsi     S1 2104   0.551   0.456   2.135 -0.3317 -0.0184  0.5346
  179fsi      N 2105   0.597   0.604   2.153 -0.3014 -0.7427  0.5847
  179fsi     O1 2106   0.545   0.412   2.000  0.2484 -0.2382  0.3152
  179fsi     O2 2107   0.441   0.427   2.219  0.0087 -0.2522  0.1891
  179fsi     S2 2108   0.695   0.691   2.069 -0.0769 -0.1924 -0.0184
  179fsi     O3 2109   0.728   0.628   1.944 -0.0522 -0.3886  0.1333
  179fsi     O4 2110   0.799   0.767   2.134  0.0471  0.0095  0.2884
  179fsi     F2 2111   0.602   0.806   2.028 -0.1345 -0.5581  0.1106
  180fsi     F1 2112   0.634   0.159   2.821  0.0677  0.5299  0.0229
  180fsi     S1 2113   0.770   0.096   2.879 -0.0886  0.5660 -0.4139
  180fsi      N 2114   0.725  -0.054   2.913 -0.1991 -0.4578  0.7934
  180fsi     O1 2115   0.863   0.122   2.771  0.1632 -0.3657 -0.0351
  180fsi     O2 2116   0.791   0.167   3.003  0.0971 -0.1964  0.1782
  180fsi     S2 2117   0.763  -0.183   2.835 -0.0281  0.2573 -0.2244
  180fsi     O3 2118   0.810  -0.167   2.698  0.6517 -0.0836 -0.0698
  180fsi     O4 2119   0.680  -0.297   2.868  0.6897  0.2614  0.5548
  180fsi     F2 2120   0.899  -0.218   2.912  0.0592  0.3597  0.3327
  181fsi     F1 2121   0.621   1.882   0.479  0.0342  0.1423  0.0918
  181fsi     S1 2122   0.709   2.001   0.510 -0.0356 -0.2834  0.1132
  181fsi      N 2123   0.846   1.961   0.436  0.1673  0.8115  0.3004
  181fsi     O1 2124   0.640   2.117   0.467 -0.2989 -0.1512 -0.1252
  181fsi     O2 2125   0.738   1.990   0.647 -0.5044  0.5793 -0.0738
  181fsi     S2 2126   0.877   1.985   0.285 -0.3523  0.0076  0.1277
  181fsi     O3 2127   1.017   2.000   0.258  0.0326  0.1626 -0.0206
  181fsi     O4 2128   0.787   2.075   0.210 -0.5123 -0.5722  0.3929
  181fsi     F2 2129   0.846   1.843   0.222  0.3262  0.1728 -0.4725
  182fsi     F1 2130   2.644   2.284   3.003  0.5225  0.0249  0.0285
  182fsi     S1 2131   2.512   2.210   2.992  0.1553 -0.2075 -0.1424
  182fsi      N 2132   2.439   2.273   3.115  0.7499  1.1698  0.3202
  182fsi     O1 2133   2.453   2.248   2.863 -0.8156  0.2449 -0.0598
  182fsi     O2 2134   2.549   2.071   3.011  0.3335 -0.1898 -0.2318
  182fsi     S2 2135   2.394   2.210   3.253 -0.0264  0.3635 -0.4470
  182fsi     O3 2136   2.434   2.072   3.274 -0.2552  0.0480 -0.4086
  182fsi     O4 2137   2.257   2.240   3.287  1.2204 -0.5948  0.2818
  182fsi     F2 2138   2.479   2.293   3.357  0.2082 -0.8129  0.4956
  183fsi     F1 2139   2.653   2.524   0.125 -0.1541  0.5414 -0.5855
  183fsi     S1 2140   2.796   2.527   0.189  0.3353  0.1428  0.1126
  183fsi      N 2141   2.769   2.606   0.323 -0.1756  0.6430  0.1544
  183fsi     O1 2142   2.823   2.387   0.219  0.3018 -0.1521  0.1473
  183fsi     O2 2143   2.872   2.597   0.090  0.2571 -0.3358 -0.4063
  183fsi     S2 2144   2.846   2.729   0.375  0.3931  0.6107 -0.1611
  183fsi     O3 2145   2.762   2.802   0.464 -0.6362  0.0320 -0.1294
  183fsi     O4 2146   2.929   2.796   0.286 -0.4531 -0.1006  0.7155
  183fsi     F2 2147   2.946   2.650   0.470 -0.4573  0.5745  0.5701
  184fsi     F1 2148   0.037   0.710   2.535 -0.4609  0.2398 -0.2096
  184fsi     S1 2149   0.150   0.604   2.566 -0.0058  0.7500 -0.1793
  184fsi      N 2150   0.236   0.667   2.682 -0.0058 -0.4022  0.0292
  184fsi     O1 2151   0.079   0.493   2.620  0.2339  0.2482 -1.2050
  184fsi     O2 2152   0.212   0.591   2.438  0.4058 -0.5664 -0.1259
  184fsi     S2 2153   0.328   0.790   2.684  0.6284 -0.0015 -0.1432
  184fsi     O3 2154   0.339   0.853   2.813 -0.6217  0.2701  0.0465
  184fsi     O4 2155   0.317   0.871   2.568  0.1973  0.4953  0.9409
  184fsi     F2 2156   0.468   0.718   2.662  0.2225 -0.1558  0.1828
  185fsi     F1 2157   2.021   1.162   2.077  0.3518  0.5359 -0.1313
  185fsi     S1 2158   1.993   1.288   2.166 -0.1470  0.4967 -0.2671
  185fsi      N 2159   1.975   1.223   2.308  0.1555 -0.5435 -0.8142
  185fsi     O1 2160   2.111   1.369   2.144  0.4141 -0.2723 -0.3875
  185fsi     O2 2161   1.871   1.345   2.115  0.2540  0.4620  0.2511
  185fsi     S2 2162   2.095   1.200   2.408 -0.1287 -0.1484 -0.0008
  185fsi     O3 2163   2.048   1.133   2.530 -0.4185 -0.0457 -0.0506
  185fsi     O4 2164   2.184   1.307   2.429 -0.5907  0.2204  0.0689
  185fsi     F2 2165   2.182   1.095   2.336 -0.1192  0.0884 -0.3534
  186fsi     F1 2166   1.729   2.521   0.189  0.7369 -0.0321  0.1530
  186fsi     S1 2167   1.758   2.666   0.126  0.3686  0.5075 -0.3262
  186fsi      N 2168   1.635   2.685   0.038  0.0949  0.7022  0.2669
  186fsi     O1 2169   1.759   2.755   0.242  0.2077 -0.1539  0.2966
  186fsi     O2 2170   1.879   2.644   0.053 -0.1538 -0.0772  0.3042
  186fsi     S2 2171   1.513   2.780   0.039 -0.3723 -0.1750 -0.0602
  186fsi     O3 2172   1.516   2.868   0.154  0.2078  0.2703 -0.3968
  186fsi     O4 2173   1.382   2.722   0.001  0.5149  0.7249  0.0976
  186fsi     F2 2174   1.547   2.875  -0.091 -0.1169  0.1359 -0.7117
  187fsi     F1 2175   0.164   1.220   1.535 -0.7567 -0.3523  0.2740
  187fsi     S1 2176   0.224   1.185   1.675 -0.1319  0.1362  0.2632
  187fsi      N 2177   0.364   1.116   1.646  0.3289 -0.6823 -0.0424
  187fsi     O1 2178   0.230   1.322   1.721  0.1734 -0.6102  0.1440
  187fsi     O2 2179   0.121   1.100   1.730  0.2508  0.3353  0.2220
  187fsi     S2 2180   0.508   1.177   1.647  0.0170  0.2154  0.2300
  187fsi     O3 2181   0.513   1.315   1.685 -0.3248 -0.0505 -0.5696
  187fsi     O4 2182   0.594   1.135   1.539  0.3688 -0.5379  0.2756
  187fsi     F2 2183   0.576   1.108   1.768  0.3062  0.0934 -0.8212
  188fsi     F1 2184   1.650   0.930   1.016 -0.4348 -0.0551  0.3607
  188fsi     S1 2185   1.768   0.902   1.111  0.0059 -0.2713  0.4045
  188fsi      N 2186   1.757   0.989   1.237 -0.1902  0.0359 -0.2043
  188fsi     O1 2187   1.760   0.760   1.136  0.8478 -0.6520  0.3340
  188fsi     O2 2188   1.881   0.942   1.038  0.1057 -0.0972 -0.0982
  188fsi     S2 2189   1.707   0.960   1.378  0.3943 -0.4032  0.0330
  188fsi     O3 2190   1.813   0.950   1.477 -0.1763  0.1963 -0.4204
  188fsi     O4 2191   1.606   0.856   1.381 -0.2030  0.1720 -0.5799
  188fsi     F2 2192   1.621   1.091   1.407  0.8224  0.0897 -0.1731
  189fsi     F1 2193   1.784   2.110   2.339 -0.5801 -0.0443  0.1023
  189fsi     S1 2194   1.907   2.174   2.268 -0.0335 -0.3249  0.5172
  189fsi      N 2195   1.859   2.174   2.117 -0.4637 -0.2426  0.2049
  189fsi     O1 2196   1.927   2.303   2.335 -0.3242  0.5763 -0.2973
  189fsi     O2 2197   2.007   2.076   2.297  0.0249  0.9821 -0.7923
  189fsi     S2 2198   1.750   2.261   2.046 -0.1405  0.0535 -0.1374
  189fsi     O3 2199   1.772   2.295   1.909 -0.2691 -0.1193 -0.4362
  189fsi     O4 2200   1.695   2.366   2.130  1.2188  0.7652 -0.1547
  189fsi     F2 2201   1.641   2.155   2.033 -0.2030 -0.1421 -0.6665
  190fsi     F1 2202   2.917   0.084   2.261  0.1775 -0.3913 -0.5474
  190fsi     S1 2203   3.001   0.217   2.287  0.2950  0.2871 -0.4873
  190fsi      N 2204   2.919   0.325   2.214 -0.3308 -0.5568 -0.2034
  190fsi     O1 2205   3.007   0.233   2.427 -0.1275  0.1781 -0.1483
  190fsi     O2 2206   3.127   0.205   2.220 -0.8189  0.5261 -0.2767
  190fsi     S2 2207   2.828   0.438   2.277  0.4464 -0.2641  0.0809
  190fsi     O3 2208   2.765   0.398   2.399 -0.0929  0.0039 -0.8183
  190fsi     O4 2209   2.745   0.504   2.177  0.0938 -0.4337 -0.5313
  190fsi     F2 2210   2.928   0.551   2.326 -0.3296  0.0602 -0.7072
  191fsi     F1 2211   2.028   2.974   2.048  0.4008 -0.5238 -0.0575
  191fsi     S1 2212   2.071   2.894   1.916  0.5750  0.2066  0.1571
  191fsi      N 2213   1.988   2.758   1.926 -0.2487 -0.3134  0.2126
  191fsi     O1 2214   2.031   2.974   1.809 -0.5206 -0.8263  0.2075
  191fsi     O2 2215   2.214   2.884   1.932  0.4983 -0.0487  0.0564
  191fsi     S2 2216   1.831   2.737   1.921  0.3795 -0.1516 -0.0376
  191fsi     O3 2217   1.795   2.659   1.809  0.1415  0.4687 -0.0697
  191fsi     O4 2218   1.749   2.856   1.942 -0.0663  0.4522 -0.3344
  191fsi     F2 2219   1.802   2.655   2.054 -0.4005  0.0549  0.9460
  192fsi     F1 2220   0.955   1.873   0.915 -0.8415 -0.1197  0.0889
  192fsi     S1 2221   0.939   1.947   1.058 -0.2838  0.4157 -0.1775
  192fsi      N 2222   1.054   1.875   1.141  0.2734  0.5373  0.3038
  192fsi     O1 2223   0.965   2.085   1.025  0.0760  0.0405 -0.0660
  192fsi     O2 2224   0.806   1.920   1.102 -0.6303  0.5836 -0.1082
  192fsi     S2 2225   1.045   1.773   1.257  0.2334 -0.0329 -0.0585
  192fsi     O3 2226   0.919   1.773   1.325 -0.1918  0.1673 -0.2205
  192fsi     O4 2227   1.169   1.767   1.332 -0.6138  0.2099 -0.0564
  192fsi     F2 2228   1.046   1.643   1.185  0.1376 -0.2639  0.0093
  193fsi     F1 2229   2.422   0.730   1.852  0.2259  0.4624 -0.0495
  193fsi     S1 2230   2.537   0.649   1.777 -0.3062  0.0323  0.1339
  193fsi      N 2231   2.658   0.756   1.754  0.0911 -0.1496 -0.4386
  193fsi     O1 2232   2.558   0.539   1.872  1.2229 -0.5450  0.4069
  193fsi     O2 2233   2.469   0.610   1.651  0.0548 -0.0903 -0.7506
  193fsi     S2 2234   2.766   0.806   1.862  0.0589  0.5213  0.3887
  193fsi     O3 2235   2.893   0.837   1.812  0.3936  0.6443 -0.0088
  193fsi     O4 2236   2.767   0.734   1.987  0.3943 -0.5582 -0.8154
  193fsi     F2 2237   2.714   0.951   1.909  0.7247  0.7665  0.0480
  194fsi     F1 2238   0.678   2.435   1.282 -0.2422  0.1865  0.3119
  194fsi     S1 2239   0.626   2.306   1.371  0.0133 -0.2157  0.5829
  194fsi      N 2240   0.692   2.345   1.508  0.0036  0.1457  0.0281
  194fsi     O1 2241   0.479   2.313   1.374 -0.2151  0.6166 -0.2297
  194fsi     O2 2242   0.687   2.193   1.305  0.3780  0.1234 -0.0574
  194fsi     S2 2243   0.635   2.446   1.617 -0.4243 -0.1314 -0.2200
  194fsi     O3 2244   0.679   2.398   1.746  0.5191 -0.0018 -0.2439
  194fsi     O4 2245   0.504   2.499   1.608  0.8247  0.0063  0.7018
  194fsi     F2 2246   0.724   2.572   1.603  0.0291 -0.5407  0.0782
  195fsi     F1 2247   2.135   1.089   0.757 -0.0385  0.3686  0.2019
  195fsi     S1 2248   2.006   1.102   0.667 -0.2835  0.1015 -0.0861
  195fsi      N 2249   2.064   1.145   0.532  0.2405  0.3119  0.3941
  195fsi     O1 2250   1.955   0.969   0.669 -0.2584 -0.2176  0.4054
  195fsi     O2 2251   1.936   1.206   0.732  0.6172  0.0424  0.1180
  195fsi     S2 2252   2.078   1.054   0.406  0.0056 -0.1901 -0.0563
  195fsi     O3 2253   2.123   0.919   0.433 -0.6928 -0.5512  0.2967
  195fsi     O4 2254   2.133   1.124   0.294 -1.0418  0.4346  0.0400
  195fsi     F2 2255   1.928   1.036   0.358  0.4457 -0.2870  0.1002
  196fsi     F1 2256   2.306   0.433   1.087 -0.0647 -0.2677 -0.0115
  196fsi     S1 2257   2.414   0.371   1.180 -0.0161  0.2466  0.3122
  196fsi      N 2258   2.542   0.469   1.143 -0.5830  0.4891 -0.0167
  196fsi     O1 2259   2.362   0.393   1.313 -0.0787 -0.5012  0.4114
  196fsi     O2 2260   2.418   0.231   1.131  1.0062 -0.6101 -0.1133
  196fsi     S2 2261   2.618   0.577   1.228 -0.3498 -0.6189 -0.1040
  196fsi     O3 2262   2.596   0.580   1.372 -0.4925  0.1963  0.3385
  196fsi     O4 2263   2.624   0.708   1.162  0.2818  0.0762  0.3446
  196fsi     F2 2264   2.763   0.517   1.225  0.3953  0.3365 -0.2169
  197fsi     F1 2265   2.715   0.103   0.166 -0.0742 -0.4985  0.2957
  197fsi     S1 2266   2.621  -0.010   0.107  0.2865 -0.4038 -0.3762
  197fsi      N 2267   2.572  -0.090   0.235  0.1075  0.0483  0.6326
  197fsi     O1 2268   2.520   0.067   0.035 -0.0067  0.4684  0.5731
  197fsi     O2 2269   2.710  -0.097   0.037  0.8252 -0.7553 -0.0302
  197fsi     S2 2270   2.426  -0.115   0.295  0.2256  0.4096 -0.4326
  197fsi     O3 2271   2.319  -0.047   0.236  0.5540  0.2021  0.4100
  197fsi     O4 2272   2.433  -0.126   0.439  0.5848  0.1361 -0.2011
  197fsi     F2 2273   2.400  -0.267   0.253 -0.4166 -0.3088 -0.3668
  198fsi     F1 2274   2.213   1.945   2.043  0.9583 -0.2244  0.1178
  198fsi     S1 2275   2.295   1.849   2.143  0.0324  0.1501 -0.2360
  198fsi      N 2276   2.214   1.863   2.285 -0.5451  0.4195 -1.1882
  198fsi     O1 2277   2.290   1.718   2.077 -0.5927 -0.5191  0.2257
  198fsi     O2 2278   2.424   1.908   2.143  0.0212  0.1233  0.4385
  198fsi     S2 2279   2.132   1.759   2.369  0.3168 -0.0539 -0.0397
  198fsi     O3 2280   2.114   1.798   2.507  0.3188 -0.8561  0.7292
  198fsi     O4 2281   2.162   1.617   2.343  0.9942  0.1813  0.1718
  198fsi     F2 2282   1.985   1.773   2.301 -0.3587 -0.3271  0.6452
  199fsi     F1 2283   0.764   0.684   0.882  0.7006 -0.0849 -0.4396
  199fsi     S1 2284   0.620   0.623   0.891  0.2830 -0.0223 -0.2423
  199fsi      N 2285   0.541   0.722   0.792 -0.2087 -0.5398  0.0758
  199fsi     O1 2286   0.636   0.490   0.847 -0.2400  0.3917 -0.1948
  199fsi     O2 2287   0.583   0.642   1.025  0.1321  0.3747  0.3664
  199fsi     S2 2288   0.394   0.770   0.803 -0.1653 -0.2284  0.6628
  199fsi     O3 2289   0.373   0.894   0.729 -0.4199 -0.0178 -0.5092
  199fsi     O4 2290   0.340   0.755   0.939  0.1956 -0.6044  0.1166
  199fsi     F2 2291   0.316   0.652   0.727  0.6058 -0.4872  0.4140
  200fsi     F1 2292   2.241   2.339   1.984 -0.1319 -0.1891 -0.3956
  200fsi     S1 2293   2.149   2.462   1.952 -0.0559 -0.4226  0.0061
  200fsi      N 2294   2.048   2.403   1.851 -0.4281 -0.5860  0.0249
  200fsi     O1 2295   2.080   2.489   2.080  0.2060  0.1168 -0.6448
  200fsi     O2 2296   2.231   2.566   1.894  0.1145 -0.0243 -0.6644
  200fsi     S2 2297   2.053   2.387   1.697 -0.4007 -0.2125 -0.0867
  200fsi     O3 2298   1.935   2.334   1.636 -0.4674  0.3561  0.2588
  200fsi     O4 2299   2.176   2.318   1.659 -0.0056 -0.2852 -0.0532
  200fsi     F2 2300   2.067   2.539   1.649  0.0511  0.0368 -0.0724
   3.01229   3.01229   3.01229
