L1P2 short trajectory practice
 2050
    1Li+     Li    1   1.407   2.864   2.083  0.5383 -1.5814  0.4984
    2Li+     Li    2   4.329   2.325   3.225 -0.6099 -0.1461 -0.0332
    3Li+     Li    3   1.821   4.611   6.078  0.3755  0.3201 -0.3873
    4Li+     Li    4   1.570   4.953   1.520 -0.4752  0.6562  0.1721
    5Li+     Li    5   1.972   5.198   1.547 -0.5210 -1.3486 -1.4347
    6Li+     Li    6   2.210   5.424   2.774  0.2740  0.1999  0.8610
    7Li+     Li    7   4.821   1.056   3.306  0.6366  0.2880 -0.2700
    8Li+     Li    8   4.177   1.142   2.356  0.8532 -0.1644 -0.5433
    9Li+     Li    9   2.809   0.564   1.474  0.5141 -0.4365  0.2187
   10Li+     Li   10   2.009   3.756   2.191  0.3791  0.2198  0.0291
   11Li+     Li   11   1.314   2.333   2.043  1.1991  0.8069 -0.1807
   12Li+     Li   12   3.210   1.646   1.583 -0.6119 -0.2058 -0.2042
   13Li+     Li   13   4.905   0.539   3.132 -0.2722 -1.0467 -0.5467
   14Li+     Li   14   2.656   6.291   3.387 -0.2059  0.5537 -0.3774
   15Li+     Li   15   2.437   0.767   2.417 -1.1375 -0.8060 -0.3900
   16Li+     Li   16   1.886   3.002   2.206 -0.7171 -0.8812  0.7502
   17Li+     Li   17   4.527   1.373   2.314 -0.6962 -0.7755  0.5690
   18Li+     Li   18   4.210   0.628   2.626 -0.0449  0.1097  0.0084
   19Li+     Li   19   2.070   4.998   5.770 -0.2610 -0.7313 -0.9748
   20Li+     Li   20   4.915   5.269   6.219  0.3248  0.3785 -0.0321
   21Li+     Li   21   2.846   6.017   3.867  1.0548 -1.1703 -0.2219
   22Li+     Li   22   2.667   4.976   5.810 -0.6469  1.3295  0.2146
   23Li+     Li   23   4.541   5.049   5.478 -0.5685  0.6647 -0.2548
   24Li+     Li   24   1.699   2.935   1.659  0.6047 -0.4019  0.5140
   25Li+     Li   25   2.988   5.752   3.396 -0.8909  0.0011 -0.3902
   26c3c     N4   26   3.197   4.287   4.718 -0.3149  0.1781 -0.0478
   26c3c     C1   27   3.309   4.362   4.661 -0.5017 -0.1369 -0.4381
   26c3c     C1   28   3.190   4.175   4.627 -0.5671  0.0793 -0.2002
   26c3c     C2   29   3.414   4.259   4.626 -0.1744 -0.0392  0.1331
   26c3c     C2   30   3.331   4.145   4.568 -0.2856  0.0433 -0.5641
   26c3c     C1   31   3.224   4.246   4.858 -0.5626 -0.5397 -0.2968
   26c3c     C1   32   3.071   4.362   4.722 -0.0928 -0.0937 -0.9198
   26c3c     H1   33   3.344   4.448   4.717 -0.1120  0.4834 -1.6076
   26c3c     H1   34   3.287   4.412   4.566  1.1646  0.3344 -0.5921
   26c3c     H1   35   3.145   4.084   4.666 -0.0418 -0.3708 -0.6391
   26c3c     H1   36   3.129   4.193   4.538  1.8035 -1.6705 -2.2432
   26c3c     HC   37   3.468   4.225   4.715 -1.2540 -0.2263  0.7195
   26c3c     HC   38   3.482   4.285   4.545 -1.0246 -1.4220 -1.0495
   26c3c     HC   39   3.371   4.050   4.603 -0.2110 -0.5019 -2.0746
   26c3c     HC   40   3.326   4.142   4.459  1.5410  1.0316 -0.6985
   26c3c     H1   41   3.240   4.335   4.918 -1.5901  0.8515 -2.0449
   26c3c     H1   42   3.145   4.190   4.908  0.6784 -0.8145  1.3941
   26c3c     H1   43   3.315   4.185   4.864 -1.2020 -1.5988 -1.1348
   26c3c     H1   44   2.997   4.288   4.754  0.4754 -0.2229  0.1277
   26c3c     H1   45   3.074   4.438   4.800 -0.2536  0.2170 -1.2183
   26c3c     C2   46   3.017   4.431   4.590  0.8759  0.4815 -0.3022
   26c3c     HC   47   2.992   4.359   4.513  1.3072  1.2971 -1.2230
   26c3c     HC   48   3.090   4.499   4.545 -0.3182  2.4537  0.6428
   26c3c     CT   49   2.899   4.519   4.618  1.9086  0.4472 -0.3766
   26c3c     HC   50   2.856   4.558   4.526  0.0500 -2.0015 -0.5878
   26c3c     HC   51   2.924   4.606   4.679 -0.8448  0.2330  1.1318
   26c3c     HC   52   2.819   4.474   4.677  1.9711  1.4022  0.4479
   27c3c     N4   53   3.138   1.263   2.499  0.5076 -0.0103 -0.2528
   27c3c     C1   54   3.262   1.329   2.538  0.1252  0.5258 -0.2525
   27c3c     C1   55   3.127   1.157   2.603  0.5126 -0.5067 -0.3155
   27c3c     C2   56   3.294   1.306   2.685 -0.2829 -0.8114  0.0174
   27c3c     C2   57   3.189   1.213   2.739  0.1027 -0.8441  0.6498
   27c3c     C1   58   3.032   1.361   2.522  0.1184 -0.1361 -0.4880
   27c3c     C1   59   3.131   1.217   2.358 -0.1209 -0.2026 -0.4849
   27c3c     H1   60   3.268   1.436   2.515  0.1541  0.6533  0.3236
   27c3c     H1   61   3.349   1.296   2.481  0.0247  1.5950 -1.0412
   27c3c     H1   62   3.024   1.127   2.619  0.5755 -0.2817  0.5761
   27c3c     H1   63   3.180   1.067   2.572  1.4216 -0.1279  0.0986
   27c3c     HC   64   3.292   1.399   2.740 -0.3448 -1.2567  0.7764
   27c3c     HC   65   3.394   1.264   2.693  0.2121  0.5020  0.7797
   27c3c     HC   66   3.118   1.268   2.800  0.2881 -0.1462  0.2440
   27c3c     HC   67   3.238   1.131   2.792  1.0807 -1.2712 -0.8566
   27c3c     H1   68   3.026   1.437   2.445  0.0308  0.1789 -0.1723
   27c3c     H1   69   2.932   1.319   2.526  0.6673 -1.4654 -0.5868
   27c3c     H1   70   3.054   1.412   2.617 -0.7537  0.3576 -0.5516
   27c3c     H1   71   3.034   1.168   2.345 -0.7392  0.8409  0.1180
   27c3c     H1   72   3.130   1.309   2.300 -2.2314  0.3439  0.3594
   27c3c     C2   73   3.242   1.122   2.311 -0.1696 -0.0634 -0.2653
   27c3c     HC   74   3.242   1.032   2.372 -1.6905  0.1295  0.0254
   27c3c     HC   75   3.339   1.173   2.321 -0.2561 -0.2871  2.0942
   27c3c     CT   76   3.231   1.075   2.165  0.4592  0.8841 -0.2620
   27c3c     HC   77   3.329   1.039   2.132  0.3209  0.4049 -0.1558
   27c3c     HC   78   3.199   1.158   2.103  1.6613  1.8841  0.4239
   27c3c     HC   79   3.149   1.004   2.151  0.1050  1.1439  0.4431
   28c3c     N4   80   1.940   1.713   3.865 -0.0560 -0.1225 -0.0758
   28c3c     C1   81   2.018   1.783   3.967 -0.6714 -0.0648 -0.2526
   28c3c     C1   82   1.805   1.741   3.910 -0.0318  0.3141  0.3528
   28c3c     C2   83   1.948   1.921   3.995  0.2787  0.1850  0.6701
   28c3c     C2   84   1.804   1.890   3.951  0.9188  0.2976 -0.1368
   28c3c     C1   85   1.965   1.784   3.735  0.2364 -0.2751  0.5748
   28c3c     C1   86   1.967   1.566   3.860 -0.9796 -0.2726 -0.0316
   28c3c     H1   87   2.124   1.785   3.942 -0.2682  0.2679  1.4155
   28c3c     H1   88   2.014   1.730   4.062  1.8848  0.5495  0.2197
   28c3c     H1   89   1.730   1.708   3.837  0.1499 -0.4487  0.5033
   28c3c     H1   90   1.780   1.689   4.002 -1.1885  1.8894  0.9426
   28c3c     HC   91   1.987   2.009   3.944  0.6199  0.9104  2.1581
   28c3c     HC   92   1.959   1.953   4.099  2.6269  0.5556  0.3177
   28c3c     HC   93   1.771   1.954   3.869  2.7784 -0.1484 -1.2809
   28c3c     HC   94   1.729   1.909   4.028  0.5721  1.0317 -0.6507
   28c3c     H1   95   2.071   1.776   3.710 -0.1507 -1.1355 -0.8775
   28c3c     H1   96   1.914   1.742   3.648 -2.2723  1.3074  1.2289
   28c3c     H1   97   1.934   1.888   3.733 -0.6545 -0.5269  1.0623
   28c3c     H1   98   1.929   1.529   3.765  0.6808 -1.2374 -0.3485
   28c3c     H1   99   2.073   1.544   3.848 -1.0771 -0.5456 -0.4060
   28c3c     C2  100   1.915   1.474   3.971 -0.6220 -0.1600 -0.0090
   28c3c     HC  101   1.808   1.458   3.954 -0.8024 -0.6214  1.4931
   28c3c     HC  102   1.916   1.514   4.072 -0.5583 -0.2652  0.0320
   28c3c     CT  103   1.989   1.333   3.972 -0.3144  0.7716 -0.0084
   28c3c     HC  104   2.000   1.294   3.870 -0.4334  0.3362  0.1444
   28c3c     HC  105   1.928   1.261   4.027  0.4624 -0.2902 -0.5170
   28c3c     HC  106   2.088   1.341   4.015 -0.3199 -0.3812  0.2290
   29c3c     N4  107   5.395   4.905   5.528 -0.6190  0.0888 -0.1068
   29c3c     C1  108   5.533   4.863   5.567 -0.2124  0.2311 -0.3520
   29c3c     C1  109   5.421   5.034   5.462 -0.1887 -0.3363  0.5219
   29c3c     C2  110   5.628   4.902   5.455 -0.6410  0.3682  0.0482
   29c3c     C2  111   5.554   5.020   5.388 -0.5068  0.1136 -0.0988
   29c3c     C1  112   5.341   4.814   5.429  0.2072 -0.0839 -0.1104
   29c3c     C1  113   5.295   4.920   5.638  0.1873 -0.2779 -0.1110
   29c3c     H1  114   5.531   4.757   5.592 -0.8810  0.0932 -0.9781
   29c3c     H1  115   5.564   4.914   5.658  0.6493  1.0238 -1.0762
   29c3c     H1  116   5.340   5.062   5.394  0.2729  1.7392  0.7941
   29c3c     H1  117   5.434   5.115   5.533  0.7797  0.2776 -0.3409
   29c3c     HC  118   5.634   4.819   5.385  0.2180 -0.0830  0.6474
   29c3c     HC  119   5.729   4.920   5.493 -1.0612  1.7239  0.5608
   29c3c     HC  120   5.536   4.993   5.284  1.5162 -0.5752 -0.3076
   29c3c     HC  121   5.611   5.113   5.382 -0.0180 -0.1317  0.5971
   29c3c     H1  122   5.299   4.723   5.472 -0.6950  0.6855  0.6477
   29c3c     H1  123   5.257   4.860   5.378  0.2419  0.6710  0.4922
   29c3c     H1  124   5.408   4.789   5.347  0.1167  0.6134 -0.4026
   29c3c     H1  125   5.199   4.951   5.599  0.5693 -0.1475 -0.9716
   29c3c     H1  126   5.278   4.819   5.676 -0.6140 -0.1428 -0.1177
   29c3c     C2  127   5.330   5.012   5.760 -0.0645  0.0026  0.5536
   29c3c     HC  128   5.422   5.068   5.747  0.0242 -0.6087 -1.6201
   29c3c     HC  129   5.350   4.948   5.846 -0.2532 -0.8904 -0.0544
   29c3c     CT  130   5.218   5.115   5.786  0.2238 -0.0289  0.5430
   29c3c     HC  131   5.219   5.200   5.718  0.0419  0.1039  0.7010
   29c3c     HC  132   5.236   5.163   5.882 -1.5176  1.8040 -0.0129
   29c3c     HC  133   5.121   5.066   5.786  0.5717 -0.7296 -0.8647
   30c3c     N4  134   4.017   1.263   4.549  0.4298  0.0323 -0.4586
   30c3c     C1  135   4.054   1.367   4.453 -0.0730 -0.4035 -0.0636
   30c3c     C1  136   4.143   1.238   4.626 -0.5281 -0.8495 -0.3572
   30c3c     C2  137   4.161   1.454   4.521 -0.3283  0.1362 -0.4838
   30c3c     C2  138   4.199   1.378   4.647 -0.1626 -0.0535 -0.4182
   30c3c     C1  139   3.918   1.321   4.645  0.3020  0.1025  0.0279
   30c3c     C1  140   3.953   1.144   4.485 -0.4128  0.3811 -0.5545
   30c3c     H1  141   3.975   1.430   4.412 -0.9196 -2.5606 -1.8496
   30c3c     H1  142   4.110   1.325   4.370  0.0744 -1.1677  0.4196
   30c3c     H1  143   4.125   1.181   4.717  0.3941  0.8253  0.9058
   30c3c     H1  144   4.212   1.182   4.564  0.4069  0.2548 -0.3366
   30c3c     HC  145   4.124   1.554   4.545 -1.8212 -0.4423 -0.2620
   30c3c     HC  146   4.238   1.467   4.446 -0.4633  0.5107 -0.5589
   30c3c     HC  147   4.165   1.429   4.737  1.0544 -0.6436  0.3842
   30c3c     HC  148   4.306   1.373   4.663 -0.0645  1.2908 -0.6543
   30c3c     H1  149   3.820   1.333   4.598  1.0089  3.3350 -0.7277
   30c3c     H1  150   3.904   1.254   4.730  0.5431 -0.1876 -0.1559
   30c3c     H1  151   3.954   1.414   4.688  1.9769 -1.1028  1.3251
   30c3c     H1  152   3.902   1.080   4.558  0.6476 -2.4416 -2.2298
   30c3c     H1  153   3.874   1.187   4.423  0.6688  2.0263 -0.8124
   30c3c     C2  154   4.042   1.062   4.392 -0.4523 -0.3292 -0.4204
   30c3c     HC  155   4.110   1.000   4.452  0.2645  1.3486  0.5398
   30c3c     HC  156   4.105   1.127   4.332 -0.7838  0.1911 -0.2114
   30c3c     CT  157   3.971   0.966   4.291 -0.4568  0.2769 -0.5664
   30c3c     HC  158   4.035   0.921   4.215 -0.5395  0.5667 -0.8086
   30c3c     HC  159   3.893   1.013   4.230 -1.4621 -0.5723  0.0533
   30c3c     HC  160   3.921   0.885   4.343  2.1575 -1.1912 -0.2685
   31c3c     N4  161   4.944   6.099   6.325  0.3031  0.3322 -0.4051
   31c3c     C1  162   4.864   6.051   6.214  0.0375  0.7497  0.2942
   31c3c     C1  163   4.841   6.165   6.411 -0.7081  0.7598 -0.4507
   31c3c     C2  164   4.732   6.010   6.263 -0.2046  0.3061  0.1752
   31c3c     C2  165   4.713   6.080   6.395 -0.1136  0.6082 -0.6755
   31c3c     C1  166   5.004   5.992   6.402 -0.4389  0.4426 -0.6630
   31c3c     C1  167   5.050   6.199   6.289  0.3930  1.0335 -0.0680
   31c3c     H1  168   4.920   5.973   6.162 -0.7166  0.2378  0.2472
   31c3c     H1  169   4.839   6.128   6.141 -0.7858 -0.9266 -1.2369
   31c3c     H1  170   4.880   6.176   6.512 -0.2505  1.0111 -0.6552
   31c3c     H1  171   4.815   6.267   6.381 -1.7602  0.0454 -2.0215
   31c3c     HC  172   4.723   5.902   6.279  1.0471  0.1477 -0.1336
   31c3c     HC  173   4.653   6.035   6.192  0.7903  0.0859 -1.0178
   31c3c     HC  174   4.704   6.007   6.475  0.1611  0.3459 -0.8847
   31c3c     HC  175   4.622   6.140   6.398  0.0059  0.8043 -0.8906
   31c3c     H1  176   5.077   5.936   6.343 -2.1667 -1.4596 -1.0334
   31c3c     H1  177   5.048   6.030   6.494  0.7285  0.5318 -1.2464
   31c3c     H1  178   4.928   5.921   6.434 -0.0496  1.0717  1.7568
   31c3c     H1  179   5.080   6.247   6.382 -0.0612  1.3619 -0.0928
   31c3c     H1  180   5.136   6.152   6.239  0.7411  1.9326 -0.3153
   31c3c     C2  181   5.011   6.308   6.190 -0.7522  0.9651 -0.6962
   31c3c     HC  182   4.922   6.358   6.227 -0.8074 -0.3227  0.9655
   31c3c     HC  183   4.986   6.265   6.092  0.1791 -2.4734  0.5241
   31c3c     CT  184   5.119   6.414   6.168 -0.4039  0.5408 -0.5298
   31c3c     HC  185   5.203   6.379   6.107 -0.3627  3.2470 -2.1441
   31c3c     HC  186   5.159   6.451   6.263 -0.5443  0.0487 -0.2821
   31c3c     HC  187   5.072   6.498   6.116  0.4148  1.4994  0.2436
   32c3c     N4  188   2.112   2.217   3.129  0.3410 -0.1444  0.2640
   32c3c     C1  189   2.210   2.268   3.037 -0.0267  0.0611 -1.2019
   32c3c     C1  190   2.030   2.130   3.041  0.3143 -0.4067 -0.1957
   32c3c     C2  191   2.255   2.147   2.947 -0.0299  0.2531 -1.0540
   32c3c     C2  192   2.126   2.060   2.944  0.4416 -0.9060 -0.2697
   32c3c     C1  193   2.165   2.129   3.231  0.4625 -0.0574 -0.2164
   32c3c     C1  194   2.033   2.327   3.189  0.4182 -0.0355 -0.0315
   32c3c     H1  195   2.289   2.318   3.093 -0.4819  1.1180 -1.4823
   32c3c     H1  196   2.171   2.347   2.973 -1.2236 -0.8997 -1.6851
   32c3c     H1  197   1.969   2.060   3.098 -0.6309  0.1405 -0.5100
   32c3c     H1  198   1.962   2.195   2.985  0.9012  0.4126  0.0220
   32c3c     HC  199   2.339   2.091   2.989  0.2212  0.1785 -1.6512
   32c3c     HC  200   2.290   2.178   2.849 -1.0596  1.5086 -1.0345
   32c3c     HC  201   2.154   1.957   2.966  1.8114 -0.7229 -1.0803
   32c3c     HC  202   2.088   2.071   2.842  1.1524  1.6107 -0.3190
   32c3c     H1  203   2.221   2.190   3.303 -0.2011 -0.2303  0.4547
   32c3c     H1  204   2.087   2.082   3.291  1.8323 -0.7608  1.0322
   32c3c     H1  205   2.237   2.058   3.191  1.0106  0.8422 -0.8761
   32c3c     H1  206   1.947   2.283   3.239  0.6223  0.9090  1.1859
   32c3c     H1  207   2.089   2.375   3.270  0.5623  0.4242 -0.4023
   32c3c     C2  208   1.993   2.446   3.096 -0.1154 -0.3478 -0.1178
   32c3c     HC  209   1.948   2.418   3.001 -0.1034 -0.2481 -0.1532
   32c3c     HC  210   2.077   2.513   3.079  1.7209 -2.4451  0.4568
   32c3c     CT  211   1.888   2.528   3.177 -0.3059 -0.1313 -0.1996
   32c3c     HC  212   1.911   2.537   3.283 -1.1565  2.6157 -0.1916
   32c3c     HC  213   1.792   2.476   3.176  0.8924 -2.4100  1.3388
   32c3c     HC  214   1.866   2.625   3.131 -0.5754 -0.8504 -1.6091
   33c3c     N4  215   5.917   3.906   4.699 -0.1651  0.1394  0.0746
   33c3c     C1  216   5.916   4.038   4.762 -0.3111  0.2228 -0.4407
   33c3c     C1  217   6.025   3.833   4.766  0.2553 -0.1459 -0.9199
   33c3c     C2  218   5.928   4.006   4.913 -0.5312  0.2961 -0.4718
   33c3c     C2  219   6.014   3.877   4.915  0.7306  1.1344 -0.8356
   33c3c     C1  220   5.785   3.838   4.708  0.1883  0.0858  0.0352
   33c3c     C1  221   5.942   3.925   4.555  0.6872 -0.3770  0.1569
   33c3c     H1  222   5.829   4.100   4.740 -1.4960 -1.2900 -0.0955
   33c3c     H1  223   6.004   4.095   4.730 -0.4024  0.0338 -1.0361
   33c3c     H1  224   6.016   3.725   4.757  0.1661 -0.1794 -0.4150
   33c3c     H1  225   6.128   3.861   4.742  1.0420 -1.6473  0.5974
   33c3c     HC  226   5.828   3.987   4.953 -0.9020  0.7779 -1.1597
   33c3c     HC  227   5.976   4.086   4.968 -1.0409  0.3812 -0.1432
   33c3c     HC  228   5.968   3.804   4.980  2.0482  0.9396 -0.0955
   33c3c     HC  229   6.112   3.897   4.960  0.4605  1.5389 -0.4214
   33c3c     H1  230   5.703   3.895   4.665 -0.1987 -0.2801  0.2932
   33c3c     H1  231   5.782   3.746   4.650  1.4799 -0.1187  0.2617
   33c3c     H1  232   5.749   3.812   4.807  1.8794 -0.5741  0.4901
   33c3c     H1  233   5.909   3.836   4.502  1.4464 -1.5997  1.7020
   33c3c     H1  234   5.875   4.003   4.519 -0.3012 -0.5395  1.5860
   33c3c     C2  235   6.086   3.944   4.511  0.4865  0.3108 -0.5042
   33c3c     HC  236   6.135   3.848   4.493  0.0862  0.2869 -1.5373
   33c3c     HC  237   6.151   4.000   4.578  1.6643  1.0116 -2.1812
   33c3c     CT  238   6.088   4.023   4.380  0.0009 -0.0057  0.0803
   33c3c     HC  239   6.023   3.982   4.303 -0.1358  0.1763  0.0984
   33c3c     HC  240   6.188   4.021   4.338 -1.0500 -2.8471 -2.4233
   33c3c     HC  241   6.064   4.129   4.389  1.1692  0.2283  0.4504
   34c3c     N4  242   1.020   2.857   1.588 -0.2137 -0.4564  0.4811
   34c3c     C1  243   1.041   2.826   1.731 -0.7603 -0.4310 -0.1824
   34c3c     C1  244   0.876   2.879   1.570  0.8657  0.6479  0.0889
   34c3c     C2  245   0.942   2.922   1.804 -0.2251  0.2867 -0.4071
   34c3c     C2  246   0.829   2.953   1.699 -0.7561  0.4978  0.0191
   34c3c     C1  247   1.089   2.981   1.562  0.4078 -0.4748 -0.1027
   34c3c     C1  248   1.077   2.757   1.495  0.3401  0.5604 -0.0093
   34c3c     H1  249   1.147   2.834   1.755 -0.7649 -0.8420 -0.0253
   34c3c     H1  250   1.008   2.726   1.757  0.6266 -0.7690  0.3417
   34c3c     H1  251   0.860   2.935   1.478  2.3360  0.4859 -0.2895
   34c3c     H1  252   0.823   2.786   1.550  1.4593  0.5584 -1.1103
   34c3c     HC  253   0.986   3.018   1.832 -1.4523  1.0048 -0.9162
   34c3c     HC  254   0.902   2.876   1.894 -0.9571  1.5361 -0.0832
   34c3c     HC  255   0.827   3.061   1.682 -0.6552  0.3866 -0.7237
   34c3c     HC  256   0.734   2.919   1.740 -0.9711  0.8907 -0.1532
   34c3c     H1  257   1.195   2.980   1.586 -0.2616 -1.6592  3.0687
   34c3c     H1  258   1.075   3.006   1.457  2.2431 -1.4964 -0.6126
   34c3c     H1  259   1.052   3.062   1.624  1.1432  0.5232 -0.9472
   34c3c     H1  260   1.053   2.791   1.394  1.4036  1.1810 -0.0596
   34c3c     H1  261   1.185   2.769   1.489  0.4771 -0.3440  0.4355
   34c3c     C2  262   1.037   2.610   1.511  0.4503  0.8522 -0.0444
   34c3c     HC  263   0.936   2.588   1.477  0.5156  0.5497 -0.0417
   34c3c     HC  264   1.040   2.582   1.616  1.0087  2.2194  0.3233
   34c3c     CT  265   1.135   2.523   1.428 -0.0879  0.0414  0.5975
   34c3c     HC  266   1.102   2.420   1.421 -1.5705  0.5209  0.3386
   34c3c     HC  267   1.234   2.523   1.474 -0.0862 -0.1164  0.5919
   34c3c     HC  268   1.137   2.558   1.325  0.2627 -0.6540  0.3654
   35c3c     N4  269   3.243   4.318   5.962  0.3569  0.4151 -0.0163
   35c3c     C1  270   3.356   4.286   6.057  0.7665  0.4639  0.2127
   35c3c     C1  271   3.244   4.469   5.962  0.1688 -0.0917 -0.0329
   35c3c     C2  272   3.465   4.386   6.026  0.8860  0.2893  0.4448
   35c3c     C2  273   3.392   4.509   5.978  0.6139 -0.2467 -0.0115
   35c3c     C1  274   3.278   4.274   5.827 -0.0114  0.1898  0.0926
   35c3c     C1  275   3.122   4.245   6.001  0.1545  0.2243  0.1699
   35c3c     H1  276   3.395   4.186   6.037  1.3568  0.4846  1.2040
   35c3c     H1  277   3.324   4.302   6.160  0.7182  1.8021  0.0037
   35c3c     H1  278   3.193   4.523   5.881  0.9412  0.7090  0.0106
   35c3c     H1  279   3.181   4.506   6.043 -0.2901  0.3298 -0.5727
   35c3c     HC  280   3.522   4.346   5.942  0.8704  1.2560 -0.0456
   35c3c     HC  281   3.525   4.407   6.114  3.1038  1.2212 -1.2215
   35c3c     HC  282   3.444   4.540   5.888  1.5962  0.6089  0.8376
   35c3c     HC  283   3.399   4.588   6.053  1.3699 -0.1800 -0.1555
   35c3c     H1  284   3.260   4.168   5.812  1.7726 -0.1642  0.4363
   35c3c     H1  285   3.211   4.322   5.755 -0.6432  1.6300  1.5838
   35c3c     H1  286   3.378   4.292   5.789  0.4590  0.3228  1.3838
   35c3c     H1  287   3.042   4.268   5.930  0.4947 -1.6726 -0.8481
   35c3c     H1  288   3.135   4.137   5.994  2.0029  0.4494  0.0184
   35c3c     C2  289   3.055   4.280   6.137  0.6788  0.5102 -0.5365
   35c3c     HC  290   3.041   4.388   6.140 -1.7501  0.2176 -0.3807
   35c3c     HC  291   3.119   4.251   6.221  1.9210  1.0340 -1.2970
   35c3c     CT  292   2.913   4.230   6.150  0.6262 -0.6405 -0.3751
   35c3c     HC  293   2.915   4.121   6.155  0.4799 -0.6409 -0.3111
   35c3c     HC  294   2.850   4.269   6.071  0.3502 -0.1623  0.0822
   35c3c     HC  295   2.882   4.262   6.250 -0.7231  0.2309 -1.0674
   36c3c     N4  296   3.237   0.055   3.437 -0.0306 -0.6357 -0.1975
   36c3c     C1  297   3.267   0.138   3.320 -0.4162 -0.3249  0.0872
   36c3c     C1  298   3.141  -0.037   3.383  0.4892  0.1716  0.4530
   36c3c     C2  299   3.273   0.047   3.195 -0.2472 -0.9996  0.3268
   36c3c     C2  300   3.197  -0.078   3.242  0.4702 -0.0494 -0.1644
   36c3c     C1  301   3.361  -0.011   3.486  0.1172  0.8029 -0.8925
   36c3c     C1  302   3.188   0.136   3.556 -0.0187 -0.1790  0.0035
   36c3c     H1  303   3.359   0.194   3.337 -1.0053  0.7546 -0.2425
   36c3c     H1  304   3.188   0.212   3.309 -2.1180 -2.0605  0.4494
   36c3c     H1  305   3.129  -0.125   3.446  0.3946  0.6428  1.0933
   36c3c     H1  306   3.043   0.009   3.367  0.8174  1.6598  2.5928
   36c3c     HC  307   3.376   0.021   3.170  0.2429  0.7161  0.5255
   36c3c     HC  308   3.223   0.098   3.112 -1.0478  0.2446  1.5676
   36c3c     HC  309   3.265  -0.161   3.257 -0.2881 -0.5949  0.3240
   36c3c     HC  310   3.115  -0.115   3.180  0.0683 -0.7151  0.7520
   36c3c     H1  311   3.417   0.062   3.544 -0.4178  0.4754  0.0501
   36c3c     H1  312   3.344  -0.099   3.549 -3.0096  1.9611 -0.0349
   36c3c     H1  313   3.421  -0.044   3.401  0.2352 -2.7121  0.4408
   36c3c     H1  314   3.192   0.072   3.644  1.6710  1.4543  1.1501
   36c3c     H1  315   3.258   0.218   3.575  0.4907 -0.2773 -1.3436
   36c3c     C2  316   3.051   0.201   3.538 -0.3220 -0.2107 -0.0062
   36c3c     HC  317   2.959   0.142   3.534 -0.4987  0.1235 -1.1340
   36c3c     HC  318   3.042   0.248   3.440  1.1301  1.2774  0.5606
   36c3c     CT  319   3.025   0.304   3.647  0.6687 -0.0146  0.3563
   36c3c     HC  320   2.943   0.370   3.618  0.9599  0.0860 -0.2363
   36c3c     HC  321   3.109   0.372   3.658  0.2195  0.3686  1.5967
   36c3c     HC  322   3.004   0.251   3.740  0.4557 -2.2536 -0.9339
   37c3c     N4  323   2.039   1.391   2.054  0.2610 -0.3041  0.0506
   37c3c     C1  324   2.007   1.533   2.083 -0.3186 -0.4859  0.4557
   37c3c     C1  325   2.176   1.399   2.003 -0.4310 -0.0831  0.5575
   37c3c     C2  326   2.135   1.603   2.133  0.0633 -0.1511 -0.2575
   37c3c     C2  327   2.241   1.506   2.084 -0.0409 -0.1696  0.2519
   37c3c     C1  328   2.047   1.306   2.176  1.1055 -0.1521  0.1591
   37c3c     C1  329   1.946   1.317   1.961  0.6878 -0.8833 -0.0780
   37c3c     H1  330   1.921   1.542   2.149 -1.3883  0.4675 -1.0575
   37c3c     H1  331   1.974   1.583   1.992 -1.3631 -0.9840  0.5544
   37c3c     H1  332   2.240   1.311   2.000 -0.4831 -0.0982 -0.0392
   37c3c     H1  333   2.183   1.433   1.900 -1.2741  0.2346  0.5999
   37c3c     HC  334   2.137   1.621   2.241 -0.3449  0.4152 -0.3422
   37c3c     HC  335   2.148   1.701   2.086 -2.9600  0.3175 -0.2193
   37c3c     HC  336   2.302   1.469   2.166  0.0850  0.3103  0.3718
   37c3c     HC  337   2.316   1.557   2.023 -2.1775  0.8457 -1.6250
   37c3c     H1  338   1.945   1.294   2.213  1.6468 -0.3127  1.5978
   37c3c     H1  339   2.098   1.211   2.157  0.5537 -0.5145  0.4708
   37c3c     H1  340   2.098   1.360   2.255  1.4717  0.1279 -0.2641
   37c3c     H1  341   1.995   1.225   1.928  2.2047 -0.4220  0.8050
   37c3c     H1  342   1.855   1.289   2.014  0.7974 -1.8950 -0.4134
   37c3c     C2  343   1.902   1.387   1.830  1.2347 -0.8363  0.3837
   37c3c     HC  344   1.993   1.418   1.779  1.2308  0.6003  1.2024
   37c3c     HC  345   1.839   1.472   1.856  1.3309 -0.6053 -0.1364
   37c3c     CT  346   1.821   1.293   1.736  0.6352 -0.1458 -0.2141
   37c3c     HC  347   1.727   1.262   1.783  1.1392 -2.4921 -0.7169
   37c3c     HC  348   1.882   1.208   1.709  1.2687  0.8276 -1.9694
   37c3c     HC  349   1.800   1.342   1.641  0.9317 -0.9418 -0.6940
   38c3c     N4  350   2.716   4.308   5.375  0.6287 -0.2244  0.1505
   38c3c     C1  351   2.590   4.320   5.448  0.0371  0.1202  0.4922
   38c3c     C1  352   2.792   4.223   5.468  0.6455  0.1362  0.7432
   38c3c     C2  353   2.555   4.182   5.501 -0.0374 -0.2906 -0.7595
   38c3c     C2  354   2.686   4.136   5.541  0.2734  0.2001 -0.0359
   38c3c     C1  355   2.702   4.235   5.245  0.9764  0.7927  0.3924
   38c3c     C1  356   2.776   4.439   5.348  0.3666  0.2194  0.0936
   38c3c     H1  357   2.517   4.365   5.382 -0.8686  0.3652  1.6569
   38c3c     H1  358   2.600   4.386   5.535  0.6290 -2.0505  2.1284
   38c3c     H1  359   2.877   4.168   5.428 -0.1790 -1.1260  0.6955
   38c3c     H1  360   2.832   4.275   5.555  0.9724 -0.5733  1.0177
   38c3c     HC  361   2.503   4.128   5.423 -1.2148 -0.7169  0.3025
   38c3c     HC  362   2.488   4.186   5.587  2.2603 -0.1315  1.0877
   38c3c     HC  363   2.689   4.033   5.505  2.7398 -0.2316  1.2398
   38c3c     HC  364   2.690   4.138   5.650 -1.9218  0.9579  0.0525
   38c3c     H1  365   2.669   4.309   5.173 -0.6047 -0.1763  0.0940
   38c3c     H1  366   2.797   4.201   5.204  1.2026  2.2341 -0.2874
   38c3c     H1  367   2.640   4.146   5.252 -0.8674  1.9775 -0.5121
   38c3c     H1  368   2.875   4.424   5.303  0.6739 -0.7211  1.0562
   38c3c     H1  369   2.723   4.503   5.277  0.9522  1.8108  1.0706
   38c3c     C2  370   2.803   4.532   5.469 -0.3017 -0.0011  0.4208
   38c3c     HC  371   2.842   4.479   5.556 -0.0582  1.2164  1.0621
   38c3c     HC  372   2.713   4.584   5.501 -0.5621  0.7612 -1.5025
   38c3c     CT  373   2.906   4.637   5.441 -0.7323 -0.8919 -0.0798
   38c3c     HC  374   3.005   4.598   5.418 -0.5199 -1.2920  1.5086
   38c3c     HC  375   2.900   4.705   5.526  0.9858  0.0740 -0.7068
   38c3c     HC  376   2.882   4.691   5.349 -0.2664 -0.5345  0.0079
   39c3c     N4  377   5.362   1.416   2.482 -0.3765 -0.3573 -0.0142
   39c3c     C1  378   5.232   1.376   2.417  0.2983  0.6403  0.3032
   39c3c     C1  379   5.341   1.556   2.521  0.3584 -0.4024  0.2674
   39c3c     C2  380   5.128   1.433   2.511  0.0814  0.1728  0.3905
   39c3c     C2  381   5.191   1.561   2.561 -0.0444  0.0322  0.4948
   39c3c     C1  382   5.384   1.339   2.605 -0.0847 -0.0864 -0.0551
   39c3c     C1  383   5.487   1.405   2.402 -0.2622  0.0811 -0.4982
   39c3c     H1  384   5.215   1.269   2.405 -2.6303  1.1207 -0.3870
   39c3c     H1  385   5.228   1.416   2.316 -0.3388  1.5970  0.7061
   39c3c     H1  386   5.407   1.596   2.599  0.1100 -1.4879  1.0479
   39c3c     H1  387   5.347   1.630   2.442 -0.2323  0.1628  0.7425
   39c3c     HC  388   5.107   1.362   2.591  0.9544 -0.1697  0.3227
   39c3c     HC  389   5.032   1.448   2.462  1.4762  0.0374 -2.5030
   39c3c     HC  390   5.176   1.567   2.669  2.4399 -0.9364  0.9151
   39c3c     HC  391   5.141   1.642   2.508  1.8357  1.2355  0.4990
   39c3c     H1  392   5.397   1.234   2.583  0.3660 -0.6486  2.7091
   39c3c     H1  393   5.471   1.373   2.661  0.2099 -1.2929  0.2349
   39c3c     H1  394   5.308   1.351   2.682  0.7443 -1.6177  1.0156
   39c3c     H1  395   5.572   1.432   2.465  0.4985 -2.0473 -0.6062
   39c3c     H1  396   5.506   1.303   2.371 -0.3487  0.2306 -1.0389
   39c3c     C2  397   5.498   1.499   2.279  0.4310 -0.2564 -0.0308
   39c3c     HC  398   5.518   1.602   2.311  0.6486 -0.1743 -0.4328
   39c3c     HC  399   5.404   1.502   2.224  0.4114  1.6326  0.0547
   39c3c     CT  400   5.612   1.457   2.188  0.0965 -0.4486  0.5187
   39c3c     HC  401   5.707   1.475   2.239  0.0528  2.0103 -0.2295
   39c3c     HC  402   5.606   1.515   2.096 -2.1022 -2.0930 -0.4155
   39c3c     HC  403   5.597   1.351   2.169  3.5825 -1.0800  0.8875
   40c3c     N4  404   2.631   1.611   1.474 -0.2796  0.2494 -0.0707
   40c3c     C1  405   2.495   1.594   1.439 -0.1204  0.3342  0.2693
   40c3c     C1  406   2.655   1.756   1.449  0.0197 -0.4269  0.0973
   40c3c     C2  407   2.420   1.717   1.483  0.4914  0.3853 -0.2606
   40c3c     C2  408   2.525   1.824   1.476  0.3449  0.2488 -0.4516
   40c3c     C1  409   2.648   1.576   1.619  0.3586 -0.1048 -0.1973
   40c3c     C1  410   2.711   1.521   1.392 -0.0624  0.4193  0.4815
   40c3c     H1  411   2.444   1.505   1.475 -1.5482  0.6474 -0.9165
   40c3c     H1  412   2.475   1.594   1.332 -0.2006  0.7360  0.2836
   40c3c     H1  413   2.737   1.796   1.508  1.7294 -1.6611 -1.4217
   40c3c     H1  414   2.686   1.780   1.348  0.2911 -0.1920  0.2376
   40c3c     HC  415   2.375   1.704   1.582 -0.1726 -0.5706 -0.6889
   40c3c     HC  416   2.334   1.739   1.420 -0.3110 -0.3491  0.5660
   40c3c     HC  417   2.525   1.875   1.572 -1.4746  0.7311 -0.6832
   40c3c     HC  418   2.513   1.899   1.397  1.9131  1.0146  0.0177
   40c3c     H1  419   2.627   1.471   1.642  1.0632 -0.0947  0.5092
   40c3c     H1  420   2.748   1.615   1.641 -0.1104  1.8779 -1.4799
   40c3c     H1  421   2.585   1.637   1.684 -0.5407 -0.9435 -0.2647
   40c3c     H1  422   2.815   1.521   1.425  0.8360 -2.8976 -2.0013
   40c3c     H1  423   2.682   1.418   1.414  0.0221 -0.0112 -1.3822
   40c3c     C2  424   2.718   1.544   1.237 -0.2990  0.9581 -0.1066
   40c3c     HC  425   2.731   1.648   1.206 -0.0252  1.6329  2.2086
   40c3c     HC  426   2.629   1.507   1.186  0.5358 -1.1410 -0.0839
   40c3c     CT  427   2.836   1.465   1.191  0.2401  0.7822 -0.1111
   40c3c     HC  428   2.838   1.362   1.226 -2.2144  1.8535  3.3168
   40c3c     HC  429   2.929   1.516   1.216  0.1521  1.5376 -1.3006
   40c3c     HC  430   2.833   1.458   1.082 -1.1249  0.5529 -0.0689
   41c3c     N4  431   4.818   5.017   4.985 -0.2067  0.4513  0.2422
   41c3c     C1  432   4.846   5.158   4.997 -0.2860  0.7734 -0.2993
   41c3c     C1  433   4.921   4.973   4.890  0.4344 -0.0624  0.4986
   41c3c     C2  434   4.998   5.161   5.019  0.1043  0.7208 -0.1613
   41c3c     C2  435   5.048   5.046   4.935 -0.1873  1.1738  0.1536
   41c3c     C1  436   4.823   4.956   5.117  0.0649  0.5943 -0.1364
   41c3c     C1  437   4.678   4.984   4.938 -0.0717  0.3668 -0.3541
   41c3c     H1  438   4.794   5.220   5.070  1.0157  0.1858  1.1723
   41c3c     H1  439   4.832   5.212   4.904 -0.7678  0.1700 -0.5799
   41c3c     H1  440   4.943   4.866   4.888  1.9333  0.2401  0.1815
   41c3c     H1  441   4.909   5.006   4.787  0.0377 -1.6658  0.0077
   41c3c     HC  442   5.022   5.143   5.124  0.7123  0.9783 -0.2540
   41c3c     HC  443   5.040   5.255   4.983  2.1265  0.3155  1.0742
   41c3c     HC  444   5.108   4.981   4.999  0.4169  1.1679 -0.4175
   41c3c     HC  445   5.099   5.084   4.846 -2.2665  2.3664 -0.5653
   41c3c     H1  446   4.752   5.005   5.184 -0.1616  0.9775 -0.6556
   41c3c     H1  447   4.791   4.852   5.114 -0.8178  0.9054 -2.3898
   41c3c     H1  448   4.920   4.952   5.166  0.0385  0.9852 -0.0482
   41c3c     H1  449   4.665   4.877   4.951  0.8417  0.1497 -1.1704
   41c3c     H1  450   4.605   5.031   5.005  0.9038 -0.3678  1.2713
   41c3c     C2  451   4.641   5.023   4.791 -0.1021  0.2212 -0.0475
   41c3c     HC  452   4.698   4.960   4.723  2.8184  1.4878  1.1415
   41c3c     HC  453   4.667   5.127   4.775 -0.1854  0.2805  0.2034
   41c3c     CT  454   4.494   5.000   4.741  0.3125 -0.2736 -0.7160
   41c3c     HC  455   4.427   5.058   4.804  0.7002 -1.0148  0.3831
   41c3c     HC  456   4.471   4.895   4.756  3.0556 -0.8717 -0.4701
   41c3c     HC  457   4.479   5.026   4.636 -0.8470 -0.1354 -0.5178
   42c3c     N4  458   2.021   1.381   2.832 -0.5992  0.3224  0.0008
   42c3c     C1  459   1.929   1.302   2.748  0.1304 -1.0005  0.0303
   42c3c     C1  460   1.933   1.440   2.931 -0.4225  0.2476 -0.0366
   42c3c     C2  461   1.838   1.231   2.853 -0.1741  0.4212 -0.6725
   42c3c     C2  462   1.818   1.337   2.957 -0.5430  0.1455  0.0490
   42c3c     C1  463   2.117   1.290   2.905 -0.7692 -0.1580 -0.1435
   42c3c     C1  464   2.113   1.465   2.745  0.1716  0.6353 -0.9276
   42c3c     H1  465   1.982   1.238   2.678 -0.9600  0.1234 -1.8426
   42c3c     H1  466   1.864   1.360   2.683  1.9975 -1.0837 -1.9586
   42c3c     H1  467   1.993   1.464   3.019  1.4402 -2.0289 -0.6564
   42c3c     H1  468   1.889   1.532   2.891  0.6511  0.7174 -0.1560
   42c3c     HC  469   1.895   1.151   2.902 -1.0951  1.1239  1.6182
   42c3c     HC  470   1.746   1.188   2.811 -1.2023  1.9541 -0.0194
   42c3c     HC  471   1.827   1.305   3.060 -0.7699  1.0705  0.3614
   42c3c     HC  472   1.726   1.392   2.938 -0.7348 -0.3223 -0.3959
   42c3c     H1  473   2.169   1.221   2.838 -0.6813 -0.5836  0.3623
   42c3c     H1  474   2.187   1.357   2.954 -0.2465 -0.6064 -0.2727
   42c3c     H1  475   2.076   1.241   2.993 -0.5329  0.2932  0.2169
   42c3c     H1  476   2.194   1.499   2.809 -1.0531  0.2212  0.8792
   42c3c     H1  477   2.168   1.414   2.666 -0.0819  1.0085 -1.3452
   42c3c     C2  478   2.039   1.579   2.670 -0.0531  0.0286  0.2022
   42c3c     HC  479   2.011   1.652   2.747  1.1220 -0.2135  0.8832
   42c3c     HC  480   1.945   1.543   2.629 -0.5218  0.0557  1.2281
   42c3c     CT  481   2.128   1.654   2.562 -0.3632  0.7494  0.0192
   42c3c     HC  482   2.147   1.583   2.481  0.3745 -0.8040  1.5233
   42c3c     HC  483   2.224   1.690   2.599 -0.5366  1.2786 -0.0476
   42c3c     HC  484   2.066   1.734   2.522 -0.4647  1.0757  0.8290
   43c3c     N4  485   3.931   1.964   2.571 -0.5375 -0.1566  0.0178
   43c3c     C1  486   4.068   1.924   2.599  0.2778  0.0816 -0.0184
   43c3c     C1  487   3.931   2.109   2.540  0.4589  0.2237 -0.3839
   43c3c     C2  488   4.152   2.008   2.502 -0.3002  0.0428  0.0440
   43c3c     C2  489   4.068   2.130   2.469 -0.4212 -0.1458 -1.0010
   43c3c     C1  490   3.877   1.880   2.466  0.4363  0.1636  0.2415
   43c3c     C1  491   3.850   1.931   2.689  0.6196  0.7615 -0.0373
   43c3c     H1  492   4.079   1.818   2.575  0.9847 -0.1025  1.0694
   43c3c     H1  493   4.103   1.940   2.701 -0.0370  1.6012 -0.1453
   43c3c     H1  494   3.849   2.137   2.474 -0.9328 -0.5500  0.9576
   43c3c     H1  495   3.932   2.176   2.626  1.0984 -0.2106 -0.0509
   43c3c     HC  496   4.177   1.949   2.414  2.5344  0.3749  0.5802
   43c3c     HC  497   4.247   2.044   2.543  0.7307 -0.5611 -1.7683
   43c3c     HC  498   4.059   2.153   2.363  0.7729 -0.5572 -1.1956
   43c3c     HC  499   4.115   2.211   2.524  0.2040 -0.7069 -0.6986
   43c3c     H1  500   3.877   1.775   2.496 -2.9216  0.7773  2.7392
   43c3c     H1  501   3.777   1.921   2.448  0.8888  0.9793 -0.4074
   43c3c     H1  502   3.923   1.886   2.367  0.5157 -0.0455  0.2649
   43c3c     H1  503   3.745   1.932   2.660  0.2026 -1.2174  1.3107
   43c3c     H1  504   3.884   1.836   2.730 -0.1017  0.8417  0.7512
   43c3c     C2  505   3.847   2.029   2.806  0.2668 -0.6378  0.1025
   43c3c     HC  506   3.787   2.114   2.771  0.6108 -0.1582  0.6638
   43c3c     HC  507   3.945   2.073   2.827  0.5167 -0.5625 -1.1740
   43c3c     CT  508   3.780   1.971   2.930  0.5231 -0.7346  0.2418
   43c3c     HC  509   3.681   1.935   2.905  1.0763 -2.4898  0.4822
   43c3c     HC  510   3.781   2.038   3.016  2.1531 -0.1705 -0.1837
   43c3c     HC  511   3.834   1.885   2.970  0.2946 -0.7259  0.5659
   44c3c     N4  512   2.772   5.167   2.996  0.3699  0.0021 -0.3588
   44c3c     C1  513   2.670   5.214   3.088  0.5772  0.4050 -0.5534
   44c3c     C1  514   2.764   5.019   2.999  0.2355 -0.2605  0.5694
   44c3c     C2  515   2.553   5.122   3.066  0.6685 -0.4439 -0.0496
   44c3c     C2  516   2.612   4.998   3.000  0.2231  0.2368  0.0983
   44c3c     C1  517   2.747   5.210   2.857  0.5944  0.6107 -0.0296
   44c3c     C1  518   2.912   5.213   3.021 -0.5204  0.0902 -0.7639
   44c3c     H1  519   2.648   5.321   3.086  0.1543  0.3017 -1.2928
   44c3c     H1  520   2.703   5.197   3.191  1.1117  0.3490 -0.7358
   44c3c     H1  521   2.810   4.964   2.917 -0.5470 -0.3652  0.1945
   44c3c     H1  522   2.796   4.981   3.095  0.9766 -0.6868  0.1503
   44c3c     HC  523   2.476   5.165   3.002  0.4380 -2.2379 -0.9997
   44c3c     HC  524   2.510   5.098   3.163  1.2042 -0.9671  0.0625
   44c3c     HC  525   2.563   4.977   2.904  0.5082  0.1745 -0.0346
   44c3c     HC  526   2.591   4.910   3.060 -0.1269  1.2081  1.4043
   44c3c     H1  527   2.766   5.317   2.846 -0.2790  0.7143 -0.6315
   44c3c     H1  528   2.814   5.156   2.789  0.8174  1.0792 -0.1850
   44c3c     H1  529   2.644   5.189   2.828  0.7046  0.2410 -0.1574
   44c3c     H1  530   2.976   5.159   2.951  1.6410  0.0926  1.1593
   44c3c     H1  531   2.918   5.319   2.996 -0.6339 -0.0767 -1.4955
   44c3c     C2  532   2.974   5.178   3.162  0.7207 -0.5033 -0.5989
   44c3c     HC  533   2.956   5.074   3.187  2.5749 -0.9703 -1.1421
   44c3c     HC  534   2.924   5.238   3.238  2.3110  0.5796 -0.3912
   44c3c     CT  535   3.126   5.206   3.164  0.6973 -0.6545  0.0597
   44c3c     HC  536   3.139   5.313   3.158  0.6400 -0.6180  0.6055
   44c3c     HC  537   3.187   5.168   3.082 -0.6611 -1.4285 -0.6254
   44c3c     HC  538   3.176   5.178   3.257  0.0297 -1.2079  0.2580
   45c3c     N4  539   4.338   2.085   3.910 -0.2357 -0.0346 -0.5220
   45c3c     C1  540   4.289   1.965   3.839 -0.5005 -0.2316 -0.0833
   45c3c     C1  541   4.216   2.164   3.931 -0.3778  0.5026 -0.3468
   45c3c     C2  542   4.161   1.927   3.915  0.5700 -0.6563 -0.1285
   45c3c     C2  543   4.117   2.054   3.983  0.1218 -0.7747 -0.2413
   45c3c     C1  544   4.402   2.058   4.045  0.5347 -0.4837 -0.1874
   45c3c     C1  545   4.446   2.151   3.827  0.0502  0.1743 -0.3815
   45c3c     H1  546   4.362   1.885   3.839 -0.1678  0.0336 -2.7583
   45c3c     H1  547   4.257   1.981   3.736 -1.2094  1.1696  0.3415
   45c3c     H1  548   4.228   2.247   4.002  0.6928 -1.1076  1.4037
   45c3c     H1  549   4.165   2.200   3.842 -0.2876 -0.1756 -0.6730
   45c3c     HC  550   4.182   1.843   3.981  2.3675  1.0762  1.6007
   45c3c     HC  551   4.085   1.895   3.845 -0.0869 -0.5050  0.5109
   45c3c     HC  552   4.112   2.046   4.092 -0.2828  0.4698 -0.1499
   45c3c     HC  553   4.015   2.077   3.950  0.8630  0.2834 -1.8562
   45c3c     H1  554   4.507   2.034   4.031  0.0162 -2.1045 -1.3780
   45c3c     H1  555   4.404   2.144   4.112  0.7363 -0.2269 -0.5210
   45c3c     H1  556   4.350   1.981   4.102 -1.6259 -0.0342 -1.4907
   45c3c     H1  557   4.478   2.240   3.881  2.1089 -1.4684  1.1740
   45c3c     H1  558   4.531   2.083   3.830  0.6602  0.9859  0.5564
   45c3c     C2  559   4.417   2.177   3.677 -0.2490 -0.3944 -0.3765
   45c3c     HC  560   4.327   2.236   3.662  0.1014  0.0433 -0.7656
   45c3c     HC  561   4.406   2.084   3.622  1.1893 -0.7198 -0.1493
   45c3c     CT  562   4.519   2.269   3.608 -1.0611  0.2520  0.1552
   45c3c     HC  563   4.615   2.219   3.608 -1.4215 -0.4511  1.0994
   45c3c     HC  564   4.532   2.370   3.646 -0.0184  0.2246 -0.1154
   45c3c     HC  565   4.489   2.285   3.504  2.3017 -0.1958 -0.9316
   46c3c     N4  566   2.721   0.265   2.112  0.2287 -0.7110 -0.0896
   46c3c     C1  567   2.826   0.368   2.103  0.3745 -0.0396 -0.2895
   46c3c     C1  568   2.636   0.313   2.223 -0.0044 -0.1775  0.4459
   46c3c     C2  569   2.752   0.499   2.112  0.2161  0.1548  0.0364
   46c3c     C2  570   2.628   0.465   2.197 -0.2371 -0.3582  0.5714
   46c3c     C1  571   2.642   0.259   1.991  0.2856 -0.0365  0.3203
   46c3c     C1  572   2.783   0.134   2.137 -0.3770 -0.2013 -0.6993
   46c3c     H1  573   2.894   0.355   2.018  0.1207 -0.2058 -0.4679
   46c3c     H1  574   2.884   0.364   2.195 -0.5461 -1.0092  0.2600
   46c3c     H1  575   2.544   0.255   2.233  0.8661 -1.6201  0.1914
   46c3c     H1  576   2.691   0.299   2.316  0.3200 -1.0148  0.1314
   46c3c     HC  577   2.720   0.542   2.017 -1.1646  0.4871  0.6433
   46c3c     HC  578   2.817   0.570   2.161  0.9442 -1.9769  2.2264
   46c3c     HC  579   2.542   0.495   2.137 -0.8904  0.0492  1.6840
   46c3c     HC  580   2.617   0.523   2.289 -0.1155 -0.4614  0.6504
   46c3c     H1  581   2.709   0.272   1.905 -0.1180 -3.2162 -0.5244
   46c3c     H1  582   2.592   0.163   1.980 -0.9869  0.4936  1.3994
   46c3c     H1  583   2.567   0.338   1.984  1.0009  0.5491 -1.1497
   46c3c     H1  584   2.701   0.063   2.150 -0.0554 -0.4013  0.2465
   46c3c     H1  585   2.829   0.109   2.042  1.1198 -1.5971  0.3676
   46c3c     C2  586   2.894   0.106   2.245 -0.2557  0.4714 -0.4871
   46c3c     HC  587   2.850   0.111   2.345 -0.4535  0.5576 -0.5773
   46c3c     HC  588   2.972   0.181   2.243 -0.6182  0.8722  0.1170
   46c3c     CT  589   2.950  -0.034   2.216  0.5866  0.7704  0.3862
   46c3c     HC  590   2.873  -0.110   2.202  0.0044  0.9526  2.5594
   46c3c     HC  591   3.019  -0.066   2.293  0.2984  0.8796  0.6895
   46c3c     HC  592   3.005  -0.031   2.121  0.1841 -0.1493  0.1116
   47c3c     N4  593   2.685   0.880   2.907 -0.1672 -0.1397 -0.2238
   47c3c     C1  594   2.611   0.997   2.861 -0.6705 -0.2217  0.5802
   47c3c     C1  595   2.763   0.939   3.015 -0.2037 -0.1872  0.2230
   47c3c     C2  596   2.706   1.116   2.871 -0.1514 -0.3010 -0.6179
   47c3c     C2  597   2.808   1.080   2.973 -1.0011 -0.2165 -0.1804
   47c3c     C1  598   2.586   0.780   2.951  0.3063 -0.3058 -0.0183
   47c3c     C1  599   2.773   0.809   2.811  0.4617 -0.2188 -0.2758
   47c3c     H1  600   2.532   1.019   2.933 -1.3174  1.1999 -0.5219
   47c3c     H1  601   2.569   0.986   2.761 -0.2882 -3.4227  0.7291
   47c3c     H1  602   2.703   0.940   3.106 -1.6194 -0.7996 -0.6816
   47c3c     H1  603   2.852   0.883   3.043 -0.6102 -0.9487 -0.0034
   47c3c     HC  604   2.655   1.209   2.896  2.0039  0.4907  0.9429
   47c3c     HC  605   2.760   1.134   2.777 -0.0264 -1.6052 -0.8015
   47c3c     HC  606   2.816   1.151   3.055 -2.1413 -0.9214  0.5591
   47c3c     HC  607   2.901   1.068   2.918  0.1261 -0.5290  1.7253
   47c3c     H1  608   2.518   0.760   2.868 -0.1726 -0.3073  0.3684
   47c3c     H1  609   2.631   0.686   2.983  0.2295  0.0554  1.1722
   47c3c     H1  610   2.520   0.813   3.031 -0.0325 -0.3424 -0.2805
   47c3c     H1  611   2.839   0.736   2.857  0.2237 -0.9365 -1.0493
   47c3c     H1  612   2.708   0.747   2.749  0.9842 -0.3016 -0.7428
   47c3c     C2  613   2.857   0.891   2.710  0.2481 -1.0355 -0.4773
   47c3c     HC  614   2.936   0.945   2.763 -0.0642 -1.3425  0.3068
   47c3c     HC  615   2.799   0.962   2.652  1.1708  0.9323  0.9624
   47c3c     CT  616   2.936   0.804   2.610  0.8804  0.0274  0.2591
   47c3c     HC  617   2.991   0.730   2.669 -0.8632 -1.0666  0.5515
   47c3c     HC  618   3.004   0.867   2.552  0.8492 -0.8278 -0.7124
   47c3c     HC  619   2.863   0.758   2.544  1.4585 -0.7709  0.1687
   48c3c     N4  620   1.548   2.489   2.589  0.1271  0.6917 -0.2170
   48c3c     C1  621   1.457   2.464   2.476  0.0214 -0.4037  0.3550
   48c3c     C1  622   1.462   2.446   2.701 -0.1354  0.6109 -0.0062
   48c3c     C2  623   1.309   2.487   2.524 -0.6123 -0.4799  0.0085
   48c3c     C2  624   1.313   2.474   2.674  0.2588 -0.1058  0.7600
   48c3c     C1  625   1.670   2.407   2.578  0.9019 -0.1745  0.6780
   48c3c     C1  626   1.580   2.633   2.602  0.4007  0.8623 -0.1756
   48c3c     H1  627   1.458   2.358   2.449  1.7735 -0.0493 -1.0276
   48c3c     H1  628   1.483   2.524   2.389 -0.3257 -2.1553 -0.9936
   48c3c     H1  629   1.470   2.337   2.704  0.7873  0.6513 -1.0871
   48c3c     H1  630   1.491   2.475   2.802  3.3617 -0.1948 -0.7250
   48c3c     HC  631   1.240   2.409   2.492 -0.1741 -1.0455  0.4607
   48c3c     HC  632   1.258   2.575   2.484 -0.1488 -0.1475  0.1481
   48c3c     HC  633   1.246   2.394   2.706  0.3259 -0.2093  0.6420
   48c3c     HC  634   1.271   2.560   2.726 -0.2787  0.5291 -0.6985
   48c3c     H1  635   1.728   2.441   2.492  1.2694  1.9081  1.6973
   48c3c     H1  636   1.738   2.418   2.662  1.1554  1.1645  0.3139
   48c3c     H1  637   1.652   2.302   2.555  0.3288  0.3298 -1.2595
   48c3c     H1  638   1.651   2.634   2.685  1.5014 -0.1657 -1.0729
   48c3c     H1  639   1.641   2.677   2.522  0.2535  1.4029  0.0066
   48c3c     C2  640   1.473   2.736   2.646  0.3986 -0.1398  0.1816
   48c3c     HC  641   1.444   2.703   2.745  0.9766 -1.7590 -0.1766
   48c3c     HC  642   1.387   2.742   2.579 -0.5382 -1.3799  1.2500
   48c3c     CT  643   1.524   2.880   2.665  0.6189  0.0746  0.4332
   48c3c     HC  644   1.590   2.901   2.580 -0.6438  0.5041 -0.4680
   48c3c     HC  645   1.594   2.884   2.748  0.6118 -0.8166  0.4831
   48c3c     HC  646   1.441   2.950   2.679  0.4316 -0.2182  0.7957
   49c3c     N4  647   2.528   3.125   2.185 -0.6725 -0.3507 -0.0999
   49c3c     C1  648   2.397   3.083   2.129 -0.6381  0.7672 -0.5027
   49c3c     C1  649   2.611   3.153   2.065 -0.1229  0.8148 -0.0003
   49c3c     C2  650   2.377   3.158   1.994 -0.0636  0.3525 -0.5908
   49c3c     C2  651   2.515   3.188   1.944  0.0723 -0.0516 -0.4655
   49c3c     C1  652   2.509   3.253   2.253 -0.0567 -0.1196  0.1837
   49c3c     C1  653   2.577   3.034   2.289 -0.0987  0.2860 -0.4949
   49c3c     H1  654   2.318   3.103   2.201 -0.7702  2.0129 -0.9734
   49c3c     H1  655   2.400   2.978   2.101 -0.0519  0.7620 -0.4266
   49c3c     H1  656   2.685   3.231   2.080 -0.6067  1.1828  0.4788
   49c3c     H1  657   2.665   3.062   2.037  1.5934  1.3544  1.4343
   49c3c     HC  658   2.324   3.253   2.001  0.8805  0.8815 -0.4201
   49c3c     HC  659   2.322   3.097   1.922  0.0158 -0.2418 -0.1499
   49c3c     HC  660   2.527   3.293   1.916  2.7496 -0.2633 -0.2571
   49c3c     HC  661   2.543   3.135   1.853  1.2285 -1.8118  0.8738
   49c3c     H1  662   2.448   3.244   2.343 -0.5471 -0.1879 -0.1544
   49c3c     H1  663   2.601   3.306   2.280  0.4004 -0.4317 -0.7236
   49c3c     H1  664   2.444   3.319   2.196  0.0072  0.2470  0.5385
   49c3c     H1  665   2.644   3.082   2.361 -1.0601  0.6239  0.1885
   49c3c     H1  666   2.492   3.012   2.354 -0.9260 -0.3206 -1.7732
   49c3c     C2  667   2.642   2.903   2.240 -0.3008 -0.6677 -0.4506
   49c3c     HC  668   2.743   2.915   2.201  0.3020 -0.6396  1.0885
   49c3c     HC  669   2.587   2.868   2.152  2.0266 -0.0831 -2.1734
   49c3c     CT  670   2.636   2.779   2.331  0.1698  0.0611  0.4465
   49c3c     HC  671   2.696   2.698   2.291 -2.5372 -1.8800  0.1722
   49c3c     HC  672   2.536   2.739   2.348  0.5518 -0.3503  1.8043
   49c3c     HC  673   2.673   2.804   2.431 -0.3688  0.9591  0.4385
   50c3c     N4  674   4.914   1.526   1.854 -0.0430 -0.1171  0.0767
   50c3c     C1  675   5.027   1.433   1.823 -0.7630  0.5880  0.9098
   50c3c     C1  676   4.936   1.627   1.747 -0.5953  0.0573 -0.6428
   50c3c     C2  677   5.037   1.414   1.670  0.2253 -0.0183  0.4037
   50c3c     C2  678   4.978   1.546   1.619  0.3077 -0.3812 -0.3395
   50c3c     C1  679   4.786   1.458   1.837  0.1757 -0.2206  0.2753
   50c3c     C1  680   4.916   1.587   1.992  0.2325  0.7470  0.0076
   50c3c     H1  681   5.024   1.338   1.877 -0.9551  0.0661 -0.0012
   50c3c     H1  682   5.121   1.484   1.843  0.7097 -1.6793  0.0425
   50c3c     H1  683   4.851   1.688   1.716 -1.1549 -0.3032  0.1849
   50c3c     H1  684   5.016   1.697   1.774  0.9338 -1.6315 -0.7633
   50c3c     HC  685   4.991   1.328   1.622  1.0733 -0.2230 -0.0517
   50c3c     HC  686   5.142   1.401   1.645 -0.2989 -2.0375 -0.8304
   50c3c     HC  687   4.884   1.525   1.568  0.0223 -0.2340  0.1264
   50c3c     HC  688   5.041   1.600   1.549  1.8220 -0.5349  0.8890
   50c3c     H1  689   4.769   1.381   1.912  0.7598  0.5614  1.2156
   50c3c     H1  690   4.702   1.528   1.842  0.6446  0.3482  0.2345
   50c3c     H1  691   4.770   1.410   1.741 -0.3094 -0.8841  0.6836
   50c3c     H1  692   4.860   1.681   1.987  0.5660  0.8924 -1.1648
   50c3c     H1  693   4.869   1.520   2.065  0.8179  1.4064  1.0082
   50c3c     C2  694   5.045   1.633   2.062 -0.1060  0.6662 -0.4795
   50c3c     HC  695   5.097   1.701   1.994  0.2961  1.3027  0.4610
   50c3c     HC  696   5.109   1.547   2.080  0.2435  0.7295 -1.4192
   50c3c     CT  697   5.020   1.710   2.195 -0.6174  0.5508  0.1926
   50c3c     HC  698   4.941   1.784   2.183 -0.6132  0.6392  0.7059
   50c3c     HC  699   5.113   1.750   2.235  0.1205 -1.2814  0.3434
   50c3c     HC  700   4.982   1.638   2.268 -0.9726 -0.3058 -0.8237
   51c3c     N4  701   4.254   1.902   1.592  0.2209 -0.2201 -0.6206
   51c3c     C1  702   4.140   1.852   1.512 -0.0310  0.2210  0.5979
   51c3c     C1  703   4.246   1.819   1.713  0.1714  1.0296 -0.0856
   51c3c     C2  704   4.125   1.703   1.544 -0.4419 -0.2303 -0.0455
   51c3c     C2  705   4.220   1.678   1.659 -0.6805  0.0418 -0.1894
   51c3c     C1  706   4.382   1.882   1.522 -0.9751 -0.2629 -0.1762
   51c3c     C1  707   4.255   2.047   1.630  0.2323 -0.4301 -0.0505
   51c3c     H1  708   4.140   1.880   1.407 -1.2824 -0.1089  0.5066
   51c3c     H1  709   4.044   1.891   1.543  0.6291  1.1773  1.4770
   51c3c     H1  710   4.342   1.820   1.765 -0.4755  1.2690  1.1434
   51c3c     H1  711   4.168   1.847   1.785  1.1813  0.1342  1.3867
   51c3c     HC  712   4.148   1.633   1.464  1.0034  1.1835 -0.9024
   51c3c     HC  713   4.023   1.680   1.576  0.0426 -1.4213  0.6487
   51c3c     HC  714   4.314   1.633   1.627 -0.0714  0.5778  0.8228
   51c3c     HC  715   4.175   1.614   1.735 -1.0284 -0.0932 -0.5121
   51c3c     H1  716   4.383   1.941   1.430 -1.4816 -0.6523 -0.4355
   51c3c     H1  717   4.467   1.917   1.580  0.1340  0.2568 -2.0698
   51c3c     H1  718   4.406   1.780   1.492  1.1613  0.8284 -2.4279
   51c3c     H1  719   4.308   2.049   1.725  0.5710  0.4800 -0.2604
   51c3c     H1  720   4.313   2.107   1.560  0.7345  0.3615  1.0370
   51c3c     C2  721   4.118   2.121   1.653 -0.1525  0.4208  0.0381
   51c3c     HC  722   4.051   2.055   1.708 -1.3087  0.9175 -0.7501
   51c3c     HC  723   4.066   2.142   1.559 -0.5331 -0.4664  0.0469
   51c3c     CT  724   4.139   2.257   1.728  0.0095  0.1742 -0.3915
   51c3c     HC  725   4.139   2.248   1.836 -1.3077  0.1861 -0.3770
   51c3c     HC  726   4.055   2.324   1.709 -0.9437 -0.6180  0.9261
   51c3c     HC  727   4.231   2.306   1.695 -0.2349  0.6137 -0.4167
   52c3c     N4  728   2.822   5.879   2.760  0.1410 -0.5775 -0.0242
   52c3c     C1  729   2.956   5.935   2.779 -0.6436 -0.6823 -1.0632
   52c3c     C1  730   2.769   5.942   2.633 -0.5037  1.2745 -0.0796
   52c3c     C2  731   3.007   5.945   2.638  0.4211 -0.3844 -0.0834
   52c3c     C2  732   2.895   5.971   2.545 -0.4301  0.6961 -0.5284
   52c3c     C1  733   2.832   5.732   2.747 -0.1437  0.2966 -0.2139
   52c3c     C1  734   2.735   5.907   2.873 -0.0902  0.2839 -0.3682
   52c3c     H1  735   3.019   5.874   2.844  1.1713  0.2565 -1.8799
   52c3c     H1  736   2.962   6.039   2.810  0.2812 -0.7350 -1.0497
   52c3c     H1  737   2.694   5.877   2.588 -1.1403  1.2221  1.0412
   52c3c     H1  738   2.712   6.033   2.650 -1.0844  0.8568  0.2372
   52c3c     HC  739   3.061   5.853   2.617 -1.3109 -1.2884 -0.5979
   52c3c     HC  740   3.087   6.020   2.638 -0.9431  1.1055 -0.9288
   52c3c     HC  741   2.905   5.900   2.463 -0.4574 -0.2200  0.2497
   52c3c     HC  742   2.881   6.073   2.509  0.6605  1.1863  0.3713
   52c3c     H1  743   2.912   5.686   2.806  1.3297  1.6646 -1.1165
   52c3c     H1  744   2.744   5.672   2.772 -0.5668 -0.3952 -3.2574
   52c3c     H1  745   2.856   5.703   2.645 -1.8527 -1.9947 -0.0066
   52c3c     H1  746   2.637   5.866   2.852  0.2824 -0.7661 -0.0767
   52c3c     H1  747   2.770   5.857   2.963  1.2002  1.2391 -0.3281
   52c3c     C2  748   2.707   6.054   2.917 -0.6337  0.4099 -0.2094
   52c3c     HC  749   2.739   6.123   2.840  1.7010 -0.6583 -0.2337
   52c3c     HC  750   2.762   6.093   3.003  0.2394 -1.7336  0.2484
   52c3c     CT  751   2.559   6.080   2.940 -0.4224 -0.3520 -0.4614
   52c3c     HC  752   2.505   6.028   2.861  3.3197  0.0037 -3.4251
   52c3c     HC  753   2.534   6.186   2.938  0.5211 -0.1101  0.2097
   52c3c     HC  754   2.521   6.038   3.033 -0.5731 -1.7932 -1.1578
   53c3c     N4  755   2.357   0.949   1.180  0.0179  0.3616  0.1312
   53c3c     C1  756   2.423   1.051   1.269 -0.3845  0.0356 -0.7698
   53c3c     C1  757   2.378   1.000   1.044  0.3415 -0.2438 -0.4123
   53c3c     C2  758   2.556   1.084   1.195  0.1015 -0.6146  0.2482
   53c3c     C2  759   2.515   1.070   1.051 -0.9908  0.0003 -0.0544
   53c3c     C1  760   2.423   0.820   1.199 -0.3058  0.0565 -0.0970
   53c3c     C1  761   2.212   0.915   1.199  0.6052  0.0023 -0.2514
   53c3c     H1  762   2.446   1.011   1.367  1.0340  0.4561 -0.9239
   53c3c     H1  763   2.357   1.138   1.278 -0.3489 -0.0338  0.1463
   53c3c     H1  764   2.369   0.927   0.963 -1.5570 -0.4172 -0.0595
   53c3c     H1  765   2.310   1.081   1.020  0.1737 -0.6243 -1.2142
   53c3c     HC  766   2.627   1.009   1.229  0.0602 -1.0089 -0.5199
   53c3c     HC  767   2.590   1.185   1.218  0.7275 -1.0829  1.4307
   53c3c     HC  768   2.584   1.012   0.989 -2.1634 -0.0284 -1.3583
   53c3c     HC  769   2.522   1.167   1.002 -1.2893  1.2763  2.3476
   53c3c     H1  770   2.410   0.790   1.303  0.9725  0.0557  0.0658
   53c3c     H1  771   2.382   0.743   1.135  0.9766 -0.4633 -0.3076
   53c3c     H1  772   2.531   0.827   1.187 -0.2168  1.2971  1.2352
   53c3c     H1  773   2.180   0.823   1.150 -0.7212 -0.6184  1.7172
   53c3c     H1  774   2.200   0.900   1.306  2.2594  0.8817  0.0652
   53c3c     C2  775   2.104   1.020   1.160 -0.3062  0.2692  0.1768
   53c3c     HC  776   2.106   1.019   1.051 -0.7859  1.0252  0.1640
   53c3c     HC  777   2.127   1.121   1.194  1.6800 -0.0176 -0.2589
   53c3c     CT  778   1.954   0.992   1.195 -0.6557  0.1388  0.4582
   53c3c     HC  779   1.896   1.006   1.103  0.3393 -0.3590 -0.2472
   53c3c     HC  780   1.913   1.056   1.273 -1.2615  0.2175  0.0852
   53c3c     HC  781   1.933   0.890   1.227 -2.0638  0.1836 -0.2339
   54c3c     N4  782   1.463   1.806   3.506  1.0332  0.1395 -0.2225
   54c3c     C1  783   1.354   1.778   3.411 -0.0395 -0.0548  0.3732
   54c3c     C1  784   1.474   1.683   3.589 -0.1686 -0.3087  0.1634
   54c3c     C2  785   1.361   1.627   3.378  0.1452  0.0720  0.3711
   54c3c     C2  786   1.444   1.570   3.490  0.3228 -0.1640  0.1491
   54c3c     C1  787   1.589   1.814   3.430  0.1997 -0.0886  0.6673
   54c3c     C1  788   1.446   1.934   3.579 -0.1829 -0.0452  0.2911
   54c3c     H1  789   1.357   1.839   3.321  2.1680 -0.3170  0.2252
   54c3c     H1  790   1.253   1.793   3.448 -0.7231  1.5889 -2.0335
   54c3c     H1  791   1.571   1.664   3.636 -0.1963 -0.4333  0.1695
   54c3c     H1  792   1.398   1.679   3.666  0.7323  0.0328  1.0873
   54c3c     HC  793   1.409   1.611   3.281  0.0627  1.5935  0.0614
   54c3c     HC  794   1.262   1.584   3.372  0.2017  0.0273 -0.3447
   54c3c     HC  795   1.538   1.526   3.458  0.1496 -0.7683  0.4544
   54c3c     HC  796   1.389   1.493   3.544 -0.0772  0.0585  0.0582
   54c3c     H1  797   1.593   1.899   3.362  0.5938  0.0749  0.8879
   54c3c     H1  798   1.674   1.829   3.497  0.4251 -1.0585  0.5963
   54c3c     H1  799   1.620   1.725   3.376 -0.1583 -0.3366  0.8719
   54c3c     H1  800   1.537   1.953   3.636  0.3937 -2.2328  0.1288
   54c3c     H1  801   1.427   2.010   3.503 -1.3749  0.3102  0.9351
   54c3c     C2  802   1.333   1.945   3.684  0.0065  0.5083 -0.1658
   54c3c     HC  803   1.277   1.851   3.689 -0.0712  0.5343 -0.5726
   54c3c     HC  804   1.260   2.019   3.651 -0.0867  1.1166  1.3427
   54c3c     CT  805   1.388   1.981   3.823 -0.6174 -0.0907 -0.3194
   54c3c     HC  806   1.460   2.064   3.822  0.1760 -0.7357  1.1031
   54c3c     HC  807   1.443   1.899   3.868 -0.0068  0.8871  0.7581
   54c3c     HC  808   1.307   2.007   3.891 -0.7664  1.1045 -0.9408
   55c3c     N4  809   3.635   1.391   2.045  0.5296 -0.8934 -0.0379
   55c3c     C1  810   3.741   1.432   1.952 -0.0086  0.0749  0.6007
   55c3c     C1  811   3.538   1.502   2.029 -0.1566  0.1165 -0.2415
   55c3c     C2  812   3.678   1.505   1.833 -0.0713 -0.6218 -0.7765
   55c3c     C2  813   3.542   1.548   1.888  0.5351 -0.0674 -0.0522
   55c3c     C1  814   3.569   1.269   1.998  0.2535 -0.1219 -0.2751
   55c3c     C1  815   3.665   1.354   2.186 -0.2915  0.2301 -0.2595
   55c3c     H1  816   3.802   1.346   1.923  0.9044  0.3717  1.6003
   55c3c     H1  817   3.817   1.498   1.993  1.7925 -1.2841 -0.4506
   55c3c     H1  818   3.441   1.465   2.064  0.0679 -1.3512 -1.1291
   55c3c     H1  819   3.577   1.583   2.090  1.0039 -0.0018 -0.8255
   55c3c     HC  820   3.664   1.446   1.743 -0.4195 -0.7814 -0.6181
   55c3c     HC  821   3.726   1.598   1.803  1.6136 -1.6383 -1.2769
   55c3c     HC  822   3.471   1.492   1.826  0.8605  0.4464 -0.9009
   55c3c     HC  823   3.530   1.656   1.883  1.3041  0.0479  0.5578
   55c3c     H1  824   3.639   1.185   2.003 -0.6993 -0.8188  1.7204
   55c3c     H1  825   3.481   1.240   2.054 -0.6739  0.0732 -1.6113
   55c3c     H1  826   3.535   1.280   1.895  4.0180  0.7066 -1.5011
   55c3c     H1  827   3.580   1.317   2.244  2.1316 -1.6371  2.1971
   55c3c     H1  828   3.731   1.268   2.192 -1.0589 -0.2881  0.9620
   55c3c     C2  829   3.740   1.463   2.271  0.2968 -0.8123  0.4077
   55c3c     HC  830   3.688   1.559   2.261 -0.8946 -1.5746 -0.8511
   55c3c     HC  831   3.842   1.480   2.238 -0.2897  1.7751 -0.1906
   55c3c     CT  832   3.743   1.424   2.423  0.8007  0.6832 -0.1573
   55c3c     HC  833   3.644   1.412   2.466  1.8208 -2.0903  1.5623
   55c3c     HC  834   3.784   1.504   2.484 -2.7256  2.3840  0.1019
   55c3c     HC  835   3.797   1.329   2.429  2.0082  1.4052  0.5907
   56c3c     N4  836   4.673   1.661   3.014 -0.4299 -0.2100 -0.4562
   56c3c     C1  837   4.590   1.547   2.972 -0.3305 -0.4619  0.1087
   56c3c     C1  838   4.768   1.672   2.902  0.1583  0.2790  0.1717
   56c3c     C2  839   4.562   1.566   2.824  0.1105  0.1165  0.2517
   56c3c     C2  840   4.686   1.638   2.772 -0.1655  0.2509 -0.7004
   56c3c     C1  841   4.584   1.782   3.027  0.2513  0.4571 -0.1611
   56c3c     C1  842   4.733   1.642   3.151 -0.3661  0.6521  0.9066
   56c3c     H1  843   4.504   1.526   3.036 -1.7155 -0.4026 -1.7218
   56c3c     H1  844   4.653   1.459   2.981 -1.0651 -1.0588 -0.6357
   56c3c     H1  845   4.817   1.768   2.887  0.2703  0.2264  0.2059
   56c3c     H1  846   4.850   1.601   2.908 -0.3685 -0.3903 -0.3939
   56c3c     HC  847   4.472   1.626   2.812  1.6166  2.2787 -0.4458
   56c3c     HC  848   4.543   1.470   2.776 -0.0015  0.3649 -0.2074
   56c3c     HC  849   4.669   1.717   2.700 -0.7450 -0.0186 -0.8626
   56c3c     HC  850   4.747   1.564   2.720 -1.1912 -1.0231 -0.1332
   56c3c     H1  851   4.514   1.773   3.110 -1.2742 -0.6269 -1.5366
   56c3c     H1  852   4.635   1.876   3.049  1.2987  0.1785 -1.3345
   56c3c     H1  853   4.523   1.803   2.940 -2.6389 -0.6862  1.4993
   56c3c     H1  854   4.791   1.728   3.186 -1.2230  0.7457  2.1533
   56c3c     H1  855   4.650   1.630   3.221 -0.6139 -0.4001  0.4356
   56c3c     C2  856   4.817   1.522   3.174  0.1677  0.5041 -0.2783
   56c3c     HC  857   4.906   1.518   3.111 -0.8204 -0.2280 -1.6682
   56c3c     HC  858   4.762   1.430   3.152 -0.1213  0.7895 -0.7622
   56c3c     CT  859   4.876   1.512   3.321 -0.1478 -0.8800  0.0451
   56c3c     HC  860   4.800   1.528   3.398  0.3591 -0.3207  0.4319
   56c3c     HC  861   4.959   1.581   3.340 -0.9754  0.5240 -1.3524
   56c3c     HC  862   4.905   1.410   3.346 -0.6394 -0.4583  2.4665
   57c3c     N4  863   1.401   1.530   1.974  0.0784 -0.2733  0.1860
   57c3c     C1  864   1.259   1.510   1.995  0.5186 -0.7117 -0.2601
   57c3c     C1  865   1.413   1.663   2.029  0.3932  0.2273  0.8596
   57c3c     C2  866   1.227   1.551   2.141 -0.2116  0.1671 -0.1931
   57c3c     C2  867   1.322   1.671   2.155  0.8039 -0.2287  0.0207
   57c3c     C1  868   1.484   1.441   2.058 -0.3939 -0.0932  0.1987
   57c3c     C1  869   1.438   1.509   1.835  0.3558 -0.8152  0.3788
   57c3c     H1  870   1.217   1.412   1.970 -1.2376  0.0961 -0.5684
   57c3c     H1  871   1.193   1.578   1.942  0.1610 -0.6665  0.2352
   57c3c     H1  872   1.516   1.693   2.049  0.2220  1.7006 -0.4173
   57c3c     H1  873   1.380   1.739   1.958  1.5475  1.3812  1.5261
   57c3c     HC  874   1.246   1.474   2.216 -2.1827 -0.1647  0.0035
   57c3c     HC  875   1.130   1.600   2.156  0.1743  1.0476 -0.4969
   57c3c     HC  876   1.378   1.652   2.247  2.4928  0.4506 -0.8426
   57c3c     HC  877   1.272   1.768   2.153 -0.5433 -0.8740  1.1571
   57c3c     H1  878   1.463   1.336   2.039  1.2570 -0.0742 -1.9338
   57c3c     H1  879   1.588   1.450   2.027 -0.4876 -0.5323 -0.2373
   57c3c     H1  880   1.471   1.460   2.165 -0.6551 -0.4001  0.2207
   57c3c     H1  881   1.546   1.523   1.820  0.2774  0.1702  0.6753
   57c3c     H1  882   1.435   1.407   1.798  0.4215 -0.5016 -0.5136
   57c3c     C2  883   1.357   1.586   1.728  0.4888 -1.0812  0.0697
   57c3c     HC  884   1.359   1.693   1.752 -1.0904 -1.1325  0.4307
   57c3c     HC  885   1.254   1.553   1.729  0.9312 -2.5024 -0.3299
   57c3c     CT  886   1.413   1.575   1.592  0.2445 -0.9305  0.6905
   57c3c     HC  887   1.343   1.611   1.518  1.2974 -0.1517  0.0652
   57c3c     HC  888   1.432   1.470   1.567  1.2969 -0.4549 -0.5139
   57c3c     HC  889   1.508   1.626   1.579 -0.6542  0.2195 -1.4570
   58c3c     N4  890   4.060   1.556   3.648 -0.1714  0.2737 -0.5922
   58c3c     C1  891   3.984   1.657   3.727  0.4274  0.1325 -0.1207
   58c3c     C1  892   3.972   1.441   3.629 -1.0707  0.2764 -0.3614
   58c3c     C2  893   3.849   1.643   3.671  0.5870  0.6535 -0.2295
   58c3c     C2  894   3.835   1.505   3.607  0.0711 -0.1593  0.2422
   58c3c     C1  895   4.100   1.598   3.511 -0.5399 -0.4636 -0.1507
   58c3c     C1  896   4.182   1.513   3.714 -0.2537 -0.2090 -0.6272
   58c3c     H1  897   4.016   1.759   3.705  0.1408  0.5933  1.5688
   58c3c     H1  898   3.973   1.650   3.835 -0.4891  0.4056 -0.1910
   58c3c     H1  899   4.002   1.370   3.552  0.5876 -0.5938  1.0345
   58c3c     H1  900   3.959   1.386   3.722 -0.2261  1.6789  0.6206
   58c3c     HC  901   3.819   1.721   3.601  1.2899  0.3265 -0.9034
   58c3c     HC  902   3.775   1.654   3.750  0.4473 -0.7466 -0.1425
   58c3c     HC  903   3.818   1.516   3.500  0.6939  0.0255  0.1613
   58c3c     HC  904   3.747   1.455   3.647 -0.3513  1.0080  0.8279
   58c3c     H1  905   4.159   1.687   3.531 -0.4762 -0.6990  0.7312
   58c3c     H1  906   4.163   1.526   3.459  0.1466  1.2670 -1.7715
   58c3c     H1  907   4.017   1.624   3.445 -0.6255  1.2114  0.5910
   58c3c     H1  908   4.217   1.423   3.663  0.7223 -0.2146  0.0349
   58c3c     H1  909   4.264   1.585   3.708 -0.7966  0.4653 -0.0595
   58c3c     C2  910   4.168   1.483   3.865  0.5065 -0.4148 -0.1652
   58c3c     HC  911   4.083   1.424   3.899  1.5411 -1.7507  0.1098
   58c3c     HC  912   4.148   1.572   3.925 -1.3634 -0.3032 -0.9215
   58c3c     CT  913   4.291   1.415   3.920  0.7777 -0.5704 -0.0315
   58c3c     HC  914   4.328   1.343   3.847  2.0749 -0.0505  0.0969
   58c3c     HC  915   4.265   1.365   4.014  2.8016  1.0580  1.4640
   58c3c     HC  916   4.363   1.495   3.939 -0.4146  0.5681 -0.2765
   59c3c     N4  917   2.021   0.694   4.500  0.0708  0.0986 -0.6077
   59c3c     C1  918   1.996   0.562   4.553 -0.1227  0.2431 -0.6123
   59c3c     C1  919   2.084   0.677   4.368  0.0215 -0.1979  0.1300
   59c3c     C2  920   1.957   0.475   4.434  0.5260 -0.4712 -0.2197
   59c3c     C2  921   2.007   0.553   4.316  0.1167  0.0923 -0.5705
   59c3c     C1  922   1.891   0.764   4.495 -0.4305 -0.2551 -0.6728
   59c3c     C1  923   2.110   0.771   4.591  0.5207  0.0198 -0.2220
   59c3c     H1  924   1.918   0.559   4.629 -0.4178  1.1463 -0.8773
   59c3c     H1  925   2.087   0.522   4.598 -0.6876 -0.6569 -0.2589
   59c3c     H1  926   2.079   0.769   4.311  0.6476 -0.5321 -0.4745
   59c3c     H1  927   2.190   0.650   4.370  0.0297 -0.1556  0.3335
   59c3c     HC  928   1.848   0.472   4.432  0.5414 -1.4585  0.1575
   59c3c     HC  929   2.001   0.375   4.445  0.9160 -0.1729  1.0120
   59c3c     HC  930   1.922   0.574   4.251 -0.7088 -0.9167  0.1734
   59c3c     HC  931   2.076   0.494   4.255 -1.1595  1.2195 -3.1835
   59c3c     H1  932   1.855   0.791   4.594  0.3931 -0.0299 -0.4294
   59c3c     H1  933   1.903   0.859   4.443 -0.2723 -0.1907 -0.5175
   59c3c     H1  934   1.813   0.704   4.449 -1.3595  0.4388 -0.0024
   59c3c     H1  935   2.114   0.869   4.545  1.3734  0.2445  0.3202
   59c3c     H1  936   2.064   0.777   4.690  0.4378  0.6760 -0.2998
   59c3c     C2  937   2.254   0.725   4.611  0.5281 -0.2778 -0.9740
   59c3c     HC  938   2.301   0.683   4.522  1.3304  0.3607 -0.8527
   59c3c     HC  939   2.253   0.646   4.686  1.5677 -0.9455 -1.6473
   59c3c     CT  940   2.341   0.842   4.662 -0.6399 -0.4622 -0.0083
   59c3c     HC  941   2.290   0.896   4.741 -1.2247 -2.2401  0.8578
   59c3c     HC  942   2.362   0.917   4.586 -1.2351 -0.5453 -0.2578
   59c3c     HC  943   2.433   0.801   4.705 -0.3655  0.0465 -0.1084
   60c3c     N4  944   5.376   4.586   4.625 -0.2893  0.3382 -0.0048
   60c3c     C1  945   5.422   4.717   4.669  0.4948  0.6734 -0.3300
   60c3c     C1  946   5.281   4.621   4.515  0.5527  0.0933 -0.1852
   60c3c     C2  947   5.438   4.802   4.533 -0.2569 -0.1338 -0.4694
   60c3c     C2  948   5.336   4.741   4.439  0.0694 -0.1643  0.3798
   60c3c     C1  949   5.493   4.511   4.571  0.3412  0.4178  0.7390
   60c3c     C1  950   5.325   4.492   4.730  0.3664  0.0532 -0.0625
   60c3c     H1  951   5.513   4.720   4.729  0.8369  1.0029 -0.8620
   60c3c     H1  952   5.348   4.773   4.726 -0.7065  0.4356 -1.6287
   60c3c     H1  953   5.258   4.532   4.456  3.2358 -2.3100  2.2300
   60c3c     H1  954   5.186   4.648   4.561 -0.5460 -2.4505 -0.8910
   60c3c     HC  955   5.541   4.787   4.502 -0.7385 -0.0562 -2.1659
   60c3c     HC  956   5.423   4.909   4.548 -0.1793 -0.0791 -0.7697
   60c3c     HC  957   5.375   4.709   4.342  0.1516 -0.5757  0.5459
   60c3c     HC  958   5.250   4.808   4.429  0.4377  0.6734  2.6412
   60c3c     H1  959   5.565   4.471   4.642  1.6241 -0.1148 -0.8357
   60c3c     H1  960   5.458   4.433   4.503  1.1727 -1.0279  1.9486
   60c3c     H1  961   5.553   4.577   4.508 -1.9187  1.6125 -0.2128
   60c3c     H1  962   5.289   4.399   4.688  1.1399  0.0885 -0.8046
   60c3c     H1  963   5.405   4.464   4.800  0.2669 -0.2767 -0.0822
   60c3c     C2  964   5.220   4.549   4.826 -1.3081  0.7376 -0.2771
   60c3c     HC  965   5.145   4.606   4.772 -0.0236  1.9899 -0.7733
   60c3c     HC  966   5.270   4.616   4.895  0.1052  1.2633 -1.7707
   60c3c     CT  967   5.152   4.441   4.906  0.3272 -0.4151 -0.2922
   60c3c     HC  968   5.219   4.413   4.988 -0.9975  0.4946  1.1202
   60c3c     HC  969   5.131   4.351   4.849 -0.5257 -0.7551  0.5419
   60c3c     HC  970   5.060   4.470   4.955  0.3103  0.1996 -0.6891
   61c3c     N4  971   1.960   1.028   3.570  0.1781 -0.3613 -0.2974
   61c3c     C1  972   1.962   1.158   3.643 -0.0550 -0.0317 -0.6297
   61c3c     C1  973   1.823   1.036   3.517 -0.5226 -0.5267  0.1050
   61c3c     C2  974   1.895   1.263   3.555  0.5117 -0.2244 -1.4193
   61c3c     C2  975   1.801   1.179   3.473 -0.1423 -0.1156 -0.9584
   61c3c     C1  976   2.061   1.029   3.463  0.3439  0.0951 -0.4827
   61c3c     C1  977   1.975   0.904   3.650 -0.0757 -0.3194 -0.3508
   61c3c     H1  978   2.063   1.178   3.678  0.3176 -0.0474 -1.6895
   61c3c     H1  979   1.905   1.147   3.736 -0.0628 -0.0340 -0.6350
   61c3c     H1  980   1.800   0.966   3.437 -0.1029 -0.1449 -0.3587
   61c3c     H1  981   1.750   1.023   3.596 -0.0103  0.6764  0.7971
   61c3c     HC  982   1.965   1.316   3.492  0.7780 -0.1722 -1.0826
   61c3c     HC  983   1.843   1.333   3.621 -0.4382 -1.3519 -0.9364
   61c3c     HC  984   1.814   1.193   3.366  0.2176  0.0479 -0.8951
   61c3c     HC  985   1.700   1.215   3.493 -0.2054  0.5838 -2.4373
   61c3c     H1  986   2.160   1.029   3.506  0.1687  1.3936 -0.0799
   61c3c     H1  987   2.052   0.939   3.401  1.1047 -0.6460  0.4623
   61c3c     H1  988   2.055   1.114   3.395  1.9696 -0.3714 -1.2293
   61c3c     H1  989   1.960   0.817   3.586  3.3805 -1.1515 -0.1238
   61c3c     H1  990   2.079   0.897   3.682  0.2447 -0.4029 -1.3958
   61c3c     C2  991   1.882   0.889   3.775  0.1557  0.2378 -0.2480
   61c3c     HC  992   1.776   0.899   3.755  0.3181  0.2903 -1.0846
   61c3c     HC  993   1.895   0.967   3.850 -0.0752 -0.3377  0.4036
   61c3c     CT  994   1.910   0.761   3.856  0.4685 -0.1736  0.1150
   61c3c     HC  995   1.818   0.704   3.868  0.4319 -0.0403  0.4841
   61c3c     HC  996   1.940   0.783   3.959 -0.4183 -0.3971  0.4201
   61c3c     HC  997   1.987   0.695   3.815  1.8142  0.5866  1.3670
   62c3c     N4  998   1.902   2.354   1.529 -0.5119 -0.3358  0.5153
   62c3c     C1  999   1.880   2.501   1.511  1.0108  0.1831 -0.0702
   62c3c     C1 1000   2.052   2.340   1.535  0.3956  0.0402  0.2131
   62c3c     C2 1001   1.989   2.562   1.607  0.3863 -0.8398 -0.6450
   62c3c     C2 1002   2.095   2.448   1.634 -0.1995 -0.3117  0.3091
   62c3c     C1 1003   1.842   2.322   1.656  0.4453 -0.5514 -0.1707
   62c3c     C1 1004   1.838   2.263   1.432  0.8846  0.3405 -0.6095
   62c3c     H1 1005   1.778   2.530   1.533  0.8398 -0.9220  0.6219
   62c3c     H1 1006   1.899   2.522   1.405  0.2495 -2.2656 -0.7026
   62c3c     H1 1007   2.075   2.240   1.571  2.7998  0.3382 -0.4147
   62c3c     H1 1008   2.098   2.359   1.438 -0.3635  2.1880  0.2371
   62c3c     HC 1009   1.939   2.592   1.700  1.8785  0.6742 -0.3101
   62c3c     HC 1010   2.023   2.655   1.561 -0.9963  0.0280  0.0231
   62c3c     HC 1011   2.084   2.415   1.737  0.0251  1.2948  0.8596
   62c3c     HC 1012   2.194   2.487   1.615  0.8645 -1.8011  2.5401
   62c3c     H1 1013   1.733   2.323   1.649  0.4182  2.2175  0.0785
   62c3c     H1 1014   1.877   2.224   1.686  0.1668 -0.8230 -0.7134
   62c3c     H1 1015   1.864   2.387   1.741 -0.3921 -1.7480  0.9738
   62c3c     H1 1016   1.831   2.164   1.478 -0.8086  0.6627 -0.1387
   62c3c     H1 1017   1.740   2.309   1.422 -0.5262 -2.1561  1.2704
   62c3c     C2 1018   1.897   2.257   1.286  0.4585  0.0861  0.0198
   62c3c     HC 1019   1.992   2.204   1.290  0.1844 -0.4216 -0.1536
   62c3c     HC 1020   1.907   2.358   1.244  3.2670 -0.0600  0.2147
   62c3c     CT 1021   1.811   2.173   1.201  1.2998 -0.0069 -0.0069
   62c3c     HC 1022   1.716   2.219   1.176  1.5302  0.3635 -0.2019
   62c3c     HC 1023   1.793   2.080   1.255  0.5995  0.1537  0.0431
   62c3c     HC 1024   1.859   2.138   1.109  3.7501  0.4885  1.0384
   63c3c     N4 1025   2.802   1.082   1.718 -0.5341 -0.2526 -0.0902
   63c3c     C1 1026   2.843   0.958   1.788 -0.2603 -0.4975 -0.2646
   63c3c     C1 1027   2.939   1.141   1.687  0.0425 -0.4298 -0.3465
   63c3c     C2 1028   2.951   1.005   1.891  0.3939 -0.1058 -0.1360
   63c3c     C2 1029   3.031   1.103   1.809  0.8037 -0.2015 -0.2380
   63c3c     C1 1030   2.730   1.050   1.591  0.5149  0.0273  0.3262
   63c3c     C1 1031   2.713   1.180   1.793 -0.3747  0.4548 -0.6829
   63c3c     H1 1032   2.882   0.889   1.713  0.5964 -0.0576 -0.2403
   63c3c     H1 1033   2.760   0.903   1.833 -0.8140  0.8042  0.3253
   63c3c     H1 1034   2.978   1.093   1.598 -0.0677  0.5731 -0.9488
   63c3c     H1 1035   2.931   1.249   1.673 -0.7927 -0.5063 -0.4938
   63c3c     HC 1036   3.025   0.925   1.897  0.7325  0.0230 -2.1826
   63c3c     HC 1037   2.927   1.049   1.988  0.7043  0.3451 -0.2600
   63c3c     HC 1038   3.117   1.045   1.777  0.4411 -0.2885 -1.0712
   63c3c     HC 1039   3.061   1.187   1.871  1.0620 -0.2083 -0.3538
   63c3c     H1 1040   2.627   1.016   1.602  0.1849  0.9969  0.3310
   63c3c     H1 1041   2.723   1.134   1.522 -1.5214 -0.1057  0.3587
   63c3c     H1 1042   2.774   0.966   1.538 -1.5008 -0.3043 -0.8431
   63c3c     H1 1043   2.697   1.272   1.737  1.2013  0.3026 -1.4032
   63c3c     H1 1044   2.621   1.121   1.793 -0.2618  0.2199 -3.1130
   63c3c     C2 1045   2.737   1.219   1.938  0.5924 -0.8594 -0.6073
   63c3c     HC 1046   2.834   1.268   1.947 -0.1079  0.7253 -1.4567
   63c3c     HC 1047   2.735   1.130   2.001  2.1662 -0.6316 -0.2072
   63c3c     CT 1048   2.634   1.313   2.000  0.3673 -0.5313  0.6595
   63c3c     HC 1049   2.652   1.334   2.106 -0.0300  0.4795  0.5326
   63c3c     HC 1050   2.532   1.276   1.990  0.2476  0.1589 -0.7109
   63c3c     HC 1051   2.632   1.411   1.954  1.8492 -0.4754  0.6946
   64c3c     N4 1052   2.357   4.967   2.182 -0.1743  0.1310 -0.0275
   64c3c     C1 1053   2.506   4.949   2.201  0.3900 -0.1149  0.2227
   64c3c     C1 1054   2.342   4.936   2.039 -0.3620 -0.0642  0.3941
   64c3c     C2 1055   2.545   4.837   2.113  0.0752  0.3223  0.1118
   64c3c     C2 1056   2.423   4.813   2.014  0.3632 -0.8356 -0.0493
   64c3c     C1 1057   2.276   4.867   2.254  0.6171  0.6185  0.5995
   64c3c     C1 1058   2.299   5.098   2.222 -0.5815  0.4176  0.1162
   64c3c     H1 1059   2.544   4.932   2.302 -0.7171 -1.0183  0.5033
   64c3c     H1 1060   2.567   5.029   2.160 -0.0241  0.2443  0.3013
   64c3c     H1 1061   2.239   4.917   2.010 -0.4236 -0.7115  1.0378
   64c3c     H1 1062   2.374   5.019   1.976  0.4488  0.1949  1.1261
   64c3c     HC 1063   2.560   4.745   2.169 -1.6681 -0.1710 -0.1905
   64c3c     HC 1064   2.638   4.862   2.062  0.4316  0.9024  1.0343
   64c3c     HC 1065   2.358   4.727   2.033 -0.6681  0.0804  0.6145
   64c3c     HC 1066   2.462   4.790   1.915 -1.5771 -1.4973 -0.6823
   64c3c     H1 1067   2.257   4.896   2.358 -1.7300  0.1431  0.3325
   64c3c     H1 1068   2.179   4.840   2.212 -0.7774  0.9569  3.4669
   64c3c     H1 1069   2.338   4.778   2.263  0.2460  0.2355 -0.5912
   64c3c     H1 1070   2.191   5.099   2.203 -0.2744 -0.4574 -1.7803
   64c3c     H1 1071   2.313   5.099   2.330 -1.3483 -0.4311  0.2237
   64c3c     C2 1072   2.373   5.227   2.164 -0.3684  0.6560 -0.1319
   64c3c     HC 1073   2.353   5.249   2.059  3.0580 -0.3934 -1.0485
   64c3c     HC 1074   2.481   5.220   2.172 -0.1858  2.4457 -0.7231
   64c3c     CT 1075   2.344   5.363   2.238  0.2864  0.0039  0.2739
   64c3c     HC 1076   2.399   5.447   2.196  1.7470 -0.2792  1.5726
   64c3c     HC 1077   2.372   5.350   2.342  0.5964  1.3880  0.3684
   64c3c     HC 1078   2.237   5.382   2.232 -0.0495 -1.4013  1.3494
   65c3c     N4 1079   5.307   1.754   3.554  0.1255  0.2613 -0.2922
   65c3c     C1 1080   5.327   1.826   3.686 -0.0460  0.0407  0.1380
   65c3c     C1 1081   5.420   1.659   3.557 -0.5910  0.2277  0.2152
   65c3c     C2 1082   5.366   1.720   3.791 -0.4160 -0.3146 -0.0313
   65c3c     C2 1083   5.438   1.618   3.706 -0.6089  0.0055 -0.0922
   65c3c     C1 1084   5.175   1.688   3.556 -0.7044  0.3847 -0.1982
   65c3c     C1 1085   5.298   1.847   3.438  0.2802  0.5288 -0.0926
   65c3c     H1 1086   5.242   1.889   3.712  0.3198  0.2951  0.7439
   65c3c     H1 1087   5.404   1.903   3.681 -1.4176  1.4258 -0.2119
   65c3c     H1 1088   5.392   1.574   3.495  0.0039  0.7908 -0.8499
   65c3c     H1 1089   5.515   1.699   3.522  0.6809 -1.9758  1.0545
   65c3c     HC 1090   5.276   1.675   3.832 -0.9793  0.4748 -0.4119
   65c3c     HC 1091   5.432   1.758   3.869 -1.8184 -1.2164  1.6406
   65c3c     HC 1092   5.405   1.519   3.736 -0.6711 -0.0180 -0.2385
   65c3c     HC 1093   5.545   1.609   3.724 -0.3115 -2.2514 -2.5669
   65c3c     H1 1094   5.098   1.761   3.583 -1.5105  0.1164 -1.7304
   65c3c     H1 1095   5.150   1.638   3.463 -1.0033  1.7229 -0.8578
   65c3c     H1 1096   5.168   1.604   3.624 -0.9909  2.4504  2.4010
   65c3c     H1 1097   5.261   1.796   3.349 -0.2542  1.4915 -0.4263
   65c3c     H1 1098   5.220   1.920   3.460  1.3019  1.4381  0.5456
   65c3c     C2 1099   5.426   1.924   3.405 -0.0339  0.0801 -0.2890
   65c3c     HC 1100   5.490   1.865   3.340  0.5226  0.7478 -0.3500
   65c3c     HC 1101   5.490   1.938   3.493  0.9021 -0.0865 -0.9333
   65c3c     CT 1102   5.403   2.062   3.350 -0.0498  0.1749  0.5310
   65c3c     HC 1103   5.343   2.124   3.417  0.1352 -0.2518  1.0859
   65c3c     HC 1104   5.346   2.061   3.256 -0.1852  0.3397  0.6096
   65c3c     HC 1105   5.494   2.118   3.331  0.2907 -0.0472  1.4819
   66c3c     N4 1106   4.824   5.667   5.579 -0.4664 -0.2393 -0.0681
   66c3c     C1 1107   4.907   5.778   5.613  0.1090 -0.0424 -0.5604
   66c3c     C1 1108   4.919   5.574   5.515 -0.5766 -0.3554 -0.0781
   66c3c     C2 1109   5.031   5.723   5.674  0.0024 -0.0997  0.2858
   66c3c     C2 1110   5.044   5.587   5.606 -0.2296 -0.4383  0.0183
   66c3c     C1 1111   4.760   5.602   5.696  0.7212  0.2321  0.0056
   66c3c     C1 1112   4.713   5.712   5.489 -0.2678  0.2266  0.1516
   66c3c     H1 1113   4.856   5.846   5.681  0.8384  0.0374 -0.0931
   66c3c     H1 1114   4.936   5.841   5.529 -0.4714 -0.0252 -0.7490
   66c3c     H1 1115   4.879   5.474   5.500 -1.0217 -0.0509 -0.9023
   66c3c     H1 1116   4.962   5.612   5.423  0.0973 -2.5491 -0.6839
   66c3c     HC 1117   5.021   5.716   5.782  2.0019 -0.5009  0.4673
   66c3c     HC 1118   5.116   5.786   5.648 -0.4523 -0.2260 -1.5923
   66c3c     HC 1119   5.055   5.505   5.677  0.0450  1.1918  1.8943
   66c3c     HC 1120   5.140   5.584   5.553 -1.5539  0.5364 -2.5070
   66c3c     H1 1121   4.706   5.673   5.760 -0.4557  0.3336 -1.0682
   66c3c     H1 1122   4.683   5.530   5.669  0.4266  0.8512 -0.8392
   66c3c     H1 1123   4.831   5.546   5.756  1.3510  0.8121 -0.1983
   66c3c     H1 1124   4.634   5.638   5.480  1.3429 -1.4475 -0.7213
   66c3c     H1 1125   4.673   5.801   5.536 -1.7925  0.6432 -1.8908
   66c3c     C2 1126   4.756   5.741   5.339 -0.3549 -0.2683 -0.4377
   66c3c     HC 1127   4.807   5.655   5.295 -0.1219 -0.7669  0.7956
   66c3c     HC 1128   4.815   5.832   5.334 -2.2330  0.9075 -1.7776
   66c3c     CT 1129   4.638   5.764   5.249 -0.4210 -0.2638 -0.4141
   66c3c     HC 1130   4.658   5.803   5.150  0.9016 -1.8448 -0.7831
   66c3c     HC 1131   4.568   5.835   5.293 -0.4787  0.0188 -0.9609
   66c3c     HC 1132   4.585   5.670   5.231 -0.7246  0.1517 -1.7026
   67c3c     N4 1133   1.708   4.714   2.236  0.0195 -0.3118  0.2531
   67c3c     C1 1134   1.816   4.708   2.125  0.1335 -0.4463  0.0082
   67c3c     C1 1135   1.728   4.837   2.307  0.7234 -0.6681 -0.3130
   67c3c     C2 1136   1.831   4.856   2.090 -0.4220  0.1261 -0.4805
   67c3c     C2 1137   1.754   4.943   2.190 -0.6876 -0.3316 -0.4435
   67c3c     C1 1138   1.581   4.716   2.157 -0.1472  1.4488 -0.0727
   67c3c     C1 1139   1.703   4.596   2.325 -0.7870  0.4737 -0.1589
   67c3c     H1 1140   1.802   4.641   2.041  0.4535  0.0062 -0.4055
   67c3c     H1 1141   1.912   4.677   2.165  0.1958 -0.5187 -0.1993
   67c3c     H1 1142   1.640   4.867   2.364  1.3307  0.1914  0.1827
   67c3c     H1 1143   1.817   4.841   2.370  0.4462 -0.2976  0.0613
   67c3c     HC 1144   1.800   4.884   1.989 -0.8396  0.6624 -0.2050
   67c3c     HC 1145   1.936   4.885   2.097 -0.6444  0.6885  0.6595
   67c3c     HC 1146   1.655   4.972   2.154 -1.2182 -0.7082  0.6738
   67c3c     HC 1147   1.804   5.036   2.215 -2.5996  1.3306 -2.6072
   67c3c     H1 1148   1.552   4.616   2.122  0.1113  1.4779 -0.3709
   67c3c     H1 1149   1.504   4.762   2.219  0.0761  3.0982 -0.9960
   67c3c     H1 1150   1.588   4.774   2.065  0.4792  1.1361 -0.2325
   67c3c     H1 1151   1.604   4.597   2.369  0.0083  0.7427  1.6397
   67c3c     H1 1152   1.701   4.512   2.255  0.9035  0.4694 -0.2195
   67c3c     C2 1153   1.814   4.584   2.434 -0.6656  0.4027 -0.4184
   67c3c     HC 1154   1.813   4.671   2.499  0.8614  0.0132  0.1445
   67c3c     HC 1155   1.913   4.587   2.389  0.1626  0.2151  1.3465
   67c3c     CT 1156   1.809   4.464   2.524  0.1330 -0.0279 -0.5138
   67c3c     HC 1157   1.835   4.377   2.464  0.2255 -0.1453 -0.3040
   67c3c     HC 1158   1.713   4.444   2.572  1.0650 -0.4756  1.2104
   67c3c     HC 1159   1.877   4.468   2.609 -2.2164  0.3717  1.4095
   68c3c     N4 1160   4.733   1.043   3.884 -0.2808  0.6727 -0.2770
   68c3c     C1 1161   4.634   0.991   3.785  0.2002  0.7032 -0.2491
   68c3c     C1 1162   4.686   1.011   4.019 -0.4878  0.2171 -0.6693
   68c3c     C2 1163   4.595   0.859   3.840  0.6294  0.5200 -0.0035
   68c3c     C2 1164   4.591   0.892   3.991 -0.2613  0.0032  0.3990
   68c3c     C1 1165   4.858   0.966   3.858 -0.2424  0.1772  0.2091
   68c3c     C1 1166   4.767   1.182   3.867  0.1237 -0.2637  0.4402
   68c3c     H1 1167   4.673   0.982   3.683  0.9184 -0.9094  0.1515
   68c3c     H1 1168   4.542   1.050   3.783  0.5862  1.3128 -0.0176
   68c3c     H1 1169   4.765   0.983   4.089  0.7435  2.0943 -1.2802
   68c3c     H1 1170   4.635   1.093   4.069  0.8332  0.5735  0.1143
   68c3c     HC 1171   4.666   0.781   3.813  1.4500  1.4010 -0.4410
   68c3c     HC 1172   4.503   0.822   3.796 -0.3476  0.4168  2.0630
   68c3c     HC 1173   4.621   0.807   4.052  2.4917 -1.5467 -2.9436
   68c3c     HC 1174   4.486   0.910   4.012  0.0673  0.8829  1.2914
   68c3c     H1 1175   4.895   0.981   3.757 -0.7203  0.2107  0.0389
   68c3c     H1 1176   4.938   0.995   3.927 -0.5484  2.8804 -0.4967
   68c3c     H1 1177   4.852   0.858   3.859 -0.6624  0.1880 -0.7537
   68c3c     H1 1178   4.848   1.202   3.936  1.7270 -2.2574 -0.8034
   68c3c     H1 1179   4.806   1.194   3.766  0.8653  1.1310  0.8745
   68c3c     C2 1180   4.655   1.283   3.885 -0.1606 -0.0545  0.3419
   68c3c     HC 1181   4.592   1.278   3.974  0.2632  1.4591  0.7558
   68c3c     HC 1182   4.581   1.267   3.807 -0.1313  0.0607  0.2890
   68c3c     CT 1183   4.716   1.421   3.878 -1.5157  0.6646  0.6295
   68c3c     HC 1184   4.782   1.445   3.961 -1.9250  2.7304  0.3776
   68c3c     HC 1185   4.643   1.501   3.874 -0.9356  1.1086 -2.1325
   68c3c     HC 1186   4.764   1.446   3.783  0.1443  1.9088  1.7572
   69c3c     N4 1187   1.898   0.648   2.656  0.5277  0.2652 -0.1520
   69c3c     C1 1188   1.936   0.632   2.512  0.2151  0.0958 -0.8323
   69c3c     C1 1189   1.854   0.787   2.674  0.1529 -0.1299 -1.1334
   69c3c     C2 1190   1.852   0.732   2.434  0.7166  0.2017  0.0737
   69c3c     C2 1191   1.816   0.845   2.535  0.4485  1.0752 -0.1440
   69c3c     C1 1192   1.772   0.569   2.660 -0.5597  0.0160 -0.1447
   69c3c     C1 1193   1.990   0.595   2.761 -0.3950  0.0303 -0.1958
   69c3c     H1 1194   1.928   0.530   2.473  0.4771 -0.3830  0.3440
   69c3c     H1 1195   2.039   0.665   2.498 -0.1750  1.7812  0.1542
   69c3c     H1 1196   1.777   0.810   2.748  0.9374 -0.9633 -0.0494
   69c3c     H1 1197   1.934   0.850   2.712 -1.4487  0.8896  0.6641
   69c3c     HC 1198   1.760   0.688   2.394  1.7346 -0.3286 -1.7333
   69c3c     HC 1199   1.899   0.771   2.344 -1.3048 -0.7296 -1.4361
   69c3c     HC 1200   1.711   0.875   2.525 -0.1048 -0.7932 -0.3566
   69c3c     HC 1201   1.883   0.923   2.501  1.0971  0.9252  0.7975
   69c3c     H1 1202   1.797   0.463   2.652  1.4083  0.3167  1.7108
   69c3c     H1 1203   1.720   0.582   2.754 -0.9671 -1.1547 -0.2002
   69c3c     H1 1204   1.703   0.591   2.579  0.4240  0.5945 -0.8356
   69c3c     H1 1205   1.935   0.596   2.855  0.3700  1.3269  0.2538
   69c3c     H1 1206   2.007   0.489   2.743  0.2565  0.0663  0.1902
   69c3c     C2 1207   2.123   0.668   2.781  0.1219  0.8149  0.0894
   69c3c     HC 1208   2.112   0.769   2.821 -2.7228  0.3584  0.5308
   69c3c     HC 1209   2.175   0.685   2.687  1.3877  0.2492  0.6617
   69c3c     CT 1210   2.219   0.582   2.869  0.1323 -0.2481  0.2002
   69c3c     HC 1211   2.205   0.474   2.855  0.8944 -0.3827  0.4684
   69c3c     HC 1212   2.201   0.597   2.975 -0.7432 -1.7884  0.2934
   69c3c     HC 1213   2.324   0.604   2.851  0.4986  0.7650  3.3955
   70c3c     N4 1214   3.347   2.061   2.151 -0.0568  0.1927  0.1705
   70c3c     C1 1215   3.472   2.098   2.213 -0.1527 -1.0294  0.3248
   70c3c     C1 1216   3.321   2.161   2.053  0.4815  0.0694 -0.2116
   70c3c     C2 1217   3.562   2.156   2.100  0.2577 -0.3604  0.5306
   70c3c     C2 1218   3.458   2.208   2.000  0.3683  0.0374 -0.1721
   70c3c     C1 1219   3.368   1.929   2.088 -0.2442 -0.6984  0.1943
   70c3c     C1 1220   3.226   2.038   2.230 -0.3499  0.2918 -0.4623
   70c3c     H1 1221   3.524   2.017   2.265  0.4740 -0.9276 -0.1323
   70c3c     H1 1222   3.456   2.176   2.288 -0.1511 -0.8173  0.1050
   70c3c     H1 1223   3.257   2.123   1.973  0.0955  0.4827 -0.1068
   70c3c     H1 1224   3.273   2.248   2.098 -0.5001 -0.3962 -0.3499
   70c3c     HC 1225   3.630   2.083   2.056 -0.8640 -1.6805  0.9584
   70c3c     HC 1226   3.618   2.241   2.137 -0.2604 -0.7084  2.1339
   70c3c     HC 1227   3.473   2.174   1.897  0.6944  0.8917 -0.4124
   70c3c     HC 1228   3.456   2.317   2.002 -1.0423  0.0072  1.6095
   70c3c     H1 1229   3.407   1.861   2.164 -1.0330 -1.7417 -0.3287
   70c3c     H1 1230   3.276   1.888   2.046 -0.9623 -0.8050  1.8196
   70c3c     H1 1231   3.438   1.922   2.005 -1.5176  1.6090 -1.1113
   70c3c     H1 1232   3.140   2.039   2.163 -1.1870 -0.2406  0.5985
   70c3c     H1 1233   3.232   1.941   2.279 -2.0861  0.9182  1.0663
   70c3c     C2 1234   3.191   2.129   2.349  0.2556 -0.2416  0.3332
   70c3c     HC 1235   3.209   2.234   2.325 -0.2568 -0.5267 -1.3731
   70c3c     HC 1236   3.251   2.097   2.434 -0.4433 -1.9397  0.1978
   70c3c     CT 1237   3.046   2.105   2.392  0.6581  0.5019  0.7364
   70c3c     HC 1238   3.028   2.001   2.420 -1.0151  0.7596  0.7193
   70c3c     HC 1239   2.974   2.126   2.312  1.2178  0.4058  0.2091
   70c3c     HC 1240   3.023   2.167   2.479 -0.3863 -0.2519  1.0171
   71c3c     N4 1241   5.753   2.857   0.729 -0.0445 -0.5248  0.9617
   71c3c     C1 1242   5.840   2.882   0.843 -0.1449 -0.2570  0.4274
   71c3c     C1 1243   5.809   2.745   0.656 -0.0245  0.1311 -0.6088
   71c3c     C2 1244   5.898   2.747   0.881 -0.4884  0.1251 -0.2562
   71c3c     C2 1245   5.859   2.655   0.766 -0.2258 -0.2791  0.1553
   71c3c     C1 1246   5.620   2.823   0.776 -0.3958 -0.6025  0.1895
   71c3c     C1 1247   5.733   2.976   0.645 -0.3795  0.7245  0.0259
   71c3c     H1 1248   5.789   2.929   0.927 -1.2120  0.6311 -0.6822
   71c3c     H1 1249   5.922   2.951   0.823  0.2598 -0.2095  2.1580
   71c3c     H1 1250   5.737   2.697   0.589 -0.5854 -0.9435  0.7183
   71c3c     H1 1251   5.898   2.766   0.598  0.6628 -0.8448  0.0733
   71c3c     HC 1252   5.858   2.716   0.978 -2.0660  0.6552 -0.7262
   71c3c     HC 1253   6.006   2.748   0.899 -0.4724 -0.2990 -0.3219
   71c3c     HC 1254   5.787   2.580   0.797 -1.6308 -0.1261 -2.6320
   71c3c     HC 1255   5.947   2.595   0.741 -0.9067 -1.9740  1.7372
   71c3c     H1 1256   5.574   2.888   0.850  0.1730 -0.4200  0.3814
   71c3c     H1 1257   5.553   2.807   0.692  1.4771 -0.6296 -1.3096
   71c3c     H1 1258   5.615   2.732   0.837 -1.6792 -0.4481  0.3234
   71c3c     H1 1259   5.656   2.952   0.572  0.3411 -0.5208 -0.3403
   71c3c     H1 1260   5.681   3.055   0.700 -0.8038  0.5483 -0.1203
   71c3c     C2 1261   5.859   3.025   0.576  0.0384  0.0025 -0.1278
   71c3c     HC 1262   5.910   2.951   0.514  0.9186 -0.0836  0.6755
   71c3c     HC 1263   5.934   3.064   0.646  0.7119 -0.0169 -0.8284
   71c3c     CT 1264   5.822   3.144   0.494  0.8785 -0.7915 -0.2655
   71c3c     HC 1265   5.803   3.233   0.554  2.8017 -0.6323  0.1470
   71c3c     HC 1266   5.735   3.121   0.433  0.3921  1.0679 -0.2924
   71c3c     HC 1267   5.902   3.174   0.426  0.6991 -1.4933 -0.7955
   72c3c     N4 1268   2.159   5.696   3.320  0.1590  0.1393 -0.2875
   72c3c     C1 1269   2.221   5.815   3.387  0.0286  0.5086 -0.3471
   72c3c     C1 1270   2.061   5.648   3.424 -0.5812 -0.9122 -0.2435
   72c3c     C2 1271   2.108   5.885   3.461 -0.1135 -0.4316 -0.4100
   72c3c     C2 1272   2.001   5.785   3.479  0.3556 -0.4457  0.6324
   72c3c     C1 1273   2.088   5.752   3.206 -0.5200 -0.4098  0.1361
   72c3c     C1 1274   2.250   5.594   3.268 -0.1000 -0.1730  0.3525
   72c3c     H1 1275   2.280   5.880   3.322  0.4787 -0.4756 -0.9290
   72c3c     H1 1276   2.290   5.772   3.460 -0.2437  0.0986 -0.3334
   72c3c     H1 1277   1.987   5.580   3.382 -0.6341 -0.0402 -1.5725
   72c3c     H1 1278   2.118   5.594   3.500  0.9598  0.0428 -0.7009
   72c3c     HC 1279   2.071   5.961   3.392  2.3263  0.9866 -0.2218
   72c3c     HC 1280   2.149   5.927   3.553  2.1414 -0.4395 -1.3671
   72c3c     HC 1281   1.913   5.821   3.425  0.7344 -1.4508 -0.6881
   72c3c     HC 1282   1.984   5.784   3.586 -2.2181 -0.1738  0.2522
   72c3c     H1 1283   2.157   5.793   3.132 -1.7110  0.8704 -0.2926
   72c3c     H1 1284   2.033   5.672   3.157 -2.6103 -0.9295  3.1938
   72c3c     H1 1285   2.013   5.828   3.229  0.6018  0.5740  0.6451
   72c3c     H1 1286   2.194   5.526   3.203 -0.0949  0.0781  0.0813
   72c3c     H1 1287   2.325   5.639   3.203 -0.6540 -0.1797 -0.3075
   72c3c     C2 1288   2.332   5.508   3.363  0.3698 -0.3279 -0.1302
   72c3c     HC 1289   2.260   5.435   3.400 -0.2954  1.4208  2.1997
   72c3c     HC 1290   2.361   5.564   3.452  0.9304  0.1334 -0.6023
   72c3c     CT 1291   2.452   5.441   3.295  0.2693 -0.4886  0.0315
   72c3c     HC 1292   2.423   5.410   3.195 -0.7715  0.1703  0.1121
   72c3c     HC 1293   2.485   5.357   3.355  0.4210 -0.3600  0.1274
   72c3c     HC 1294   2.538   5.506   3.280  0.6505 -1.2971 -1.3275
   73c3c     N4 1295   5.215   4.043   4.374  0.0670 -0.1706  0.8121
   73c3c     C1 1296   5.142   4.071   4.499  0.4529 -0.1071  0.0664
   73c3c     C1 1297   5.111   3.986   4.290  0.5906 -0.7781  0.7090
   73c3c     C2 1298   4.997   4.101   4.460 -0.0693  0.3189  0.4203
   73c3c     C2 1299   4.987   4.064   4.313 -0.3718 -0.7308  0.0079
   73c3c     C1 1300   5.254   4.169   4.311  0.1204 -0.2568 -0.4785
   73c3c     C1 1301   5.338   3.962   4.388 -0.1649  0.7695 -0.0960
   73c3c     H1 1302   5.192   4.152   4.552 -1.8628  1.6210 -0.3499
   73c3c     H1 1303   5.141   3.991   4.573  0.8707 -0.1123  0.0694
   73c3c     H1 1304   5.128   3.983   4.182 -1.8783 -0.7746  0.2889
   73c3c     H1 1305   5.094   3.883   4.322 -0.7670 -0.8099 -0.0955
   73c3c     HC 1306   4.969   4.204   4.481 -0.5605 -0.1019  1.9043
   73c3c     HC 1307   4.932   4.039   4.522  0.3363 -0.4728  0.0633
   73c3c     HC 1308   4.995   4.156   4.254  0.3538 -0.4350  0.5677
   73c3c     HC 1309   4.896   4.008   4.290 -1.7703  0.5326  2.3058
   73c3c     H1 1310   5.343   4.215   4.354  0.3252  0.8428 -2.0595
   73c3c     H1 1311   5.278   4.165   4.205 -0.0414 -0.0197 -0.5246
   73c3c     H1 1312   5.184   4.251   4.325  1.2092  0.6429 -0.2121
   73c3c     H1 1313   5.387   3.958   4.290  1.2819 -1.1526  0.6632
   73c3c     H1 1314   5.404   4.006   4.462 -0.4684 -0.1541  0.7411
   73c3c     C2 1315   5.321   3.820   4.448 -1.6476 -0.0408 -0.1514
   73c3c     HC 1316   5.245   3.761   4.396  0.0062 -0.7479 -1.7839
   73c3c     HC 1317   5.285   3.825   4.551 -0.8116  1.2097  0.0852
   73c3c     CT 1318   5.454   3.742   4.431 -1.0124 -0.2509 -0.1840
   73c3c     HC 1319   5.537   3.776   4.494 -1.3025 -2.3709  1.4332
   73c3c     HC 1320   5.489   3.747   4.328  0.5452  1.3811  0.3985
   73c3c     HC 1321   5.443   3.637   4.458 -0.4561 -0.7258 -1.7838
   74c3c     N4 1322   5.460   4.226   5.343  0.1820 -0.2440  0.3931
   74c3c     C1 1323   5.378   4.347   5.314 -0.4514 -0.1210  0.5641
   74c3c     C1 1324   5.363   4.128   5.389 -0.0050 -0.0473 -0.1587
   74c3c     C2 1325   5.247   4.295   5.257 -0.2556  0.1617 -0.6407
   74c3c     C2 1326   5.236   4.150   5.304 -0.3942 -0.3540 -0.0181
   74c3c     C1 1327   5.511   4.182   5.213  0.1504  0.5804  0.1002
   74c3c     C1 1328   5.578   4.249   5.429 -0.4507 -0.5613  0.2533
   74c3c     H1 1329   5.424   4.422   5.249 -0.0616 -0.8041  0.0366
   74c3c     H1 1330   5.352   4.398   5.407 -1.7059 -0.3707  0.3500
   74c3c     H1 1331   5.399   4.025   5.381  1.4374  0.5130 -1.1204
   74c3c     H1 1332   5.342   4.138   5.495  0.3437 -1.9295  0.1180
   74c3c     HC 1333   5.254   4.297   5.148  0.9445 -0.3712 -0.5839
   74c3c     HC 1334   5.155   4.349   5.278 -0.2209  0.1625 -0.4952
   74c3c     HC 1335   5.237   4.085   5.216  0.1201 -1.9336  1.1390
   74c3c     HC 1336   5.143   4.129   5.357 -0.2523 -0.2509  0.2683
   74c3c     H1 1337   5.560   4.264   5.161 -0.8885  0.5103 -1.0076
   74c3c     H1 1338   5.585   4.102   5.216  1.1342  1.4920  0.6453
   74c3c     H1 1339   5.440   4.154   5.135 -0.1753 -0.3785  0.7249
   74c3c     H1 1340   5.634   4.156   5.436  0.6722  0.0393 -0.6017
   74c3c     H1 1341   5.643   4.321   5.380 -0.1149 -1.1060 -0.1026
   74c3c     C2 1342   5.551   4.295   5.580 -0.8636 -0.4969  0.2081
   74c3c     HC 1343   5.479   4.229   5.628 -1.4312 -0.1473 -0.1535
   74c3c     HC 1344   5.507   4.395   5.582 -0.1018 -0.1859  1.7943
   74c3c     CT 1345   5.681   4.299   5.665 -0.0505 -0.3157 -0.1048
   74c3c     HC 1346   5.761   4.356   5.618 -0.2594 -0.5166 -0.7179
   74c3c     HC 1347   5.724   4.200   5.676 -1.1871 -0.7749  0.3457
   74c3c     HC 1348   5.653   4.339   5.762 -1.8087 -0.6609 -0.4449
   75c3c     N4 1349   5.535   2.137   1.530 -0.2378 -0.7055  0.6240
   75c3c     C1 1350   5.411   2.178   1.472  0.0970 -0.9389  0.5402
   75c3c     C1 1351   5.619   2.258   1.541  0.1816 -0.5652  0.4668
   75c3c     C2 1352   5.383   2.316   1.533  0.6879 -0.3545 -0.2835
   75c3c     C2 1353   5.519   2.366   1.579  0.3792 -0.3996 -0.2152
   75c3c     C1 1354   5.509   2.089   1.668  0.5380 -0.3407  0.4016
   75c3c     C1 1355   5.610   2.028   1.458 -0.1764 -0.4633  0.4763
   75c3c     H1 1356   5.326   2.111   1.481 -0.3533 -0.2935  1.1761
   75c3c     H1 1357   5.420   2.203   1.366 -0.1224 -0.7782  0.5594
   75c3c     H1 1358   5.705   2.251   1.607  0.0531 -0.9736  0.5908
   75c3c     H1 1359   5.655   2.278   1.440  0.4946  1.0219  0.8789
   75c3c     HC 1360   5.314   2.313   1.617  1.9140 -0.6935  0.7326
   75c3c     HC 1361   5.344   2.385   1.459 -0.5516 -0.3005  0.4096
   75c3c     HC 1362   5.513   2.384   1.686 -0.5723 -1.2194 -0.1210
   75c3c     HC 1363   5.547   2.460   1.532  0.7082 -0.5912 -0.4105
   75c3c     H1 1364   5.454   1.994   1.665  1.0371 -0.6709  1.3649
   75c3c     H1 1365   5.598   2.078   1.729 -0.3914 -2.2475  1.4747
   75c3c     H1 1366   5.446   2.154   1.729  0.9124  0.0041  0.4193
   75c3c     H1 1367   5.716   2.023   1.482 -0.1788 -0.3403  0.5166
   75c3c     H1 1368   5.567   1.933   1.488 -0.1830 -1.0264 -1.2644
   75c3c     C2 1369   5.593   2.029   1.304  0.2153  0.0585  0.2303
   75c3c     HC 1370   5.637   2.119   1.263  2.0401 -0.6167  0.6359
   75c3c     HC 1371   5.489   2.021   1.273  0.0023 -1.5204  1.2438
   75c3c     CT 1372   5.658   1.909   1.239  0.7119 -0.0693  0.4115
   75c3c     HC 1373   5.609   1.816   1.268  0.3225  0.1206  0.3724
   75c3c     HC 1374   5.762   1.899   1.270  0.4970 -1.5818  0.6996
   75c3c     HC 1375   5.652   1.918   1.131  0.3993 -1.1016  0.3399
   76fsi    FSI 1376   2.460   0.936   1.986 -0.5613  0.1158 -0.7281
   76fsi    SBT 1377   2.444   0.988   2.137 -0.2331 -0.1884 -0.0424
   76fsi    NBT 1378   2.590   1.010   2.181 -0.2677  0.4167 -0.2805
   76fsi    OBT 1379   2.374   1.112   2.131 -0.1024 -0.3634  1.2949
   76fsi    OBT 1380   2.371   0.876   2.197  0.0887  0.3881 -0.8038
   76fsi    SBT 1381   2.685   0.916   2.261  0.0566 -0.0030 -0.0537
   76fsi    OBT 1382   2.628   0.861   2.382 -0.6208  0.5146 -0.2088
   76fsi    OBT 1383   2.814   0.971   2.279 -0.4168  0.1377 -0.1342
   76fsi    FSI 1384   2.703   0.791   2.169 -0.4739 -0.2752  0.1130
   77fsi    FSI 1385   2.054   3.016   2.508 -0.1987  0.5754  1.0006
   77fsi    SBT 1386   2.129   2.919   2.415 -0.0122  0.1269 -0.1885
   77fsi    NBT 1387   2.097   2.785   2.481  0.1839  0.0218  0.3263
   77fsi    OBT 1388   2.072   2.936   2.281 -0.1973 -0.8294 -0.0623
   77fsi    OBT 1389   2.266   2.955   2.432 -0.3582  0.3668  0.8075
   77fsi    SBT 1390   1.988   2.675   2.448 -0.2155 -0.0858  0.0588
   77fsi    OBT 1391   2.054   2.562   2.397  0.0249  0.1543  0.2173
   77fsi    OBT 1392   1.868   2.715   2.386 -0.4827  0.4542  0.3670
   77fsi    FSI 1393   1.946   2.637   2.598  0.1075  1.1818  0.4681
   78fsi    FSI 1394   4.409   1.245   2.650 -0.4435  0.0268  0.3840
   78fsi    SBT 1395   4.404   1.324   2.520  0.3034 -0.1363 -0.1042
   78fsi    NBT 1396   4.285   1.415   2.557 -0.3135  0.4574 -0.6371
   78fsi    OBT 1397   4.531   1.396   2.521  0.4761  0.1294 -0.3096
   78fsi    OBT 1398   4.370   1.223   2.419 -0.1203  0.1880 -0.2201
   78fsi    SBT 1399   4.129   1.413   2.520 -0.6938 -0.7423  0.1360
   78fsi    OBT 1400   4.082   1.292   2.468 -0.3655  0.0175 -0.5816
   78fsi    OBT 1401   4.081   1.537   2.464 -0.3480 -0.0746  0.4896
   78fsi    FSI 1402   4.066   1.410   2.647 -0.5859 -0.1250  0.3570
   79fsi    FSI 1403   3.485   1.943   2.540 -0.0622 -0.4713 -0.8252
   79fsi    SBT 1404   3.460   1.792   2.553 -0.0613 -0.3885  0.1359
   79fsi    NBT 1405   3.303   1.781   2.569 -0.0936  0.2858  0.0774
   79fsi    OBT 1406   3.505   1.753   2.422  0.1122 -1.2129  0.4176
   79fsi    OBT 1407   3.544   1.766   2.667 -0.3653 -0.0931  0.6374
   79fsi    SBT 1408   3.202   1.760   2.693 -0.1403 -0.1384  0.2273
   79fsi    OBT 1409   3.269   1.751   2.820  0.4504 -0.2758 -0.6019
   79fsi    OBT 1410   3.099   1.662   2.665  0.1134 -0.0766  0.5290
   79fsi    FSI 1411   3.122   1.901   2.700 -0.1846 -0.2074 -0.1821
   80fsi    FSI 1412   3.723   1.890   1.955  0.0962 -0.3483  0.4379
   80fsi    SBT 1413   3.869   1.843   1.944  0.4032  0.2453 -0.0032
   80fsi    NBT 1414   3.947   1.976   1.961 -0.3472  0.1221 -0.4699
   80fsi    OBT 1415   3.880   1.749   2.054 -0.0228 -0.0028  0.4341
   80fsi    OBT 1416   3.871   1.795   1.808  0.5382 -0.4092  0.2465
   80fsi    SBT 1417   3.981   2.057   2.094 -0.2012 -0.1915  0.5070
   80fsi    OBT 1418   3.873   2.062   2.191 -0.3908 -0.1119  0.2425
   80fsi    OBT 1419   4.042   2.180   2.063  0.1425 -0.3148  0.2436
   80fsi    FSI 1420   4.094   1.975   2.170  0.1233 -0.7564  0.4520
   81fsi    FSI 1421   1.545   2.110   3.228  0.2224  0.6161  0.4270
   81fsi    SBT 1422   1.638   2.100   3.102  0.3503  0.2855  0.3803
   81fsi    NBT 1423   1.703   1.963   3.119  0.8463  0.9045  0.3336
   81fsi    OBT 1424   1.547   2.106   2.996  0.9139  0.7015  0.1450
   81fsi    OBT 1425   1.723   2.218   3.116 -0.1979  0.3338  0.5000
   81fsi    SBT 1426   1.678   1.823   3.043  0.2592 -0.1981 -0.1470
   81fsi    OBT 1427   1.567   1.747   3.085 -0.3041  0.8341 -0.7861
   81fsi    OBT 1428   1.800   1.755   3.024  0.2454  1.0606  0.1512
   81fsi    FSI 1429   1.644   1.868   2.895 -0.0623 -0.6341 -0.2189
   82fsi    FSI 1430   4.635   1.327   3.531  0.7261 -0.5396  0.8334
   82fsi    SBT 1431   4.505   1.282   3.454  0.2597 -0.1378  0.6432
   82fsi    NBT 1432   4.555   1.257   3.303 -0.2451 -0.0998  0.1000
   82fsi    OBT 1433   4.455   1.162   3.524 -0.0099 -0.9049 -0.3594
   82fsi    OBT 1434   4.418   1.397   3.470 -0.4837 -0.5029 -0.1300
   82fsi    SBT 1435   4.599   1.135   3.216  0.1873 -0.4082 -0.1765
   82fsi    OBT 1436   4.606   1.006   3.279 -0.2692  0.1886  0.0939
   82fsi    OBT 1437   4.718   1.174   3.146 -0.5077 -0.2652  0.0222
   82fsi    FSI 1438   4.493   1.130   3.099 -0.9295 -0.1907  0.1090
   83fsi    FSI 1439   4.290   1.212   2.016 -0.2183 -0.2732 -0.4990
   83fsi    SBT 1440   4.230   1.336   2.092  0.0562 -0.0853 -0.1444
   83fsi    NBT 1441   4.356   1.407   2.163 -0.0678 -0.3876  0.1289
   83fsi    OBT 1442   4.157   1.421   2.003  0.5264 -0.6290  0.2869
   83fsi    OBT 1443   4.147   1.269   2.184  0.1464 -0.1975 -1.1603
   83fsi    SBT 1444   4.407   1.554   2.134  0.1701 -0.8104  0.1943
   83fsi    OBT 1445   4.421   1.586   1.995 -0.4786 -0.5727  0.9398
   83fsi    OBT 1446   4.517   1.585   2.221 -0.9029  0.6934  0.4113
   83fsi    FSI 1447   4.280   1.652   2.186 -0.8494  0.2364  0.1660
   84fsi    FSI 1448   2.824   4.648   6.074  0.0887  0.1638  0.3056
   84fsi    SBT 1449   2.854   4.701   5.921  0.0353  0.2453 -0.0591
   84fsi    NBT 1450   2.765   4.616   5.835  0.9468  1.2157  0.7504
   84fsi    OBT 1451   2.840   4.844   5.911 -0.1423  0.2775  1.1356
   84fsi    OBT 1452   2.986   4.653   5.902  0.8026  0.0188 -0.0868
   84fsi    SBT 1453   2.609   4.638   5.812 -0.2710  0.0936 -0.2858
   84fsi    OBT 1454   2.552   4.546   5.718  0.2222 -0.0163 -0.4712
   84fsi    OBT 1455   2.564   4.774   5.803 -0.9385 -0.0807  0.1877
   84fsi    FSI 1456   2.538   4.610   5.957  0.5233 -0.9993 -0.2262
   85fsi    FSI 1457   5.021   4.539   5.709  0.2524  0.4960 -0.1248
   85fsi    SBT 1458   5.148   4.448   5.686  0.1817  0.0434  0.2170
   85fsi    NBT 1459   5.265   4.547   5.709  0.3208 -0.0566  0.1369
   85fsi    OBT 1460   5.133   4.342   5.783 -0.0463  0.7002  0.4677
   85fsi    OBT 1461   5.136   4.409   5.550  0.6795  0.1277 -0.0641
   85fsi    SBT 1462   5.338   4.586   5.842  0.1269  0.0441  0.1350
   85fsi    OBT 1463   5.255   4.614   5.956 -0.0631  0.0552  0.0925
   85fsi    OBT 1464   5.450   4.672   5.814  0.3147  0.1624  0.3405
   85fsi    FSI 1465   5.417   4.456   5.886  0.2544  0.1743 -0.2397
   86fsi    FSI 1466   1.674   2.472   1.985  0.3239  0.0330  0.4265
   86fsi    SBT 1467   1.530   2.502   2.022 -0.1209 -0.1618  0.2437
   86fsi    NBT 1468   1.438   2.443   1.906 -0.0653 -0.3262  0.1523
   86fsi    OBT 1469   1.511   2.433   2.144 -0.2567  0.6707  0.9154
   86fsi    OBT 1470   1.531   2.644   2.041  0.0317 -0.1276  0.0965
   86fsi    SBT 1471   1.382   2.519   1.781  0.0966  0.1795  0.5136
   86fsi    OBT 1472   1.424   2.657   1.785  0.1830 -0.2579  0.6408
   86fsi    OBT 1473   1.246   2.485   1.756  0.1667  0.1614  0.7511
   86fsi    FSI 1474   1.471   2.461   1.664 -0.2233  0.9180  0.8706
   87fsi    FSI 1475   1.927   3.169   1.858 -0.2785 -0.1955 -0.1132
   87fsi    SBT 1476   2.021   3.052   1.844 -0.0286 -0.0413  0.4631
   87fsi    NBT 1477   1.919   2.938   1.802  0.5249  0.2291 -0.8128
   87fsi    OBT 1478   2.113   3.092   1.743  0.0807 -0.1497 -0.1980
   87fsi    OBT 1479   2.074   3.024   1.971  0.4894  0.6467  0.2416
   87fsi    SBT 1480   1.838   2.840   1.900 -0.1858 -0.2692  0.4140
   87fsi    OBT 1481   1.730   2.779   1.832 -0.3395  0.6009  0.3237
   87fsi    OBT 1482   1.809   2.900   2.027 -0.0488  0.3348 -0.4014
   87fsi    FSI 1483   1.937   2.722   1.933 -0.0572  0.4310  1.1063
   88fsi    FSI 1484   4.353   0.908   4.320 -0.1327 -0.6264 -0.3395
   88fsi    SBT 1485   4.477   0.881   4.414  0.1698 -0.7283 -0.1800
   88fsi    NBT 1486   4.463   1.005   4.505 -0.1710 -0.1844 -1.4559
   88fsi    OBT 1487   4.450   0.753   4.475 -0.3087 -0.1052  0.2564
   88fsi    OBT 1488   4.586   0.893   4.322  0.1156  0.0907 -0.1377
   88fsi    SBT 1489   4.566   1.119   4.529  0.5083 -0.3333  0.3752
   88fsi    OBT 1490   4.504   1.236   4.582 -0.2748 -0.3531  0.3687
   88fsi    OBT 1491   4.660   1.137   4.424 -0.2479 -0.8426 -0.2156
   88fsi    FSI 1492   4.653   1.069   4.651  0.1126  0.3063  0.6441
   89fsi    FSI 1493   4.805   1.697   3.901  0.5092 -0.0324 -0.6315
   89fsi    SBT 1494   4.694   1.802   3.859 -0.3672  0.0215  0.1898
   89fsi    NBT 1495   4.711   1.813   3.704 -0.2895 -0.3351 -0.2195
   89fsi    OBT 1496   4.573   1.737   3.891 -0.1600  0.3719  0.4098
   89fsi    OBT 1497   4.729   1.921   3.931 -0.2004 -0.5872 -0.4886
   89fsi    SBT 1498   4.606   1.785   3.588 -0.2195 -0.3342  0.2089
   89fsi    OBT 1499   4.628   1.856   3.464 -0.0272 -0.4839  0.4389
   89fsi    OBT 1500   4.465   1.783   3.627 -0.3484 -0.2735  0.0752
   89fsi    FSI 1501   4.634   1.633   3.548  0.7922 -0.7281 -0.0253
   90fsi    FSI 1502   2.147   1.395   1.569 -0.0121 -0.2617  0.6524
   90fsi    SBT 1503   2.277   1.324   1.625 -0.2122  0.1050  0.2810
   90fsi    NBT 1504   2.236   1.207   1.719  0.4295 -0.0879 -0.3754
   90fsi    OBT 1505   2.337   1.282   1.504 -0.4934  0.0434 -0.1601
   90fsi    OBT 1506   2.346   1.423   1.697 -0.1638 -0.5982 -0.0866
   90fsi    SBT 1507   2.175   1.065   1.688  0.1091  0.1557  0.1507
   90fsi    OBT 1508   2.080   1.060   1.580  0.4080  0.3143  0.1235
   90fsi    OBT 1509   2.133   0.997   1.810 -0.3743 -0.0149 -0.3956
   90fsi    FSI 1510   2.292   0.973   1.632  0.1155  0.5149  0.3583
   91fsi    FSI 1511   5.764   4.247   4.227  0.1278 -0.4185  0.5227
   91fsi    SBT 1512   5.614   4.197   4.245  0.3906  0.0932  0.2338
   91fsi    NBT 1513   5.538   4.277   4.135  0.2504 -0.4090 -0.1046
   91fsi    OBT 1514   5.622   4.059   4.211 -0.0652 -0.1744 -0.4393
   91fsi    OBT 1515   5.583   4.246   4.374  0.5470  0.3397  0.1404
   91fsi    SBT 1516   5.482   4.427   4.137 -0.0894 -0.1965 -0.3212
   91fsi    OBT 1517   5.538   4.510   4.244  0.1341 -0.3322  0.4900
   91fsi    OBT 1518   5.340   4.425   4.122 -0.1083  0.3342  0.3827
   91fsi    FSI 1519   5.533   4.496   4.002  0.0754  0.2341 -0.2285
   92fsi    FSI 1520   3.399   4.535   5.090  0.5715  0.1017  0.3374
   92fsi    SBT 1521   3.333   4.439   5.190 -0.2772  0.1095  0.1921
   92fsi    NBT 1522   3.406   4.457   5.331 -0.5673  0.2919  0.3395
   92fsi    OBT 1523   3.194   4.484   5.185 -0.2365  0.8090  0.1222
   92fsi    OBT 1524   3.370   4.312   5.131  0.1875 -0.0332  0.1350
   92fsi    SBT 1525   3.367   4.388   5.467 -0.3371  0.0581  0.0180
   92fsi    OBT 1526   3.232   4.336   5.473 -0.3452 -0.1967 -0.0303
   92fsi    OBT 1527   3.424   4.448   5.587 -0.0219  0.1157  0.0005
   92fsi    FSI 1528   3.458   4.257   5.465 -0.0187 -0.0035  0.0883
   93fsi    FSI 1529   2.325   6.356   3.642  0.2730 -0.1107 -0.5791
   93fsi    SBT 1530   2.404   6.211   3.639  0.0712  0.0145  0.3907
   93fsi    NBT 1531   2.550   6.251   3.591 -0.5266  0.3776  0.1250
   93fsi    OBT 1532   2.381   6.151   3.767 -0.4812  0.5533 -0.1059
   93fsi    OBT 1533   2.332   6.138   3.538  0.0341  0.3254 -0.2383
   93fsi    SBT 1534   2.668   6.297   3.681  0.2716 -0.1378 -0.5560
   93fsi    OBT 1535   2.769   6.339   3.595 -0.5981 -0.0869  0.5332
   93fsi    OBT 1536   2.701   6.216   3.789 -0.5654 -0.1302  0.0775
   93fsi    FSI 1537   2.612   6.427   3.742 -0.4694 -0.0768  0.9061
   94fsi    FSI 1538   5.273   1.075   3.734  0.9536 -0.3933 -0.4927
   94fsi    SBT 1539   5.160   1.182   3.764 -0.4019  0.1443 -0.5019
   94fsi    NBT 1540   5.045   1.129   3.672 -0.0400  0.0892 -0.1287
   94fsi    OBT 1541   5.130   1.160   3.902  0.6264 -0.0065  0.3389
   94fsi    OBT 1542   5.233   1.300   3.725  0.3665  0.8296 -0.4499
   94fsi    SBT 1543   4.967   1.204   3.554 -0.0393 -0.2468  0.2493
   94fsi    OBT 1544   4.964   1.349   3.572  0.0291  0.0827  0.3564
   94fsi    OBT 1545   4.853   1.127   3.519  0.7891 -0.5353 -0.0283
   94fsi    FSI 1546   5.059   1.171   3.424 -0.4527 -0.2492  0.4173
   95fsi    FSI 1547   3.696   0.968   2.532  0.1370  0.6426 -0.2256
   95fsi    SBT 1548   3.548   1.024   2.557 -0.0071 -0.0895  0.0301
   95fsi    NBT 1549   3.448   0.924   2.487 -0.4231  0.3778  0.0099
   95fsi    OBT 1550   3.555   1.030   2.701  0.5643 -1.1188 -0.0512
   95fsi    OBT 1551   3.548   1.153   2.493 -0.1551  0.1421 -0.2469
   95fsi    SBT 1552   3.351   0.814   2.551  0.0785 -0.3244 -0.7395
   95fsi    OBT 1553   3.240   0.774   2.466  0.1286 -0.5873 -0.4190
   95fsi    OBT 1554   3.332   0.825   2.695 -0.2301  0.1096 -0.5013
   95fsi    FSI 1555   3.424   0.683   2.540 -0.5235 -0.0690 -0.5641
   96fsi    FSI 1556   2.505   5.005   2.677  0.5475  0.0033 -0.5377
   96fsi    SBT 1557   2.431   5.113   2.603  0.3683  0.2164 -0.3984
   96fsi    NBT 1558   2.289   5.052   2.580  0.4246  0.5123 -0.8164
   96fsi    OBT 1559   2.446   5.229   2.690  0.4281  0.0210  0.2891
   96fsi    OBT 1560   2.497   5.128   2.479 -0.4650  0.2775 -0.1674
   96fsi    SBT 1561   2.143   5.108   2.627  0.4385  0.2571 -0.1961
   96fsi    OBT 1562   2.042   5.090   2.528 -0.5961 -0.4388 -0.4482
   96fsi    OBT 1563   2.159   5.242   2.673 -0.0170 -0.0629  0.3046
   96fsi    FSI 1564   2.096   5.022   2.747  0.9831 -0.1192 -0.2780
   97fsi    FSI 1565   5.281   5.636   5.076  0.2647  0.2120  0.6466
   97fsi    SBT 1566   5.219   5.593   5.215 -0.2872  0.1890 -0.0268
   97fsi    NBT 1567   5.345   5.535   5.288 -0.3297 -0.0597  0.1500
   97fsi    OBT 1568   5.170   5.714   5.268  0.0123  0.0323  0.7130
   97fsi    OBT 1569   5.124   5.493   5.178 -0.7699  0.5925  0.0111
   97fsi    SBT 1570   5.355   5.396   5.359 -0.1501 -0.1491  0.2506
   97fsi    OBT 1571   5.306   5.284   5.283  0.0067  0.2641 -0.5348
   97fsi    OBT 1572   5.303   5.405   5.495 -0.5006 -0.1667  0.2867
   97fsi    FSI 1573   5.512   5.371   5.372  0.3685 -0.2289  0.0910
   98fsi    FSI 1574   1.828   4.941   6.141 -0.6629 -0.8528  0.5067
   98fsi    SBT 1575   1.869   4.862   6.010  0.4968 -0.1660  0.1972
   98fsi    NBT 1576   1.984   4.768   6.058 -0.6133 -0.1418 -0.8782
   98fsi    OBT 1577   1.751   4.793   5.984  0.0094  0.1390  0.0839
   98fsi    OBT 1578   1.905   4.952   5.905  0.0897  0.3623  0.2875
   98fsi    SBT 1579   2.110   4.721   5.969  0.0939 -0.3197  0.5505
   98fsi    OBT 1580   2.130   4.799   5.842  0.8965  0.1969 -0.0342
   98fsi    OBT 1581   2.127   4.581   5.978 -0.3168 -0.0134  0.1412
   98fsi    FSI 1582   2.231   4.789   6.065  0.0517 -0.5994  0.6295
   99fsi    FSI 1583   3.114   1.586   2.262 -0.3594  0.0546 -0.0096
   99fsi    SBT 1584   3.174   1.577   2.116 -0.1099  0.3340  0.2924
   99fsi    NBT 1585   3.060   1.633   2.026 -0.4124 -0.2036  0.4094
   99fsi    OBT 1586   3.289   1.661   2.112 -0.3883 -0.0102  0.4462
   99fsi    OBT 1587   3.195   1.437   2.105 -0.5005 -0.3342  0.0591
   99fsi    SBT 1588   3.030   1.595   1.876  0.1434 -0.0538  0.6946
   99fsi    OBT 1589   3.136   1.616   1.783 -0.2010  0.6862 -0.1302
   99fsi    OBT 1590   2.898   1.641   1.840  0.6822 -0.4914  0.2638
   99fsi    FSI 1591   3.009   1.437   1.888  0.3283  0.0026  0.1837
  100fsi    FSI 1592   2.411   1.575   0.792  0.3118  0.5292 -0.1769
  100fsi    SBT 1593   2.477   1.551   0.939 -0.0441 -0.1916 -0.4794
  100fsi    NBT 1594   2.358   1.565   1.042  0.3293 -0.3650  0.0448
  100fsi    OBT 1595   2.538   1.420   0.929  0.5565  0.3107  0.2715
  100fsi    OBT 1596   2.562   1.664   0.954  0.1654  0.2129  0.6722
  100fsi    SBT 1597   2.259   1.446   1.081 -0.2692 -0.1854 -0.0566
  100fsi    OBT 1598   2.292   1.391   1.211  0.1233  0.9210  0.3259
  100fsi    OBT 1599   2.226   1.359   0.971  0.2520  0.6281 -0.3341
  100fsi    FSI 1600   2.118   1.517   1.110  0.4179 -0.0261  0.0979
  101fsi    FSI 1601   3.823   1.571   4.053 -0.0205 -0.2860 -0.0617
  101fsi    SBT 1602   3.764   1.425   4.062 -0.3357  0.1272  0.1589
  101fsi    NBT 1603   3.636   1.434   4.152 -0.1629 -0.2094 -0.0422
  101fsi    OBT 1604   3.730   1.401   3.926  0.3495 -0.6594 -0.3297
  101fsi    OBT 1605   3.873   1.353   4.123  0.7513  0.2684 -0.3934
  101fsi    SBT 1606   3.623   1.394   4.303 -0.0271 -0.0746  0.0434
  101fsi    OBT 1607   3.734   1.449   4.382  0.0886  0.4629  0.0528
  101fsi    OBT 1608   3.591   1.258   4.326  0.0465 -0.4953 -0.3156
  101fsi    FSI 1609   3.493   1.469   4.349 -0.4457 -0.3235 -0.2054
  102fsi    FSI 1610   2.403   1.334   2.392 -0.0292 -0.1463  0.0286
  102fsi    SBT 1611   2.454   1.229   2.488 -0.5826 -0.0837 -0.4969
  102fsi    NBT 1612   2.378   1.100   2.439  0.1959 -0.7985 -0.2309
  102fsi    OBT 1613   2.594   1.222   2.453  0.1184  0.0573  0.3267
  102fsi    OBT 1614   2.423   1.284   2.619 -0.3957  0.3788 -0.3062
  102fsi    SBT 1615   2.261   1.014   2.501  0.4210  0.1576 -0.0361
  102fsi    OBT 1616   2.185   1.078   2.605 -0.4603 -0.3044 -0.4449
  102fsi    OBT 1617   2.297   0.875   2.521  0.7063  0.7258  0.7743
  102fsi    FSI 1618   2.157   1.014   2.390  0.3101  0.2771  0.4483
  103fsi    FSI 1619   3.242   0.632   1.483  0.0810 -0.6429 -0.2254
  103fsi    SBT 1620   3.148   0.517   1.525 -0.4939  0.0438 -0.1315
  103fsi    NBT 1621   3.104   0.548   1.670 -0.9935 -0.0054 -0.4794
  103fsi    OBT 1622   3.044   0.525   1.427 -0.3120 -0.3811 -0.6380
  103fsi    OBT 1623   3.231   0.402   1.514 -0.4345  0.5704 -0.1090
  103fsi    SBT 1624   2.971   0.595   1.742 -0.2618  0.1278  0.0640
  103fsi    OBT 1625   2.867   0.657   1.657  0.5026 -0.3944 -0.0117
  103fsi    OBT 1626   2.984   0.655   1.875  0.7847  0.0021 -1.6122
  103fsi    FSI 1627   2.915   0.457   1.767 -0.1394 -0.5070 -0.1847
  104fsi    FSI 1628   2.377   0.265   1.605 -0.4075  0.0042  0.0407
  104fsi    SBT 1629   2.526   0.319   1.619  0.2513  0.2557  0.2074
  104fsi    NBT 1630   2.506   0.462   1.688  1.1625  0.3989  0.0748
  104fsi    OBT 1631   2.602   0.221   1.694 -0.0984 -0.5232 -0.2447
  104fsi    OBT 1632   2.572   0.333   1.486 -0.6839  0.2746 -0.2479
  104fsi    SBT 1633   2.506   0.610   1.618  0.6979  0.4491  0.2698
  104fsi    OBT 1634   2.602   0.623   1.511  0.3890  0.6155 -0.0234
  104fsi    OBT 1635   2.511   0.717   1.709  0.1610  0.8766 -0.1676
  104fsi    FSI 1636   2.361   0.625   1.550  0.3973  0.1011  0.0361
  105fsi    FSI 1637   1.883   4.257   6.141 -0.5645  0.7202 -0.1313
  105fsi    SBT 1638   1.753   4.345   6.184  0.0024  0.4478  0.0929
  105fsi    NBT 1639   1.695   4.359   6.038 -1.5816  0.1179  0.4338
  105fsi    OBT 1640   1.689   4.266   6.278 -0.1126  0.5198 -0.0577
  105fsi    OBT 1641   1.812   4.467   6.224 -0.2057  0.4238  0.1422
  105fsi    SBT 1642   1.549   4.340   5.983  0.2518  0.4448 -0.0121
  105fsi    OBT 1643   1.512   4.432   5.885 -0.6891 -0.6610 -0.6806
  105fsi    OBT 1644   1.454   4.289   6.076 -0.3385 -0.2868  0.4916
  105fsi    FSI 1645   1.576   4.208   5.882  0.5669  0.0548  0.2713
  106fsi    FSI 1646   5.797   3.411   5.025 -0.5064  0.5799 -0.6571
  106fsi    SBT 1647   5.852   3.550   4.979 -0.2427  0.4511 -0.0164
  106fsi    NBT 1648   5.796   3.559   4.829  0.0897  0.0682 -0.5147
  106fsi    OBT 1649   5.792   3.643   5.072 -0.0617  0.1424  0.2517
  106fsi    OBT 1650   5.994   3.538   4.985 -0.4578  0.0496  0.0257
  106fsi    SBT 1651   5.827   3.461   4.707  0.0822  0.2952 -0.0531
  106fsi    OBT 1652   5.892   3.338   4.751 -0.1082  0.6034 -0.1387
  106fsi    OBT 1653   5.875   3.528   4.588 -0.0522 -0.1755 -0.9399
  106fsi    FSI 1654   5.685   3.412   4.655 -0.1587  0.6452  0.0679
  107fsi    FSI 1655   5.714   1.698   1.945  0.0778  0.6030  0.0525
  107fsi    SBT 1656   5.595   1.788   1.901 -0.2356 -0.0314  0.1560
  107fsi    NBT 1657   5.559   1.731   1.758 -0.0733 -0.4677  0.1690
  107fsi    OBT 1658   5.495   1.762   2.006 -0.0663 -0.8986  0.8146
  107fsi    OBT 1659   5.658   1.917   1.893 -0.2548 -0.1270  0.7608
  107fsi    SBT 1660   5.440   1.634   1.719 -0.6191 -0.2504 -0.1497
  107fsi    OBT 1661   5.422   1.609   1.579 -1.4405  0.3756 -0.0415
  107fsi    OBT 1662   5.323   1.654   1.799 -0.4262  0.2338  0.4010
  107fsi    FSI 1663   5.495   1.500   1.775 -0.3803  0.1016 -0.1146
  108fsi    FSI 1664   3.240   6.143   3.839 -0.0523 -0.3721  0.7109
  108fsi    SBT 1665   3.088   6.145   3.833 -0.4433 -0.2253 -0.4533
  108fsi    NBT 1666   3.050   6.003   3.782  0.1592  0.6690  0.4621
  108fsi    OBT 1667   3.045   6.166   3.969 -0.3385  0.2698  0.0754
  108fsi    OBT 1668   3.061   6.258   3.747 -0.0364 -0.4408 -0.3998
  108fsi    SBT 1669   3.088   5.950   3.640  0.2275 -0.3389 -0.3864
  108fsi    OBT 1670   3.039   5.822   3.606 -0.1862  0.6662 -0.2553
  108fsi    OBT 1671   3.227   5.976   3.606  0.4219 -0.6536  0.8627
  108fsi    FSI 1672   3.009   6.045   3.548 -0.2657  0.3913 -0.0088
  109fsi    FSI 1673   5.405   1.791   3.017  0.2201 -0.1709  0.5576
  109fsi    SBT 1674   5.387   1.706   2.885  0.1310  0.0704  0.2378
  109fsi    NBT 1675   5.338   1.574   2.948 -0.0206 -0.2981  0.2853
  109fsi    OBT 1676   5.289   1.777   2.808  0.3846  0.3581 -0.3154
  109fsi    OBT 1677   5.515   1.703   2.822  0.0934 -0.4775 -0.3653
  109fsi    SBT 1678   5.219   1.560   3.053  0.1140  0.0144  0.2583
  109fsi    OBT 1679   5.161   1.682   3.108  0.3934 -0.1996 -0.0446
  109fsi    OBT 1680   5.238   1.452   3.147  0.5087  0.1785  0.1141
  109fsi    FSI 1681   5.100   1.505   2.968 -0.3657 -0.1447 -0.2275
  110fsi    FSI 1682   2.969   6.011   3.095 -0.0852 -0.1142 -0.7275
  110fsi    SBT 1683   3.096   5.912   3.130  0.6001  1.2325 -0.5532
  110fsi    NBT 1684   3.056   5.781   3.051  0.2537  0.2432 -0.1536
  110fsi    OBT 1685   3.205   5.984   3.065  0.5231  1.7113 -0.5363
  110fsi    OBT 1686   3.098   5.896   3.276  0.4349  0.4276 -0.4787
  110fsi    SBT 1687   3.007   5.644   3.092  0.4326 -0.3112 -0.3406
  110fsi    OBT 1688   2.886   5.600   3.023 -0.1600  0.5656  0.0329
  110fsi    OBT 1689   3.016   5.631   3.232 -0.2629  0.0134  0.4609
  110fsi    FSI 1690   3.128   5.560   3.042 -0.8399  0.1115  0.0615
  111fsi    FSI 1691   2.586   5.860   3.307  0.1205 -0.6316 -0.0034
  111fsi    SBT 1692   2.696   5.936   3.391  0.3276  0.9766  0.0542
  111fsi    NBT 1693   2.637   5.935   3.536  0.1517  0.6911 -0.0886
  111fsi    OBT 1694   2.814   5.857   3.368 -0.1535  0.3436  0.4846
  111fsi    OBT 1695   2.691   6.071   3.342  0.0188 -0.1432  0.0300
  111fsi    SBT 1696   2.655   5.795   3.625  0.4228 -0.1795 -0.2238
  111fsi    OBT 1697   2.765   5.817   3.714  0.2310  0.4223 -0.4049
  111fsi    OBT 1698   2.639   5.669   3.551  0.5981  0.3384  0.0841
  111fsi    FSI 1699   2.525   5.807   3.719  0.0822  0.2324  0.3905
  112fsi    FSI 1700   1.472   1.272   3.788  0.5330 -0.0146 -0.1046
  112fsi    SBT 1701   1.601   1.327   3.858 -0.0211 -0.2100 -0.1767
  112fsi    NBT 1702   1.544   1.382   3.996 -0.2990  0.0355 -0.6968
  112fsi    OBT 1703   1.688   1.210   3.875 -0.1660 -0.2753 -0.1338
  112fsi    OBT 1704   1.646   1.430   3.763  0.1390 -0.5123 -0.4312
  112fsi    SBT 1705   1.516   1.531   4.041  0.0617  0.0726  0.0818
  112fsi    OBT 1706   1.491   1.627   3.934  0.0729  0.8568  0.3458
  112fsi    OBT 1707   1.606   1.572   4.148 -0.1650  0.2424  0.0138
  112fsi    FSI 1708   1.381   1.510   4.121 -0.3681  0.0002 -0.2124
  113fsi    FSI 1709   4.642   5.373   5.480  0.5272 -1.0285  0.2232
  113fsi    SBT 1710   4.682   5.296   5.350  0.0440  0.2093 -0.1809
  113fsi    NBT 1711   4.829   5.253   5.378 -0.1736  0.0611 -0.1885
  113fsi    OBT 1712   4.595   5.185   5.333 -0.1050 -0.0797  0.3770
  113fsi    OBT 1713   4.675   5.401   5.256  0.2184 -0.1185  0.2396
  113fsi    SBT 1714   4.897   5.156   5.486 -0.0860  0.1942  0.3631
  113fsi    OBT 1715   4.982   5.058   5.426 -0.3074 -0.2732 -0.3859
  113fsi    OBT 1716   4.802   5.105   5.579  0.4224  0.6656  0.2390
  113fsi    FSI 1717   4.995   5.239   5.563  0.6430 -0.6544 -0.7600
  114fsi    FSI 1718   4.828   1.168   2.481  0.2067  0.7958  0.0634
  114fsi    SBT 1719   4.812   1.213   2.326 -0.3916  0.6086  0.2032
  114fsi    NBT 1720   4.888   1.098   2.248 -0.2476  0.1125 -0.5586
  114fsi    OBT 1721   4.674   1.220   2.294 -0.2978 -0.8231  0.0809
  114fsi    OBT 1722   4.866   1.343   2.315 -0.4454 -0.2306  0.3023
  114fsi    SBT 1723   5.025   1.113   2.174 -0.2890  0.3661 -0.6127
  114fsi    OBT 1724   5.135   1.071   2.255 -0.4507 -0.0236 -0.5521
  114fsi    OBT 1725   5.039   1.240   2.111 -0.6049  0.4155 -0.6935
  114fsi    FSI 1726   5.023   1.016   2.054  0.4292 -0.3087  0.1983
  115fsi    FSI 1727   4.737   2.098   1.913  0.1787  0.1893 -0.0724
  115fsi    SBT 1728   4.841   1.988   1.863  0.1506 -0.1127 -0.2818
  115fsi    NBT 1729   4.890   2.052   1.727  0.3710  0.2901  0.0191
  115fsi    OBT 1730   4.936   1.984   1.969  0.3045 -0.4607 -0.1384
  115fsi    OBT 1731   4.761   1.869   1.842  0.0215  0.1194 -0.1899
  115fsi    SBT 1732   5.025   2.118   1.681  0.3531  0.0519  0.0709
  115fsi    OBT 1733   5.114   2.023   1.619  0.1646 -0.0205  0.0488
  115fsi    OBT 1734   5.081   2.205   1.781  0.6284 -0.4306  0.2895
  115fsi    FSI 1735   4.984   2.221   1.567 -0.2476  0.4088  0.5114
  116fsi    FSI 1736   1.957   1.832   1.554  0.1685 -0.1608  0.1616
  116fsi    SBT 1737   2.072   1.872   1.654  0.0261  0.0644  0.2350
  116fsi    NBT 1738   1.997   1.969   1.751 -0.2422 -0.4590  0.1849
  116fsi    OBT 1739   2.127   1.748   1.704 -0.3534  0.0850  0.1416
  116fsi    OBT 1740   2.157   1.943   1.564  0.0831  0.5914  0.9360
  116fsi    SBT 1741   1.892   1.932   1.856 -0.4029  0.0457  0.0956
  116fsi    OBT 1742   1.850   1.792   1.852 -0.2662  0.3118  0.3123
  116fsi    OBT 1743   1.793   2.035   1.864 -0.2791 -0.2052  0.3205
  116fsi    FSI 1744   1.971   1.947   1.986 -1.4514  0.0270  0.0117
  117fsi    FSI 1745   4.218   4.878   5.210  0.2634 -0.3453 -0.2151
  117fsi    SBT 1746   4.358   4.950   5.220  0.4470 -0.4869 -0.0627
  117fsi    NBT 1747   4.455   4.827   5.208  0.3191 -0.0759  0.0043
  117fsi    OBT 1748   4.363   5.040   5.104  0.4390 -0.2431 -0.1301
  117fsi    OBT 1749   4.351   5.008   5.352  0.3832 -0.5153 -0.0600
  117fsi    SBT 1750   4.558   4.767   5.311  0.0012  0.1587  0.2523
  117fsi    OBT 1751   4.627   4.866   5.389  0.1188 -0.3711  0.2641
  117fsi    OBT 1752   4.647   4.670   5.245 -0.1208  0.0695 -0.0315
  117fsi    FSI 1753   4.478   4.681   5.413 -0.2085 -0.8134 -0.0320
  118fsi    FSI 1754   2.702   0.472   2.491  0.0624 -0.5031 -0.9080
  118fsi    SBT 1755   2.572   0.503   2.586  0.3329  0.2535 -0.4859
  118fsi    NBT 1756   2.459   0.415   2.533  0.0531 -0.2465  0.4008
  118fsi    OBT 1757   2.619   0.452   2.713 -0.7826  0.1512 -0.4536
  118fsi    OBT 1758   2.547   0.643   2.577  0.1866  0.2741 -0.8473
  118fsi    SBT 1759   2.327   0.450   2.452 -0.0407 -0.0873 -0.1522
  118fsi    OBT 1760   2.333   0.572   2.377 -0.3245 -0.3480 -0.3721
  118fsi    OBT 1761   2.208   0.416   2.527  0.6605  0.3107  0.4259
  118fsi    FSI 1762   2.327   0.333   2.342 -0.0221 -0.3126  0.1742
  119fsi    FSI 1763   4.807   5.094   5.884 -0.0380 -0.5998 -0.0393
  119fsi    SBT 1764   4.759   5.241   5.913 -0.1618  0.0668  0.1689
  119fsi    NBT 1765   4.647   5.274   5.812 -0.3397  0.6474  0.2060
  119fsi    OBT 1766   4.722   5.222   6.051  0.2662 -0.5133  0.4660
  119fsi    OBT 1767   4.882   5.316   5.905  0.1126 -0.4240  0.4835
  119fsi    SBT 1768   4.523   5.192   5.774 -0.2470 -0.3030 -0.0527
  119fsi    OBT 1769   4.495   5.072   5.848 -0.0457 -0.1774  0.2275
  119fsi    OBT 1770   4.504   5.182   5.632  0.1429 -0.0564  0.5879
  119fsi    FSI 1771   4.405   5.279   5.813 -0.5181 -0.0539 -0.3601
  120fsi    FSI 1772   2.563   5.500   2.963 -0.8237 -0.4200  0.1099
  120fsi    SBT 1773   2.457   5.609   2.925 -0.0900  0.0869  0.1444
  120fsi    NBT 1774   2.499   5.650   2.779  0.0736  1.1036 -0.0738
  120fsi    OBT 1775   2.327   5.545   2.937 -0.4307  0.1733 -0.1061
  120fsi    OBT 1776   2.483   5.711   3.024  0.0073  0.4040  0.4746
  120fsi    SBT 1777   2.442   5.615   2.635 -0.2509  0.4219 -0.2653
  120fsi    OBT 1778   2.329   5.520   2.629 -0.0024  0.0209  0.2267
  120fsi    OBT 1779   2.550   5.579   2.545 -0.1771 -0.7041 -0.3916
  120fsi    FSI 1780   2.378   5.751   2.584 -0.0939 -0.8643 -0.0527
  121fsi    FSI 1781   3.449   1.984   1.499 -0.6765  0.2329  0.4341
  121fsi    SBT 1782   3.400   1.920   1.637  0.0701  0.3628  0.0867
  121fsi    NBT 1783   3.258   1.990   1.668  0.1853  0.0045  0.1956
  121fsi    OBT 1784   3.385   1.780   1.605 -0.5744 -0.1714 -1.0315
  121fsi    OBT 1785   3.500   1.949   1.739  0.6300 -0.0042  0.0322
  121fsi    SBT 1786   3.113   1.954   1.616 -0.5972  0.1720  0.2028
  121fsi    OBT 1787   3.018   1.968   1.724 -0.0550 -0.2748 -0.1179
  121fsi    OBT 1788   3.108   1.834   1.537  0.3044 -0.1485  0.6816
  121fsi    FSI 1789   3.080   2.071   1.515  0.6415 -0.4929  0.6134
  122fsi    FSI 1790   4.069   0.824   2.265  0.3093  0.3921  0.5620
  122fsi    SBT 1791   4.129   0.843   2.411 -0.0656  0.9012  0.6872
  122fsi    NBT 1792   3.999   0.872   2.496  0.1601 -0.2236 -0.5415
  122fsi    OBT 1793   4.192   0.717   2.429 -0.6544  0.8677 -1.0023
  122fsi    OBT 1794   4.213   0.957   2.394  0.6710  0.7559 -0.2072
  122fsi    SBT 1795   3.951   0.809   2.637 -0.3838  0.5975  0.5915
  122fsi    OBT 1796   4.065   0.767   2.710  0.7437 -0.0678 -0.5253
  122fsi    OBT 1797   3.843   0.720   2.610 -0.0625  0.4318  0.3564
  122fsi    FSI 1798   3.893   0.932   2.731 -0.1320  1.1247  0.3434
  123fsi    FSI 1799   1.795   2.749   1.282 -0.0196  0.3538  0.1571
  123fsi    SBT 1800   1.661   2.731   1.369  0.4719 -0.6168  0.3849
  123fsi    NBT 1801   1.560   2.835   1.309  0.4348 -0.2962 -0.3347
  123fsi    OBT 1802   1.629   2.594   1.354 -0.7276  0.2726  0.7027
  123fsi    OBT 1803   1.701   2.781   1.497 -0.0570  0.7748  0.4163
  123fsi    SBT 1804   1.500   2.976   1.354  0.1386  0.1982 -0.5519
  123fsi    OBT 1805   1.571   3.081   1.291 -0.5763  0.1983  0.1121
  123fsi    OBT 1806   1.475   2.992   1.495 -0.0113  0.5724 -0.0692
  123fsi    FSI 1807   1.356   2.977   1.288 -0.5334 -0.0071  0.1558
  124fsi    FSI 1808   1.890   0.879   3.234  0.3234 -0.1356  0.0841
  124fsi    SBT 1809   1.952   0.845   3.094 -0.3839  0.0180  0.3692
  124fsi    NBT 1810   2.049   0.963   3.076 -0.5861 -0.1489  0.7646
  124fsi    OBT 1811   2.006   0.712   3.109 -0.3237 -0.1305 -0.0255
  124fsi    OBT 1812   1.847   0.849   2.996  0.1032 -0.1359 -0.1695
  124fsi    SBT 1813   2.203   0.944   3.097 -0.3488 -0.2117 -0.0293
  124fsi    OBT 1814   2.273   0.893   2.980 -0.3710 -0.3604  0.3031
  124fsi    OBT 1815   2.233   0.887   3.226  0.0442 -0.2148 -0.3252
  124fsi    FSI 1816   2.263   1.088   3.118  0.3739  0.4960 -0.0914
  125fsi    FSI 1817   5.964   4.458   4.941  0.0682  0.1758  0.5209
  125fsi    SBT 1818   5.811   4.423   4.908 -0.2675 -0.0060 -0.1216
  125fsi    NBT 1819   5.739   4.562   4.915  0.3525 -0.2964 -0.1498
  125fsi    OBT 1820   5.815   4.366   4.774 -0.0127  0.7143 -0.1733
  125fsi    OBT 1821   5.764   4.341   5.016  0.1292 -0.6099 -0.3359
  125fsi    SBT 1822   5.696   4.646   5.048 -0.2314 -0.2547  0.0200
  125fsi    OBT 1823   5.733   4.585   5.172  0.1004 -0.1996 -0.4504
  125fsi    OBT 1824   5.564   4.705   5.039 -0.1379 -0.4095 -0.7403
  125fsi    FSI 1825   5.789   4.770   5.049 -0.2879 -0.0528 -0.0406
  126fsi    FSI 1826   1.519   3.235   2.320  0.2792  0.7856  0.3185
  126fsi    SBT 1827   1.571   3.105   2.242  0.2790 -0.1408 -0.0401
  126fsi    NBT 1828   1.612   3.146   2.089  1.4761  0.4430  0.2556
  126fsi    OBT 1829   1.697   3.066   2.315  0.1351  0.0225 -0.0761
  126fsi    OBT 1830   1.460   3.011   2.257 -0.8929 -0.4637  0.1401
  126fsi    SBT 1831   1.551   3.104   1.953 -0.0028 -0.1192  0.2457
  126fsi    OBT 1832   1.470   2.987   1.944 -0.2927 -0.1563 -0.3913
  126fsi    OBT 1833   1.649   3.113   1.851 -0.9731 -0.9097  0.1925
  126fsi    FSI 1834   1.448   3.221   1.930  0.1702  0.4347  0.4357
  127fsi    FSI 1835   2.069   2.229   3.746  0.3996  0.0712 -0.3649
  127fsi    SBT 1836   2.013   2.222   3.597  0.4247  0.0103 -0.4874
  127fsi    NBT 1837   1.864   2.279   3.605 -0.2195 -0.2415  0.1215
  127fsi    OBT 1838   2.094   2.320   3.528  0.7318  0.5860  0.1789
  127fsi    OBT 1839   2.029   2.086   3.551  0.3494  0.0880  0.0504
  127fsi    SBT 1840   1.735   2.210   3.553  0.0396 -0.0012 -0.1879
  127fsi    OBT 1841   1.741   2.069   3.562  0.1872  0.4231  0.8896
  127fsi    OBT 1842   1.674   2.279   3.443 -0.2981 -0.2780  0.2431
  127fsi    FSI 1843   1.639   2.237   3.672 -0.4458  0.5961 -0.4331
  128fsi    FSI 1844   2.416   5.278   5.679 -0.8266 -0.5807 -0.1235
  128fsi    SBT 1845   2.398   5.135   5.721  0.3492  0.3292 -0.3364
  128fsi    NBT 1846   2.419   5.064   5.583  0.3069  0.5935  0.4701
  128fsi    OBT 1847   2.485   5.115   5.830  0.6310 -0.1475 -0.2005
  128fsi    OBT 1848   2.262   5.120   5.751 -0.6271  0.5365  0.4854
  128fsi    SBT 1849   2.535   4.972   5.521  0.2523 -0.6369 -0.2225
  128fsi    OBT 1850   2.488   4.848   5.467 -0.4750 -0.6261 -0.6236
  128fsi    OBT 1851   2.656   4.971   5.602 -0.1768 -0.4108  0.3591
  128fsi    FSI 1852   2.582   5.049   5.393 -0.8500 -0.5794 -0.2290
  129fsi    FSI 1853   5.461   2.324   1.149  0.3087 -0.3272 -0.2333
  129fsi    SBT 1854   5.483   2.447   1.051 -0.0402 -0.5048 -0.3264
  129fsi    NBT 1855   5.615   2.507   1.107  0.6206 -0.1317 -0.3541
  129fsi    OBT 1856   5.496   2.384   0.922 -0.7154 -0.7239  0.4456
  129fsi    OBT 1857   5.364   2.524   1.069  0.3589 -0.4720  0.2797
  129fsi    SBT 1858   5.636   2.635   1.192 -0.0684  0.2854  0.2402
  129fsi    OBT 1859   5.614   2.762   1.120 -0.0691  0.0999  0.0724
  129fsi    OBT 1860   5.746   2.623   1.284 -0.4085 -0.3782  0.2684
  129fsi    FSI 1861   5.509   2.632   1.289 -0.8121 -0.2586  0.3993
  130fsi    FSI 1862   4.843   0.797   3.097  0.8042  0.2208  0.5138
  130fsi    SBT 1863   4.975   0.822   3.176 -0.0859  0.4835  0.0640
  130fsi    NBT 1864   4.928   0.853   3.325 -0.0415  0.4017 -0.1652
  130fsi    OBT 1865   5.047   0.696   3.166  0.1841 -0.0231  0.4949
  130fsi    OBT 1866   5.040   0.933   3.125  0.5477 -0.0659  0.4125
  130fsi    SBT 1867   4.865   0.741   3.418  0.1593  0.3092 -0.0627
  130fsi    OBT 1868   4.824   0.616   3.363  0.1819 -0.0895 -0.0283
  130fsi    OBT 1869   4.772   0.811   3.497  0.2334  0.2773  0.4899
  130fsi    FSI 1870   4.971   0.694   3.525  0.4988 -0.0174  0.5863
  131fsi    FSI 1871   1.549   4.644   1.497  0.4659  0.4351  0.0974
  131fsi    SBT 1872   1.647   4.718   1.589 -0.0475 -0.4513  0.0383
  131fsi    NBT 1873   1.722   4.817   1.494  0.0842 -0.8242  0.8369
  131fsi    OBT 1874   1.568   4.796   1.683  0.0450 -0.2264 -0.4226
  131fsi    OBT 1875   1.728   4.612   1.653 -0.0216 -1.0672  1.0485
  131fsi    SBT 1876   1.876   4.869   1.483 -0.1698 -0.7408  0.0854
  131fsi    OBT 1877   1.969   4.818   1.579 -0.4173 -0.5684  0.6395
  131fsi    OBT 1878   1.879   5.015   1.476  0.3300  0.0574  0.2950
  131fsi    FSI 1879   1.935   4.816   1.351  0.3231  0.2544  0.3431
  132fsi    FSI 1880   2.138   5.478   1.789 -0.1863 -0.0293  0.4189
  132fsi    SBT 1881   2.147   5.340   1.737 -0.4991 -0.0731 -0.0367
  132fsi    NBT 1882   1.999   5.282   1.753  0.3711  0.3425 -0.1623
  132fsi    OBT 1883   2.185   5.355   1.601 -0.5739  0.0603  0.1049
  132fsi    OBT 1884   2.244   5.285   1.820  0.2024  0.2164 -0.1788
  132fsi    SBT 1885   1.957   5.162   1.853  0.2256 -0.3580  0.0574
  132fsi    OBT 1886   2.019   5.138   1.979 -0.2444  0.6888  1.0107
  132fsi    OBT 1887   1.933   5.051   1.759 -0.1763  0.6675 -0.1903
  132fsi    FSI 1888   1.808   5.202   1.899 -0.4349 -0.1914 -0.4174
  133fsi    FSI 1889   1.456   0.490   4.700  0.2062  0.4652  0.2614
  133fsi    SBT 1890   1.613   0.496   4.689  0.1378 -0.2595 -0.2681
  133fsi    NBT 1891   1.653   0.356   4.628  0.0767 -0.0804  0.0513
  133fsi    OBT 1892   1.629   0.605   4.600  0.2093 -0.2006 -0.1577
  133fsi    OBT 1893   1.655   0.522   4.823  0.2214  0.1215  0.0702
  133fsi    SBT 1894   1.775   0.262   4.664 -0.0227 -0.1580 -0.1322
  133fsi    OBT 1895   1.863   0.309   4.765 -0.3348 -0.1854  0.1288
  133fsi    OBT 1896   1.841   0.200   4.551 -0.4198 -0.1588 -0.0271
  133fsi    FSI 1897   1.708   0.138   4.740  0.0922  0.3334 -0.1730
  134fsi    FSI 1898   1.062   1.946   1.922 -0.1231  0.1673 -0.0675
  134fsi    SBT 1899   1.107   2.050   1.814  0.4866  0.5652  0.2619
  134fsi    NBT 1900   1.239   1.980   1.771  0.2958 -0.3756  0.3239
  134fsi    OBT 1901   1.009   2.050   1.710  0.0581 -0.0874  0.6788
  134fsi    OBT 1902   1.123   2.161   1.902  0.1003 -0.2110  0.5688
  134fsi    SBT 1903   1.388   2.027   1.811 -0.4576  0.3603 -0.3091
  134fsi    OBT 1904   1.483   1.918   1.825 -0.3226 -0.2532  0.3461
  134fsi    OBT 1905   1.405   2.145   1.884 -0.1075  0.3361 -0.0500
  134fsi    FSI 1906   1.434   2.085   1.677  0.0458 -0.0921  0.1419
  135fsi    FSI 1907   2.675   0.358   3.091 -0.5508  0.6554 -0.8112
  135fsi    SBT 1908   2.736   0.303   3.212 -0.0325  0.2254 -0.3313
  135fsi    NBT 1909   2.696   0.150   3.212 -0.1466 -0.4166 -0.3648
  135fsi    OBT 1910   2.877   0.330   3.193 -0.1517 -0.6775  0.1154
  135fsi    OBT 1911   2.674   0.378   3.320 -0.0088 -0.6345 -0.2098
  135fsi    SBT 1912   2.759   0.030   3.131  0.3340 -0.1957 -0.6345
  135fsi    OBT 1913   2.791  -0.084   3.210 -0.4134  0.1376  0.0407
  135fsi    OBT 1914   2.864   0.071   3.037  0.5989 -0.4650 -0.4593
  135fsi    FSI 1915   2.643  -0.024   3.030  0.0095  0.3058 -0.7937
  136fsi    FSI 1916   5.628   4.141   4.864  0.0288 -0.0272  0.0750
  136fsi    SBT 1917   5.480   4.086   4.830 -0.0020 -0.3405  0.0446
  136fsi    NBT 1918   5.453   3.981   4.941 -0.5195  0.4316  0.3076
  136fsi    OBT 1919   5.399   4.202   4.841  0.1415 -0.2317  0.0844
  136fsi    OBT 1920   5.493   4.035   4.698  0.0675 -0.2396 -0.1708
  136fsi    SBT 1921   5.349   3.864   4.950 -0.1609  0.5955  0.3692
  136fsi    OBT 1922   5.278   3.833   4.829 -0.1675  0.3017  0.0837
  136fsi    OBT 1923   5.266   3.879   5.068  0.3388  0.4383  0.6798
  136fsi    FSI 1924   5.443   3.736   4.971  0.4410  0.3226 -0.0567
  137fsi    FSI 1925   1.070   2.858   2.203  0.3974  0.9571  0.9697
  137fsi    SBT 1926   1.139   2.747   2.291  0.5339  0.0890  0.6430
  137fsi    NBT 1927   1.043   2.625   2.267  0.3594  1.1592 -0.8011
  137fsi    OBT 1928   1.272   2.732   2.237  0.2960  0.3890 -0.9656
  137fsi    OBT 1929   1.114   2.797   2.423  0.9013 -0.4104  0.8610
  137fsi    SBT 1930   1.073   2.491   2.196  0.0562  0.3420 -0.1122
  137fsi    OBT 1931   1.011   2.371   2.244 -0.4141  0.2382 -0.2936
  137fsi    OBT 1932   1.205   2.471   2.150  0.3562  0.4406 -0.4487
  137fsi    FSI 1933   0.992   2.517   2.070  0.7305  0.5552 -0.4751
  138fsi    FSI 1934   2.106   5.268   3.182  0.1987 -0.4569 -0.1836
  138fsi    SBT 1935   2.070   5.243   3.028 -0.0146  0.0821  0.6388
  138fsi    NBT 1936   1.946   5.339   3.023 -0.3999  0.0746 -0.4298
  138fsi    OBT 1937   2.187   5.298   2.969  0.3074 -0.4957  0.0098
  138fsi    OBT 1938   2.043   5.102   3.010 -0.1456  0.3329  0.0145
  138fsi    SBT 1939   1.909   5.457   2.923 -0.0313 -0.1900 -0.0248
  138fsi    OBT 1940   2.013   5.487   2.828 -0.3573  0.1746 -0.4843
  138fsi    OBT 1941   1.840   5.569   2.984  0.2800 -0.1880  0.4396
  138fsi    FSI 1942   1.801   5.385   2.829  0.0648 -0.1330  0.1319
  139fsi    FSI 1943   4.472   2.158   2.918  0.3062  0.2586 -0.4563
  139fsi    SBT 1944   4.320   2.128   2.944 -0.2961  0.6115  0.2978
  139fsi    NBT 1945   4.254   2.228   2.838  0.1858  0.2711 -0.3924
  139fsi    OBT 1946   4.307   1.986   2.919 -0.3401  0.4132  0.6309
  139fsi    OBT 1947   4.305   2.161   3.083  0.1743 -0.6983 -0.0851
  139fsi    SBT 1948   4.272   2.382   2.826 -0.3294  0.2472 -0.3927
  139fsi    OBT 1949   4.342   2.446   2.933 -0.5979  0.1658 -0.2297
  139fsi    OBT 1950   4.152   2.441   2.773  0.3098 -0.1504 -0.3040
  139fsi    FSI 1951   4.377   2.387   2.703 -0.6144 -0.0903 -0.9956
  140fsi    FSI 1952   5.257   5.620   6.195  0.1733  0.1035 -0.5013
  140fsi    SBT 1953   5.172   5.573   6.062 -0.0668 -0.0688 -0.5243
  140fsi    NBT 1954   5.042   5.505   6.127 -0.2249 -0.5394  0.8277
  140fsi    OBT 1955   5.147   5.698   5.996 -0.2604 -0.5120  0.3959
  140fsi    OBT 1956   5.256   5.478   5.990 -0.1042  0.4482 -0.5310
  140fsi    SBT 1957   4.901   5.564   6.169  0.2500 -0.2578  0.6299
  140fsi    OBT 1958   4.898   5.703   6.200 -0.3185 -1.1156  0.8787
  140fsi    OBT 1959   4.828   5.483   6.259  0.1454  0.1056 -0.1755
  140fsi    FSI 1960   4.814   5.541   6.037 -0.1019  0.3589  0.5422
  141fsi    FSI 1961   1.837   1.406   2.422  0.1505 -0.4202 -0.4229
  141fsi    SBT 1962   1.731   1.286   2.407 -0.0089  0.3945 -0.2639
  141fsi    NBT 1963   1.640   1.306   2.534 -0.1037  0.6189  0.0043
  141fsi    OBT 1964   1.670   1.310   2.277  0.2601  0.5568 -0.6942
  141fsi    OBT 1965   1.809   1.164   2.420 -0.5637  0.2165 -0.0025
  141fsi    SBT 1966   1.497   1.372   2.539 -0.0342  0.0864 -0.0614
  141fsi    OBT 1967   1.500   1.515   2.520 -0.4146  0.3510 -0.5047
  141fsi    OBT 1968   1.417   1.315   2.646  0.0087 -0.4604 -0.0860
  141fsi    FSI 1969   1.428   1.319   2.411  0.2200 -0.5476  0.1166
  142fsi    FSI 1970   2.013   1.758   3.411 -0.0357 -0.6503  0.1310
  142fsi    SBT 1971   1.991   1.599   3.404  0.1406 -0.0573  0.4029
  142fsi    NBT 1972   2.065   1.558   3.537  0.0646 -0.2088  0.1478
  142fsi    OBT 1973   1.850   1.589   3.424  0.1342 -0.5196  0.8507
  142fsi    OBT 1974   2.046   1.554   3.278 -0.6926  0.1148  0.3652
  142fsi    SBT 1975   2.203   1.486   3.547  0.0521 -0.4915  0.4318
  142fsi    OBT 1976   2.225   1.388   3.445  0.0600 -0.2392  0.0603
  142fsi    OBT 1977   2.240   1.453   3.683 -0.0747 -0.0502 -0.0193
  142fsi    FSI 1978   2.292   1.606   3.505 -0.0620 -0.1703  0.5243
  143fsi    FSI 1979   4.722   4.551   4.426 -0.0726 -0.5260  0.0245
  143fsi    SBT 1980   4.882   4.546   4.400 -0.3632 -0.0473 -0.2019
  143fsi    NBT 1981   4.918   4.699   4.408 -0.7610 -0.3745  0.0293
  143fsi    OBT 1982   4.941   4.468   4.507 -0.2120 -0.1010 -0.2994
  143fsi    OBT 1983   4.884   4.494   4.269 -0.4585 -0.1222  0.0755
  143fsi    SBT 1984   4.900   4.798   4.525  0.2721 -0.5847  0.3766
  143fsi    OBT 1985   5.017   4.873   4.558 -0.3191 -0.0338  0.2462
  143fsi    OBT 1986   4.819   4.751   4.635  0.2729  0.0403 -0.3764
  143fsi    FSI 1987   4.813   4.914   4.460  0.4705 -0.1275  0.5900
  144fsi    FSI 1988   4.568   0.371   2.664 -0.0454 -0.7259  0.7704
  144fsi    SBT 1989   4.467   0.476   2.731  0.0075  0.0945 -0.3095
  144fsi    NBT 1990   4.553   0.535   2.846 -0.3505  0.3983 -0.4668
  144fsi    OBT 1991   4.430   0.556   2.616  0.1671  0.3064  0.2144
  144fsi    OBT 1992   4.371   0.390   2.796 -0.0301 -0.4063  0.4006
  144fsi    SBT 1993   4.598   0.472   2.976 -0.3614  0.0734 -0.2120
  144fsi    OBT 1994   4.739   0.507   3.006 -1.1656 -0.1144  0.5718
  144fsi    OBT 1995   4.561   0.333   2.985  0.4680 -0.3307 -0.6129
  144fsi    FSI 1996   4.509   0.549   3.094 -0.1677  0.0621 -0.0790
  145fsi    FSI 1997   2.668   3.735   5.040 -0.0143 -0.0772 -0.4585
  145fsi    SBT 1998   2.706   3.885   5.045 -0.0332  0.0998  0.1681
  145fsi    NBT 1999   2.796   3.903   4.920 -0.5017 -0.1428  0.6185
  145fsi    OBT 2000   2.577   3.947   5.040 -0.4599 -0.3138 -0.0585
  145fsi    OBT 2001   2.773   3.900   5.171 -0.5483  0.5455  0.2337
  145fsi    SBT 2002   2.800   4.028   4.828  0.3573 -0.1122 -0.2101
  145fsi    OBT 2003   2.895   4.024   4.720  0.0466  0.0039 -0.1608
  145fsi    OBT 2004   2.805   4.151   4.901  0.3128 -0.0208 -0.4588
  145fsi    FSI 2005   2.658   4.030   4.760  0.4623  0.0183 -0.1009
  146fsi    FSI 2006   3.478   1.288   1.471  0.0243  0.0040  0.4024
  146fsi    SBT 2007   3.363   1.311   1.576 -0.2275 -0.1070 -0.0424
  146fsi    NBT 2008   3.232   1.266   1.508 -0.3096  0.1802  0.8390
  146fsi    OBT 2009   3.399   1.221   1.680 -0.2589  0.4411  0.5165
  146fsi    OBT 2010   3.372   1.451   1.603 -0.0676 -0.2649  0.4713
  146fsi    SBT 2011   3.123   1.351   1.434 -0.3742 -0.0902 -0.1899
  146fsi    OBT 2012   3.109   1.485   1.476 -0.3073  0.0753 -0.4253
  146fsi    OBT 2013   3.003   1.273   1.415 -0.2331  0.4875  0.1772
  146fsi    FSI 2014   3.185   1.355   1.293  0.1355  0.5576  0.7873
  147fsi    FSI 2015   3.924   2.318   3.434  0.2633  0.4039  0.4383
  147fsi    SBT 2016   4.056   2.292   3.355 -0.1181  0.2287 -0.0192
  147fsi    NBT 2017   4.077   2.134   3.359 -0.3377  0.5867 -0.5836
  147fsi    OBT 2018   4.014   2.329   3.223  1.3020 -0.2631  0.1469
  147fsi    OBT 2019   4.164   2.367   3.412 -0.4684  0.4064  0.0657
  147fsi    SBT 2020   4.044   2.026   3.472  0.1941 -0.1011 -0.2666
  147fsi    OBT 2021   3.975   1.904   3.431 -0.4434 -0.2635 -0.4691
  147fsi    OBT 2022   4.030   2.073   3.608 -0.2089 -0.4121  0.3496
  147fsi    FSI 2023   4.188   1.968   3.481 -0.2281 -0.1971  0.2119
  148fsi    FSI 2024   2.063   3.426   1.944  0.1813  0.1986  0.0125
  148fsi    SBT 2025   2.063   3.438   2.099 -0.6487  0.0816  0.4512
  148fsi    NBT 2026   2.216   3.460   2.128  0.2548 -1.1123 -0.6100
  148fsi    OBT 2027   1.994   3.557   2.127 -0.2107 -0.4485 -0.2773
  148fsi    OBT 2028   2.005   3.317   2.153  0.0516 -0.4939 -0.6888
  148fsi    SBT 2029   2.305   3.594   2.124 -0.2093 -0.7948  0.3932
  148fsi    OBT 2030   2.411   3.577   2.212  0.0810  0.6270  0.1307
  148fsi    OBT 2031   2.225   3.711   2.136 -0.6408 -0.9191  0.4453
  148fsi    FSI 2032   2.378   3.598   1.978 -0.5691 -0.6623  0.2788
  149fsi    FSI 2033   1.410   5.176   1.197 -0.5714  0.5324 -0.6645
  149fsi    SBT 2034   1.404   5.175   1.361 -0.3903  0.2554 -0.4825
  149fsi    NBT 2035   1.536   5.249   1.386  0.2719  0.0017  0.4615
  149fsi    OBT 2036   1.282   5.239   1.388  0.2027 -0.2028  0.0641
  149fsi    OBT 2037   1.405   5.036   1.396  0.4973 -0.3009 -0.1265
  149fsi    SBT 2038   1.609   5.256   1.526  0.4027  0.1480  0.1119
  149fsi    OBT 2039   1.749   5.283   1.512 -0.3868  0.9018 -0.4802
  149fsi    OBT 2040   1.569   5.143   1.610  0.3175 -0.1524 -0.9305
  149fsi    FSI 2041   1.550   5.379   1.607  0.1703  0.4685 -0.1591
  150fsi    FSI 2042   1.874   3.979   1.865  1.1439 -0.0959  0.1282
  150fsi    SBT 2043   1.918   4.006   2.008 -0.0745  0.4940 -0.4240
  150fsi    NBT 2044   1.886   4.163   2.018  0.7517  1.1218 -0.2612
  150fsi    OBT 2045   1.847   3.915   2.098  0.3322 -0.0957 -0.2821
  150fsi    OBT 2046   2.059   3.993   2.002  0.3140 -0.1855 -0.0768
  150fsi    SBT 2047   1.747   4.233   2.028 -0.0455 -0.0543 -0.0440
  150fsi    OBT 2048   1.760   4.365   2.086 -0.5375 -0.4020  0.6763
  150fsi    OBT 2049   1.634   4.150   2.073 -0.6555 -1.1187 -0.2931
  150fsi    FSI 2050   1.713   4.271   1.880 -0.2344  0.6275 -0.1950
   6.41140   6.41140   6.41140
