L1P3 short trajectory practice
 2950
    1Li+     Li    1   5.364   6.166   2.565  0.4813 -0.8055  0.2200
    2Li+     Li    2   2.771   0.136   1.548 -0.1671  1.0992 -0.4734
    3Li+     Li    3   3.345   1.658   4.151 -1.1203  0.5057 -0.1715
    4Li+     Li    4   5.048   1.007   1.122  1.5915 -0.4481  0.5433
    5Li+     Li    5   4.470   1.198   5.217 -0.6178  0.0452 -0.7917
    6Li+     Li    6   3.010   1.345   4.335 -0.5117 -0.3579 -1.1616
    7Li+     Li    7   2.633   6.805   1.657  0.4817 -0.4889 -0.5889
    8Li+     Li    8   4.649   6.480   0.598  0.1990  0.5914 -0.6182
    9Li+     Li    9   6.531   5.305   5.672  0.7670 -0.1635 -0.8107
   10Li+     Li   10   3.432   4.078   0.120  1.9066 -0.4080 -1.1910
   11Li+     Li   11   5.743   6.456   0.950 -0.1797  1.6425  0.4293
   12Li+     Li   12   0.343   2.792   0.614 -0.4546 -0.8840 -0.6139
   13Li+     Li   13   1.593   4.744   1.347  1.2910 -0.4789 -0.2275
   14Li+     Li   14   3.239   1.736   4.518 -0.1835 -0.9338 -0.8628
   15Li+     Li   15   3.135   2.853   0.805  0.0366  0.1176  0.7243
   16Li+     Li   16   5.190   6.609   0.972  0.2465 -0.4696  0.9291
   17Li+     Li   17   1.598   0.564   5.552 -0.1369 -0.0446  1.9870
   18Li+     Li   18   5.607   6.548   5.864 -0.9740  0.8092  0.1799
   19Li+     Li   19   1.778   0.013   5.933 -0.6018  0.1906  0.2704
   20Li+     Li   20   0.548   2.592   1.550 -0.3832 -0.2551 -0.9336
   21Li+     Li   21   4.738   6.729   1.113 -1.6738  0.2729 -0.0915
   22Li+     Li   22   5.009   1.356   4.400  1.0610  0.9043  0.5025
   23Li+     Li   23   3.897   1.830   4.370  0.8737 -0.5056 -0.6401
   24Li+     Li   24   6.236   6.464   0.817 -2.2028  0.7405  1.0076
   25Li+     Li   25   5.547   1.638   6.602  0.2457  0.9353 -1.0100
   26c3c     N4   26   5.022   1.548   0.937 -0.0801 -0.1305 -0.3359
   26c3c     C1   27   4.969   1.680   0.896 -0.3442  0.1790 -0.3618
   26c3c     C1   28   5.037   1.564   1.083 -0.1868  0.2611  0.0216
   26c3c     C2   29   4.864   1.712   1.003 -0.2547 -0.2569 -0.6319
   26c3c     C2   30   4.903   1.624   1.122 -0.7288  0.3826 -0.9072
   26c3c     C1   31   4.936   1.440   0.900 -0.1182  0.7801 -0.5685
   26c3c     C1   32   5.151   1.517   0.866 -0.9550  0.7584  0.3144
   26c3c     H1   33   4.929   1.680   0.794 -0.4690 -0.8912 -0.3253
   26c3c     H1   34   5.051   1.751   0.907  0.7546 -0.9279 -1.2478
   26c3c     H1   35   5.053   1.471   1.138 -0.6480 -0.6849 -1.4025
   26c3c     H1   36   5.118   1.631   1.108 -0.7605  0.8241  0.3587
   26c3c     HC   37   4.767   1.695   0.957  0.5172 -0.3410 -2.2705
   26c3c     HC   38   4.875   1.815   1.038  1.6013 -0.8786  0.6971
   26c3c     HC   39   4.829   1.545   1.137  0.7612 -0.8062  0.3108
   26c3c     HC   40   4.917   1.676   1.217  0.2093  0.0875 -0.8789
   26c3c     H1   41   4.920   1.433   0.793  0.8834  1.9583 -0.8028
   26c3c     H1   42   4.987   1.348   0.929  1.5305  1.2168 -1.9799
   26c3c     H1   43   4.842   1.439   0.954  0.3632  0.6401  0.2786
   26c3c     H1   44   5.189   1.431   0.920 -0.2349  0.4339 -0.6891
   26c3c     H1   45   5.141   1.472   0.767 -0.8735  2.3777 -0.4509
   26c3c     C2   46   5.266   1.623   0.859 -0.5545  0.2894 -0.0502
   26c3c     HC   47   5.272   1.677   0.953 -1.1350 -0.1735  0.2588
   26c3c     HC   48   5.237   1.702   0.790 -1.8858  1.1770  1.4970
   26c3c     CT   49   5.397   1.548   0.811 -0.4267 -0.3857  0.7872
   26c3c     HC   50   5.409   1.528   0.705 -1.0036  0.8436  0.4792
   26c3c     HC   51   5.415   1.452   0.859  0.1687 -1.0751 -0.7715
   26c3c     HC   52   5.484   1.610   0.833 -0.2945 -0.3745  0.2343
   27c3c     N4   53   4.824   5.987   2.213  0.2101  0.0277  0.5341
   27c3c     C1   54   4.752   6.071   2.111 -0.4639  0.6370 -0.0472
   27c3c     C1   55   4.946   6.066   2.242  0.2026 -0.5068 -0.8451
   27c3c     C2   56   4.863   6.142   2.027 -0.3321 -0.0714 -0.9519
   27c3c     C2   57   4.984   6.153   2.120 -0.4982 -0.7970 -1.3218
   27c3c     C1   58   4.748   5.975   2.340 -0.1362 -0.5412 -0.1548
   27c3c     C1   59   4.851   5.851   2.161  0.5156  0.4285 -0.3468
   27c3c     H1   60   4.707   6.157   2.162 -1.1526  0.9957 -1.2463
   27c3c     H1   61   4.681   6.010   2.055 -1.8192  0.8530  1.3796
   27c3c     H1   62   4.923   6.137   2.320 -2.4355 -1.6906 -0.4772
   27c3c     H1   63   5.023   6.001   2.284 -0.4803  0.1641  1.4816
   27c3c     HC   64   4.821   6.240   2.010 -2.4061 -0.8384 -0.3511
   27c3c     HC   65   4.885   6.096   1.930 -0.0031  1.3874 -1.5786
   27c3c     HC   66   4.999   6.258   2.148  1.4780 -0.2408 -4.2139
   27c3c     HC   67   5.075   6.117   2.072  0.5770  1.9642 -1.4862
   27c3c     H1   68   4.657   5.915   2.330 -0.4399 -0.2679  0.8425
   27c3c     H1   69   4.809   5.936   2.422 -2.0449 -1.4822  0.8468
   27c3c     H1   70   4.709   6.067   2.383 -0.2109 -0.7874  0.3105
   27c3c     H1   71   4.875   5.773   2.234  0.2453 -0.1799 -0.8959
   27c3c     H1   72   4.759   5.816   2.113  1.3399  0.2179 -1.8214
   27c3c     C2   73   4.960   5.832   2.049 -0.1497 -0.1730  0.2379
   27c3c     HC   74   5.056   5.847   2.100  0.7792  0.6434 -1.6922
   27c3c     HC   75   4.955   5.909   1.973  1.2045  1.0030  1.2998
   27c3c     CT   76   4.953   5.702   1.968 -0.3399  0.4917 -0.7676
   27c3c     HC   77   4.860   5.686   1.913 -0.9900  1.4113  0.0447
   27c3c     HC   78   4.963   5.616   2.033  0.1242  1.0654 -0.0706
   27c3c     HC   79   5.032   5.690   1.893 -1.3499 -0.8292 -1.6455
   28c3c     N4   80   1.248   1.702   4.976 -0.1110 -0.1492  0.0180
   28c3c     C1   81   1.376   1.740   4.919 -0.4863 -0.5092 -0.0312
   28c3c     C1   82   1.249   1.763   5.114 -0.9525 -0.0520 -0.5295
   28c3c     C2   83   1.410   1.882   4.974  0.3251 -0.1294 -0.0806
   28c3c     C2   84   1.318   1.902   5.098 -1.2829 -0.2061 -0.1231
   28c3c     C1   85   1.134   1.760   4.901  0.3384 -0.3219 -0.3446
   28c3c     C1   86   1.215   1.557   4.970 -0.0332 -0.8220 -0.2582
   28c3c     H1   87   1.383   1.740   4.810  1.3704 -1.7786  0.0583
   28c3c     H1   88   1.454   1.675   4.958 -0.1679 -0.3654 -0.4204
   28c3c     H1   89   1.150   1.771   5.159 -1.9308  3.1723 -3.0821
   28c3c     H1   90   1.313   1.703   5.179  0.4740  1.2350 -0.7132
   28c3c     HC   91   1.389   1.957   4.897  0.4507  0.8238  0.7960
   28c3c     HC   92   1.516   1.891   4.997  0.0751 -1.8541  1.8252
   28c3c     HC   93   1.246   1.981   5.078 -0.4417 -0.2953 -3.7518
   28c3c     HC   94   1.380   1.920   5.186 -1.4195 -1.0244  0.1463
   28c3c     H1   95   1.118   1.711   4.805 -0.5971  0.2122 -0.4614
   28c3c     H1   96   1.043   1.747   4.959  0.6115 -0.2222  0.1138
   28c3c     H1   97   1.144   1.866   4.879  1.4687 -0.6324 -1.4432
   28c3c     H1   98   1.115   1.539   5.009 -1.0730  1.8046 -1.5508
   28c3c     H1   99   1.215   1.526   4.865  1.4478  1.0453 -0.8388
   28c3c     C2  100   1.308   1.460   5.046  0.2976  0.5019 -0.3501
   28c3c     HC  101   1.295   1.474   5.153  1.4332 -1.2017  0.0357
   28c3c     HC  102   1.414   1.480   5.027  0.3717  0.7073  0.2652
   28c3c     CT  103   1.281   1.313   5.014  0.0304  0.3718  0.9837
   28c3c     HC  104   1.292   1.292   4.908 -1.6121 -1.0028  1.0748
   28c3c     HC  105   1.179   1.293   5.047  0.5776 -0.7976  2.0001
   28c3c     HC  106   1.347   1.247   5.071 -0.0501 -1.0167 -0.5124
   29c3c     N4  107   6.841   3.843   5.174 -0.0881  0.4255 -0.4786
   29c3c     C1  108   6.866   3.722   5.251 -0.7897 -0.1788 -0.2864
   29c3c     C1  109   6.954   3.930   5.201  0.8503 -0.0371 -0.6163
   29c3c     C2  110   7.020   3.699   5.242 -0.5181 -0.3454 -0.4053
   29c3c     C2  111   7.079   3.841   5.222 -0.4236 -1.1742  0.3197
   29c3c     C1  112   6.839   3.805   5.032  0.1039 -0.8075 -0.3801
   29c3c     C1  113   6.713   3.909   5.207  0.1165 -0.1302 -0.6810
   29c3c     H1  114   6.802   3.637   5.226 -3.1636  2.0617 -2.1405
   29c3c     H1  115   6.863   3.745   5.357 -2.0634  0.5182 -0.4624
   29c3c     H1  116   6.971   4.007   5.126 -0.0429 -0.6246 -1.4145
   29c3c     H1  117   6.947   3.991   5.292  0.5240  0.0067 -0.6719
   29c3c     HC  118   7.049   3.637   5.157  0.4092 -0.2653 -0.1576
   29c3c     HC  119   7.053   3.653   5.336 -0.0107 -0.9452 -0.8754
   29c3c     HC  120   7.137   3.837   5.129  1.0393 -0.1843  1.1634
   29c3c     HC  121   7.143   3.869   5.305 -0.3261 -1.4527  0.3407
   29c3c     H1  122   6.754   3.741   5.009  0.8659 -1.6807 -0.8166
   29c3c     H1  123   6.812   3.895   4.976  0.3361 -1.4761 -1.5741
   29c3c     H1  124   6.931   3.766   4.989 -0.9829 -2.4795 -1.2136
   29c3c     H1  125   6.704   4.002   5.152  0.0984  0.8495  0.9622
   29c3c     H1  126   6.634   3.846   5.167 -0.3150  0.7049 -1.1337
   29c3c     C2  127   6.679   3.923   5.358  0.1026 -0.0893 -0.2028
   29c3c     HC  128   6.759   3.975   5.410 -0.6122  0.9103 -0.0970
   29c3c     HC  129   6.668   3.825   5.406  0.3860 -0.3655 -0.6963
   29c3c     CT  130   6.554   4.006   5.377 -0.2879  0.8701 -0.2660
   29c3c     HC  131   6.468   3.942   5.359  0.2530  0.8075 -2.8656
   29c3c     HC  132   6.552   4.088   5.305  2.3067  0.3619 -0.9901
   29c3c     HC  133   6.554   4.049   5.477  0.1355 -0.0883  0.1536
   30c3c     N4  134   1.076   2.145   1.486 -0.8115 -0.6243  0.1228
   30c3c     C1  135   1.214   2.105   1.513  0.3594 -0.6220  0.1326
   30c3c     C1  136   1.017   2.156   1.619 -0.1164 -0.2610  0.4152
   30c3c     C2  137   1.263   2.195   1.629 -0.4303  0.7077 -0.3467
   30c3c     C2  138   1.129   2.223   1.698  0.1926 -0.0793 -0.4764
   30c3c     C1  139   1.068   2.279   1.420 -0.5917 -0.7032  0.1742
   30c3c     C1  140   1.002   2.056   1.396  0.0316 -0.6215 -0.2967
   30c3c     H1  141   1.277   2.124   1.426  0.3834  0.7449  0.4407
   30c3c     H1  142   1.217   2.001   1.543 -0.1784 -0.3889  1.0099
   30c3c     H1  143   0.929   2.220   1.631 -0.9871 -1.0425 -1.6522
   30c3c     H1  144   0.988   2.061   1.664 -0.5524 -0.6602 -0.6917
   30c3c     HC  145   1.307   2.291   1.602  0.3400 -0.0411 -1.8117
   30c3c     HC  146   1.330   2.141   1.696 -1.2372  0.6580  0.4362
   30c3c     HC  147   1.111   2.329   1.711  0.0448  0.0056 -1.3299
   30c3c     HC  148   1.140   2.187   1.800 -0.4934 -0.9356 -0.6947
   30c3c     H1  149   1.126   2.283   1.328 -0.6595 -0.3781  0.1469
   30c3c     H1  150   0.965   2.308   1.401 -0.9071 -0.6456  1.8667
   30c3c     H1  151   1.111   2.355   1.485 -0.5771  0.4678 -1.1812
   30c3c     H1  152   0.895   2.077   1.406  0.3568  0.5569  0.6996
   30c3c     H1  153   1.031   2.076   1.293  1.9742 -2.5474 -0.1382
   30c3c     C2  154   1.009   1.905   1.417  0.0832 -0.0631 -0.6420
   30c3c     HC  155   0.971   1.878   1.516  0.7423  2.1363  0.2481
   30c3c     HC  156   1.113   1.871   1.412  0.2871  0.5952 -0.9595
   30c3c     CT  157   0.942   1.810   1.308 -0.1151  0.2826  0.1606
   30c3c     HC  158   0.993   1.807   1.212 -0.4706  0.9619 -0.0465
   30c3c     HC  159   0.843   1.846   1.281  0.5583  1.1207 -1.2150
   30c3c     HC  160   0.935   1.707   1.345 -0.2540  0.0113 -0.5998
   31c3c     N4  161   2.092   1.875   4.554  0.1505  0.1246  0.4274
   31c3c     C1  162   2.040   1.767   4.468  0.8240 -0.0216 -0.0813
   31c3c     C1  163   2.189   1.940   4.470 -0.4472  0.4280  0.2362
   31c3c     C2  164   2.042   1.820   4.324 -0.0341 -0.0343  0.4862
   31c3c     C2  165   2.116   1.955   4.331  0.4631  1.0308  0.5857
   31c3c     C1  166   1.988   1.970   4.591 -0.3738  0.3144  0.0276
   31c3c     C1  167   2.142   1.831   4.690  0.8092  0.6013  0.6051
   31c3c     H1  168   1.944   1.726   4.499  1.4371 -1.7834 -0.4207
   31c3c     H1  169   2.111   1.685   4.459  1.0841  0.0178  1.4516
   31c3c     H1  170   2.222   2.036   4.509 -0.7805  0.7826 -0.3500
   31c3c     H1  171   2.284   1.887   4.462 -1.5262 -1.5659  0.3175
   31c3c     HC  172   1.942   1.823   4.281 -0.1174  0.4608  0.7078
   31c3c     HC  173   2.100   1.759   4.255  0.9680  0.3795  0.9436
   31c3c     HC  174   2.041   2.034   4.327  0.1684  0.6875 -1.1782
   31c3c     HC  175   2.187   1.981   4.252  1.2847 -0.9109  0.6531
   31c3c     H1  176   1.923   1.946   4.675  0.2366 -0.1018  0.3892
   31c3c     H1  177   2.023   2.071   4.614 -1.3121  0.4042  1.0949
   31c3c     H1  178   1.923   1.984   4.504  0.3209  1.4386 -0.3211
   31c3c     H1  179   2.173   1.917   4.749  0.6285  0.4488  0.9211
   31c3c     H1  180   2.061   1.774   4.735  2.8710 -1.3169  1.9922
   31c3c     C2  181   2.262   1.744   4.687 -0.3660  0.3152 -0.0096
   31c3c     HC  182   2.359   1.792   4.702  0.0550 -0.4662 -0.1894
   31c3c     HC  183   2.275   1.689   4.594  0.1901  1.2006 -0.4591
   31c3c     CT  184   2.255   1.639   4.797  0.0867  0.0519 -0.3839
   31c3c     HC  185   2.179   1.564   4.775  1.9647 -1.8670 -0.5446
   31c3c     HC  186   2.232   1.690   4.891 -1.6673  0.2320 -0.8999
   31c3c     HC  187   2.347   1.583   4.812  0.3277  0.6141  0.2553
   32c3c     N4  188   1.666   0.486   6.372  0.4015  0.2281  0.2585
   32c3c     C1  189   1.766   0.416   6.453 -0.8535 -0.1682 -0.0770
   32c3c     C1  190   1.587   0.384   6.312 -0.2150 -0.0776 -0.0876
   32c3c     C2  191   1.756   0.268   6.419 -0.0852  0.1844  0.3873
   32c3c     C2  192   1.609   0.253   6.394 -0.4304  0.1182 -0.2831
   32c3c     C1  193   1.573   0.555   6.466  0.3261  0.1410 -0.6421
   32c3c     C1  194   1.722   0.582   6.274 -0.2188 -0.0539  0.5944
   32c3c     H1  195   1.744   0.428   6.559 -0.7265  0.4380 -0.1189
   32c3c     H1  196   1.868   0.451   6.434 -0.8963  1.2001  2.0387
   32c3c     H1  197   1.479   0.399   6.306 -0.1540 -0.5007 -3.0321
   32c3c     H1  198   1.606   0.371   6.205 -0.2597  1.5745 -0.3097
   32c3c     HC  199   1.803   0.206   6.496 -1.0647 -0.7038  0.2801
   32c3c     HC  200   1.811   0.250   6.327 -2.0153  1.6867 -1.1048
   32c3c     HC  201   1.560   0.254   6.492  0.7222 -2.3200  0.3376
   32c3c     HC  202   1.587   0.159   6.344  1.2488 -0.4585  0.0453
   32c3c     H1  203   1.629   0.621   6.533  0.0354 -0.1249 -0.1385
   32c3c     H1  204   1.499   0.607   6.406 -0.4268 -0.4899 -0.2594
   32c3c     H1  205   1.512   0.505   6.541 -2.4152  3.8857 -0.2110
   32c3c     H1  206   1.644   0.605   6.202  0.6689  4.9600  1.0268
   32c3c     H1  207   1.739   0.682   6.315  1.6068  0.2812 -0.8654
   32c3c     C2  208   1.845   0.531   6.193 -0.6046  0.2331 -0.4365
   32c3c     HC  209   1.836   0.429   6.157  0.4319  0.2744 -0.8423
   32c3c     HC  210   1.936   0.532   6.254  1.0006 -3.7424 -2.6104
   32c3c     CT  211   1.873   0.641   6.083  0.5559 -0.1955  0.6341
   32c3c     HC  212   1.931   0.602   5.999  0.2878  3.0676 -1.1116
   32c3c     HC  213   1.922   0.725   6.133 -1.1161  1.1139  0.1079
   32c3c     HC  214   1.776   0.670   6.043  0.9182  0.0347 -0.0803
   33c3c     N4  215   6.535   3.222   2.302  0.8072 -0.1954  0.4260
   33c3c     C1  216   6.607   3.101   2.350  0.6067 -0.3369  0.1805
   33c3c     C1  217   6.428   3.163   2.220  0.6024 -0.7495 -0.3849
   33c3c     C2  218   6.507   2.986   2.357 -0.1691 -0.7206  0.1255
   33c3c     C2  219   6.380   3.037   2.294  0.9003 -0.3076  0.2851
   33c3c     C1  220   6.486   3.305   2.411  0.0836 -1.3205  0.3973
   33c3c     C1  221   6.627   3.311   2.225  0.4712 -0.5694  0.4211
   33c3c     H1  222   6.650   3.120   2.448 -0.7753 -1.9527  1.1215
   33c3c     H1  223   6.690   3.070   2.287 -0.4102 -1.1257 -0.7963
   33c3c     H1  224   6.351   3.226   2.176  0.2821 -1.5724 -1.0192
   33c3c     H1  225   6.479   3.117   2.136  1.4916 -0.8189  0.1839
   33c3c     HC  226   6.485   2.967   2.463  0.0475 -0.4775  0.2135
   33c3c     HC  227   6.547   2.895   2.313 -0.3831 -0.1048 -1.3453
   33c3c     HC  228   6.305   3.068   2.367  0.0710 -0.6585 -0.4069
   33c3c     HC  229   6.333   2.973   2.219 -0.5388  0.5370  0.4345
   33c3c     H1  230   6.564   3.342   2.477 -0.0749  0.7707 -0.5471
   33c3c     H1  231   6.428   3.389   2.373 -0.0090 -0.7514  1.7575
   33c3c     H1  232   6.426   3.246   2.481  0.5927 -0.9966  1.1169
   33c3c     H1  233   6.568   3.392   2.183 -0.5376 -0.3876  2.1342
   33c3c     H1  234   6.701   3.354   2.292  0.0257 -0.6244  0.9570
   33c3c     C2  235   6.712   3.249   2.115  0.6625  0.0734  0.2899
   33c3c     HC  236   6.651   3.192   2.044  0.7569 -0.7455  0.8504
   33c3c     HC  237   6.788   3.187   2.163  2.0329  0.6207 -1.1669
   33c3c     CT  238   6.785   3.362   2.038  0.9183  0.3577  0.7352
   33c3c     HC  239   6.725   3.436   1.985  0.8716 -0.2441 -0.0528
   33c3c     HC  240   6.849   3.318   1.962  1.0108 -0.8649  1.5155
   33c3c     HC  241   6.845   3.421   2.107  0.5843 -0.0736  1.4093
   34c3c     N4  242   6.398   3.200   5.581  0.1759  0.1341  0.9512
   34c3c     C1  243   6.289   3.292   5.556 -0.0170 -0.7108 -0.1021
   34c3c     C1  244   6.472   3.265   5.695 -0.2875  0.5339 -0.3461
   34c3c     C2  245   6.245   3.335   5.698 -0.1132  0.1391 -0.4172
   34c3c     C2  246   6.366   3.327   5.786 -0.3052  0.4525  0.2984
   34c3c     C1  247   6.341   3.071   5.623  0.0655 -0.0810 -0.1627
   34c3c     C1  248   6.490   3.168   5.462 -0.1203 -0.7398  0.0068
   34c3c     H1  249   6.202   3.263   5.496 -0.6214  1.8916 -0.5290
   34c3c     H1  250   6.309   3.384   5.501 -0.4819 -1.5157 -1.6664
   34c3c     H1  251   6.534   3.195   5.751  2.4211  2.2788 -1.0426
   34c3c     H1  252   6.533   3.346   5.655  0.4039  0.0691 -0.2428
   34c3c     HC  253   6.165   3.275   5.741 -1.1043  0.5044 -1.7213
   34c3c     HC  254   6.203   3.436   5.701 -0.0566  0.1305  1.2440
   34c3c     HC  255   6.347   3.276   5.881  0.0146  0.0702  0.1594
   34c3c     HC  256   6.395   3.429   5.814 -0.0455  0.6420 -0.6597
   34c3c     H1  257   6.294   3.025   5.536  1.0757 -1.4385 -0.0115
   34c3c     H1  258   6.423   3.002   5.648 -0.5776 -0.2017  1.6542
   34c3c     H1  259   6.265   3.070   5.701 -0.3138 -2.4354 -0.5190
   34c3c     H1  260   6.577   3.113   5.499  0.2196 -1.3670 -1.6946
   34c3c     H1  261   6.445   3.106   5.386  0.1123 -0.0130 -0.7358
   34c3c     C2  262   6.567   3.287   5.386  1.2338  0.6932  0.4850
   34c3c     HC  263   6.660   3.314   5.437  0.0875  0.8422  2.5717
   34c3c     HC  264   6.508   3.378   5.368 -0.5730 -0.2745  1.3373
   34c3c     CT  265   6.604   3.242   5.246  0.5868  0.5189  0.7049
   34c3c     HC  266   6.521   3.215   5.181  0.1090  0.3770  1.3747
   34c3c     HC  267   6.668   3.154   5.247  0.2128  0.2493  1.4860
   34c3c     HC  268   6.653   3.328   5.201 -0.4147  1.7163  1.8521
   35c3c     N4  269   3.339   6.976   1.867  0.5339 -0.7979 -0.4932
   35c3c     C1  270   3.230   6.984   1.761  0.5187 -0.9286 -0.1759
   35c3c     C1  271   3.465   6.956   1.789  0.0000 -0.4783  0.0846
   35c3c     C2  272   3.302   7.047   1.637  0.0242  0.2666 -0.5218
   35c3c     C2  273   3.453   7.048   1.670  0.9551 -0.5865  0.1815
   35c3c     C1  274   3.343   7.112   1.928  0.6860  0.0265 -0.8061
   35c3c     C1  275   3.322   6.881   1.975 -0.0611  0.2241 -0.2001
   35c3c     H1  276   3.141   7.038   1.794 -0.2149 -0.3939 -2.9705
   35c3c     H1  277   3.188   6.886   1.736  0.4814 -1.4191  1.6898
   35c3c     H1  278   3.554   6.977   1.848  1.7913 -1.1875 -2.3272
   35c3c     H1  279   3.486   6.855   1.755  1.4095 -1.7686  4.3850
   35c3c     HC  280   3.282   7.150   1.607 -0.1350  0.8329  1.4932
   35c3c     HC  281   3.277   6.988   1.548 -0.6089  2.2280 -1.6651
   35c3c     HC  282   3.484   7.148   1.701 -0.2076 -0.7738  2.0202
   35c3c     HC  283   3.519   7.009   1.593  1.3965 -2.3201  1.4225
   35c3c     H1  284   3.249   7.116   1.983  0.9982  1.1097 -0.3424
   35c3c     H1  285   3.428   7.123   1.994 -1.3181  0.1472  1.8640
   35c3c     H1  286   3.343   7.197   1.859  1.6008  1.1847  0.6075
   35c3c     H1  287   3.420   6.882   2.024  1.9843 -0.3467 -4.0931
   35c3c     H1  288   3.246   6.908   2.048  0.5207 -2.3278  1.4511
   35c3c     C2  289   3.302   6.730   1.938  0.3032 -0.3223 -0.3593
   35c3c     HC  290   3.373   6.689   1.866  0.3895  0.4462 -0.7240
   35c3c     HC  291   3.214   6.723   1.874 -0.8108 -1.0509  1.2287
   35c3c     CT  292   3.279   6.640   2.049 -0.1183 -0.2332 -0.4222
   35c3c     HC  293   3.259   6.539   2.013 -2.4399 -0.6434  1.9130
   35c3c     HC  294   3.180   6.661   2.089 -0.7613 -0.3170 -1.9350
   35c3c     HC  295   3.357   6.651   2.124  0.1839 -0.4527 -0.6992
   36c3c     N4  296   2.346   6.024   2.314 -0.0448  0.4588  0.0741
   36c3c     C1  297   2.226   5.981   2.240 -0.3328 -0.0988  0.1677
   36c3c     C1  298   2.327   5.991   2.462  0.0067 -0.1642  0.2713
   36c3c     C2  299   2.125   5.932   2.348  0.5223 -0.2770 -0.0922
   36c3c     C2  300   2.214   5.886   2.464  0.1315 -0.4007  0.3297
   36c3c     C1  301   2.463   5.949   2.260 -0.5570  0.5126 -0.1148
   36c3c     C1  302   2.380   6.166   2.286 -0.6283  0.3086 -0.0857
   36c3c     H1  303   2.240   5.894   2.176 -2.0367 -0.0755 -0.2523
   36c3c     H1  304   2.192   6.063   2.177  0.9695  0.7940  0.5956
   36c3c     H1  305   2.420   5.962   2.512  0.6031  1.3600  0.0711
   36c3c     H1  306   2.295   6.080   2.516 -0.0941 -1.0134  1.6262
   36c3c     HC  307   2.065   5.855   2.301  0.2136  1.4279 -2.6102
   36c3c     HC  308   2.060   6.018   2.364 -0.9078 -1.7764  2.4043
   36c3c     HC  309   2.260   5.790   2.439  0.9911 -0.1670  1.0011
   36c3c     HC  310   2.170   5.883   2.563  1.0932  0.0989  0.7776
   36c3c     H1  311   2.484   5.965   2.154 -0.0221 -0.0903 -0.1068
   36c3c     H1  312   2.552   5.988   2.309 -0.3946  0.6003 -0.4750
   36c3c     H1  313   2.458   5.843   2.286 -1.2449  0.7890  0.8962
   36c3c     H1  314   2.469   6.188   2.345 -0.0261 -1.4704 -0.3205
   36c3c     H1  315   2.392   6.184   2.179 -0.9625 -1.1517 -0.3696
   36c3c     C2  316   2.274   6.271   2.332 -0.0542 -0.3160  0.8244
   36c3c     HC  317   2.243   6.260   2.435  2.6466 -0.6654  1.6423
   36c3c     HC  318   2.180   6.252   2.281 -1.3592 -0.5323  3.2705
   36c3c     CT  319   2.314   6.418   2.323  0.0679 -0.1348  0.5061
   36c3c     HC  320   2.370   6.442   2.233 -0.0485 -0.5313  0.3274
   36c3c     HC  321   2.371   6.444   2.412 -0.5518  1.7146  0.3899
   36c3c     HC  322   2.226   6.482   2.327  0.0999 -0.1218  1.1119
   37c3c     N4  323   0.597   2.133   6.849 -0.6471  0.0103  0.1690
   37c3c     C1  324   0.447   2.114   6.852 -0.5845 -0.1575 -0.8200
   37c3c     C1  325   0.652   2.036   6.947 -1.2651 -0.0510  0.2751
   37c3c     C2  326   0.421   1.959   6.865 -1.1692 -0.0591 -0.1582
   37c3c     C2  327   0.556   1.915   6.925 -0.2040  0.2558  0.1023
   37c3c     C1  328   0.640   2.096   6.714  0.0573  0.1168 -0.2011
   37c3c     C1  329   0.637   2.274   6.863 -0.9520  0.7830  0.3112
   37c3c     H1  330   0.394   2.162   6.770 -0.4107  0.7157 -0.4270
   37c3c     H1  331   0.410   2.159   6.945 -1.0356 -0.1756 -0.9879
   37c3c     H1  332   0.756   2.006   6.930 -1.6433 -1.1929 -0.0878
   37c3c     H1  333   0.654   2.076   7.048 -2.5273  1.2263 -0.1827
   37c3c     HC  334   0.406   1.912   6.767  0.0340 -0.9519  0.0756
   37c3c     HC  335   0.341   1.931   6.934 -1.0113 -1.3570 -0.4809
   37c3c     HC  336   0.592   1.847   6.848 -2.9880  0.1787 -1.2168
   37c3c     HC  337   0.547   1.856   7.016 -1.3900  0.2857  0.0228
   37c3c     H1  338   0.609   2.157   6.629 -0.2082 -2.3706 -1.9333
   37c3c     H1  339   0.748   2.100   6.708  0.1066 -0.5017  0.2312
   37c3c     H1  340   0.604   1.996   6.689 -1.9007  0.5280  0.8150
   37c3c     H1  341   0.742   2.289   6.836 -1.4146  0.8151 -1.5723
   37c3c     H1  342   0.579   2.326   6.787 -0.1685 -1.5704 -1.9766
   37c3c     C2  343   0.614   2.346   6.998 -0.5940 -0.0527  0.8677
   37c3c     HC  344   0.672   2.292   7.074 -1.0391  0.3340  1.4912
   37c3c     HC  345   0.513   2.328   7.034 -1.3287  1.1760 -0.5457
   37c3c     CT  346   0.649   2.494   7.001  0.0060 -0.2589  0.5974
   37c3c     HC  347   0.740   2.519   7.054 -0.7776  1.3256  1.2122
   37c3c     HC  348   0.569   2.548   7.051  0.2708  0.2003  0.5242
   37c3c     HC  349   0.670   2.532   6.901  0.9638 -0.4901  0.7061
   38c3c     N4  350   0.459   2.326   0.808  0.1118  0.6986  0.2181
   38c3c     C1  351   0.519   2.381   0.931  0.2570  0.0200  0.5845
   38c3c     C1  352   0.519   2.415   0.703  0.1671 -0.2768  0.3391
   38c3c     C2  353   0.659   2.437   0.899 -0.0715 -0.4617  0.1967
   38c3c     C2  354   0.663   2.453   0.746  0.5418 -0.0170  0.2554
   38c3c     C1  355   0.508   2.198   0.771 -0.6446  0.3938 -0.1101
   38c3c     C1  356   0.313   2.313   0.797  0.6920 -0.1219 -0.7333
   38c3c     H1  357   0.518   2.304   1.007  1.0250 -1.1802 -0.6039
   38c3c     H1  358   0.460   2.467   0.963  0.3955  1.2085 -2.1865
   38c3c     H1  359   0.518   2.371   0.603  1.9459  2.3558 -0.9140
   38c3c     H1  360   0.458   2.504   0.691  1.6606  0.9115  1.2822
   38c3c     HC  361   0.740   2.372   0.932 -0.8791 -1.4691  0.2351
   38c3c     HC  362   0.675   2.531   0.953 -0.7318 -0.3758  0.2515
   38c3c     HC  363   0.736   2.382   0.708 -1.2284 -1.4165 -0.5692
   38c3c     HC  364   0.700   2.549   0.710  3.3615 -0.9130  0.6807
   38c3c     H1  365   0.472   2.123   0.842 -0.4388 -0.4921 -0.9261
   38c3c     H1  366   0.467   2.169   0.674 -0.5925  1.0593 -0.3337
   38c3c     H1  367   0.616   2.189   0.771 -0.7714 -1.6010  1.6535
   38c3c     H1  368   0.282   2.295   0.695  0.0744  0.5574 -0.6722
   38c3c     H1  369   0.272   2.231   0.857 -1.4331  0.2385 -1.6587
   38c3c     C2  370   0.235   2.436   0.853 -0.3573  0.2598 -0.0627
   38c3c     HC  371   0.279   2.526   0.811 -0.0200  0.7425  1.3079
   38c3c     HC  372   0.246   2.442   0.961  0.1882  0.5023 -0.1333
   38c3c     CT  373   0.085   2.430   0.821 -0.3593  0.8158  0.6718
   38c3c     HC  374   0.044   2.330   0.838  1.8095 -0.5065 -1.5964
   38c3c     HC  375   0.072   2.454   0.716  0.6146 -0.9856  0.1239
   38c3c     HC  376   0.029   2.507   0.874 -0.5755  1.3450 -0.3313
   39c3c     N4  377   4.865   5.973   5.251  0.1259 -0.4808  0.4673
   39c3c     C1  378   4.747   5.942   5.332  0.2381 -1.0094  0.1630
   39c3c     C1  379   4.893   5.849   5.176  0.5409 -0.1707  0.9172
   39c3c     C2  380   4.657   5.850   5.255  0.2461 -0.9071  0.3757
   39c3c     C2  381   4.752   5.788   5.153  0.6716 -0.2461  0.4514
   39c3c     C1  382   4.831   6.073   5.153  0.4155 -0.5611 -0.2502
   39c3c     C1  383   4.976   6.023   5.341 -0.2470 -0.2770 -0.0657
   39c3c     H1  384   4.704   6.037   5.363  1.7935  0.0504 -0.8343
   39c3c     H1  385   4.771   5.889   5.424  1.3345 -1.2978 -0.2874
   39c3c     H1  386   4.954   5.862   5.086  0.8430 -2.6624  0.7261
   39c3c     H1  387   4.949   5.778   5.237  1.2771 -0.4694 -0.0842
   39c3c     HC  388   4.585   5.912   5.202  0.6224 -0.4689  0.3753
   39c3c     HC  389   4.608   5.782   5.324 -0.9706 -0.5644 -0.1290
   39c3c     HC  390   4.725   5.821   5.052  1.1108 -1.8769 -0.2079
   39c3c     HC  391   4.745   5.679   5.151  0.2774 -0.2165 -0.0957
   39c3c     H1  392   4.810   6.172   5.195  2.1433 -0.4778  0.4653
   39c3c     H1  393   4.914   6.082   5.082  0.1580 -0.9615 -0.6076
   39c3c     H1  394   4.745   6.050   5.089 -0.5046  1.4970  0.1944
   39c3c     H1  395   5.055   6.044   5.269 -0.3632 -0.3155 -0.2065
   39c3c     H1  396   4.949   6.120   5.383  0.8044 -0.1294  0.2847
   39c3c     C2  397   5.028   5.935   5.455 -0.2587 -0.0709 -0.0435
   39c3c     HC  398   5.059   5.836   5.424 -1.2413  0.0614 -1.5025
   39c3c     HC  399   4.950   5.916   5.529  1.1642  0.6956  1.6820
   39c3c     CT  400   5.146   6.001   5.533  0.3732  0.8911  0.2583
   39c3c     HC  401   5.117   6.099   5.571  0.7408  0.8237  0.7080
   39c3c     HC  402   5.237   6.008   5.473  0.3131  0.0017  0.0549
   39c3c     HC  403   5.169   5.950   5.627 -0.0867  0.0692 -0.0664
   40c3c     N4  404   6.815   3.347   4.364 -0.1898  0.2008 -0.5941
   40c3c     C1  405   6.942   3.389   4.300 -0.7225  0.2700 -0.6244
   40c3c     C1  406   6.777   3.471   4.436 -0.5062  0.0342 -0.7531
   40c3c     C2  407   7.010   3.507   4.381  0.2087  1.2884 -0.8039
   40c3c     C2  408   6.902   3.545   4.482 -0.9324 -0.2094  0.0803
   40c3c     C1  409   6.713   3.310   4.266 -1.1570  0.5551  0.2896
   40c3c     C1  410   6.834   3.230   4.456  0.1782  0.6204 -0.2447
   40c3c     H1  411   6.929   3.427   4.199  0.7334 -0.1178 -0.9730
   40c3c     H1  412   7.008   3.304   4.279 -1.0133 -0.1976  0.3343
   40c3c     H1  413   6.722   3.537   4.369 -0.5433  0.3016 -0.4583
   40c3c     H1  414   6.706   3.458   4.517  0.8873  1.5638  0.7522
   40c3c     HC  415   7.031   3.587   4.309  0.3445  2.0818  0.1024
   40c3c     HC  416   7.103   3.480   4.431  0.4050  0.4605 -1.6056
   40c3c     HC  417   6.886   3.650   4.505  0.9761 -0.1526  1.2665
   40c3c     HC  418   6.936   3.518   4.582  0.2064 -0.4421 -0.3642
   40c3c     H1  419   6.746   3.220   4.213 -2.5787  0.6230 -0.7450
   40c3c     H1  420   6.625   3.288   4.326 -1.0106  0.2209  0.3830
   40c3c     H1  421   6.696   3.381   4.185 -1.5184  0.9387  0.6986
   40c3c     H1  422   6.745   3.216   4.517  0.7254  1.4158  0.7588
   40c3c     H1  423   6.848   3.140   4.397  0.4748  0.0721  0.6583
   40c3c     C2  424   6.957   3.228   4.549  0.5150  0.0519  0.2336
   40c3c     HC  425   6.949   3.304   4.627 -1.5989 -0.7454  0.8217
   40c3c     HC  426   7.052   3.246   4.498 -0.5222  0.0283 -1.7370
   40c3c     CT  427   6.975   3.098   4.632 -0.4541  0.9108  0.0316
   40c3c     HC  428   6.975   3.013   4.563  1.2097  1.1097 -0.2359
   40c3c     HC  429   6.895   3.087   4.704 -0.4859  1.8750  0.1445
   40c3c     HC  430   7.072   3.102   4.682 -0.3426  1.9622 -0.2708
   41c3c     N4  431   1.327   1.436   3.822  0.0294  0.3180  0.0053
   41c3c     C1  432   1.338   1.290   3.784  0.1262 -0.3406  0.3932
   41c3c     C1  433   1.420   1.458   3.938  0.9393  0.2126 -0.4793
   41c3c     C2  434   1.463   1.241   3.851  0.1338  0.0202  0.3002
   41c3c     C2  435   1.539   1.372   3.900 -0.0003  0.1297  0.5571
   41c3c     C1  436   1.375   1.516   3.707 -0.6289 -0.3814 -0.1510
   41c3c     C1  437   1.191   1.474   3.849  0.4745 -0.2650  1.1275
   41c3c     H1  438   1.341   1.276   3.676  0.5135 -0.3830  0.4079
   41c3c     H1  439   1.253   1.227   3.811 -0.4444  0.1139 -0.3392
   41c3c     H1  440   1.446   1.561   3.959  1.8521  0.0976 -0.9968
   41c3c     H1  441   1.387   1.417   4.034 -0.5074  1.0023 -0.6230
   41c3c     HC  442   1.529   1.180   3.789  0.4441  0.8628 -0.1949
   41c3c     HC  443   1.439   1.186   3.942 -0.0167  1.8643  1.4047
   41c3c     HC  444   1.607   1.413   3.825  2.3801 -0.5311  2.2799
   41c3c     HC  445   1.608   1.350   3.982  1.7895 -0.4848 -1.0775
   41c3c     H1  446   1.316   1.488   3.620  1.0728 -1.1863 -1.0789
   41c3c     H1  447   1.352   1.621   3.725 -0.9953 -0.2100 -1.5732
   41c3c     H1  448   1.481   1.503   3.684 -0.6885 -0.7710 -0.2168
   41c3c     H1  449   1.178   1.582   3.853  0.4149 -0.2929  1.6448
   41c3c     H1  450   1.138   1.445   3.758  2.4159 -1.3508  0.3070
   41c3c     C2  451   1.122   1.414   3.972 -0.4300 -0.0606  0.2588
   41c3c     HC  452   1.169   1.465   4.056  0.2715  1.0618 -0.7790
   41c3c     HC  453   1.144   1.308   3.984 -1.3978 -0.3256 -0.2684
   41c3c     CT  454   0.972   1.444   3.966  0.2874  0.0457  0.3397
   41c3c     HC  455   0.928   1.438   3.866 -0.0958 -1.0012  0.5592
   41c3c     HC  456   0.946   1.544   4.001 -0.4553 -0.1841  0.4675
   41c3c     HC  457   0.915   1.377   4.031  1.0361 -0.4633  0.4797
   42c3c     N4  458   2.013   5.826   1.621 -0.3730  0.1344 -0.6070
   42c3c     C1  459   1.868   5.850   1.635 -0.4502  0.2615 -0.0342
   42c3c     C1  460   2.013   5.700   1.549 -0.4738  1.1808  0.4180
   42c3c     C2  461   1.801   5.800   1.504 -0.3389  0.8086 -0.6277
   42c3c     C2  462   1.895   5.708   1.444 -0.1147 -0.1179 -0.7027
   42c3c     C1  463   2.065   5.936   1.536  0.6977  0.2797 -0.5089
   42c3c     C1  464   2.088   5.815   1.750  0.1501 -0.2374 -0.3692
   42c3c     H1  465   1.840   5.952   1.658  0.1831  0.7386 -1.3154
   42c3c     H1  466   1.832   5.792   1.720 -0.2309 -0.5935 -0.5077
   42c3c     H1  467   2.105   5.681   1.494 -0.4316  0.8604  0.6057
   42c3c     H1  468   1.991   5.614   1.611  0.1034  1.7248  1.3792
   42c3c     HC  469   1.776   5.875   1.429  1.6733  0.2905 -1.8324
   42c3c     HC  470   1.708   5.747   1.526 -0.8543  0.4303 -3.5393
   42c3c     HC  471   1.929   5.746   1.348  0.4480  0.3475 -0.3217
   42c3c     HC  472   1.846   5.613   1.423  0.9286 -0.2494 -2.5718
   42c3c     H1  473   2.054   6.028   1.594 -1.1875 -0.5988  0.6024
   42c3c     H1  474   2.169   5.914   1.512  0.6055 -0.2799 -0.4159
   42c3c     H1  475   2.012   5.946   1.441  0.0551  1.1083 -0.0682
   42c3c     H1  476   2.193   5.809   1.719  0.4007  0.0462  0.4328
   42c3c     H1  477   2.086   5.910   1.803  0.2468 -0.2671 -0.3140
   42c3c     C2  478   2.056   5.701   1.849 -0.1339  0.6428 -0.6930
   42c3c     HC  479   2.057   5.600   1.808 -1.6167 -0.5749  2.1055
   42c3c     HC  480   1.961   5.720   1.899  0.7529 -1.9504  2.1383
   42c3c     CT  481   2.163   5.680   1.954 -0.6036 -0.0840  0.4026
   42c3c     HC  482   2.261   5.657   1.911  0.3719  3.0723  0.7955
   42c3c     HC  483   2.149   5.596   2.022  0.6580  0.2476  1.0784
   42c3c     HC  484   2.166   5.768   2.018 -3.2354  0.2097  0.1759
   43c3c     N4  485   6.243   3.245   4.762  0.1689 -0.1674 -0.1316
   43c3c     C1  486   6.374   3.208   4.807  0.5400 -0.0252  0.1404
   43c3c     C1  487   6.242   3.171   4.641 -0.3361  0.0306  0.7439
   43c3c     C2  488   6.391   3.057   4.777 -0.6820 -0.8438 -0.1314
   43c3c     C2  489   6.285   3.026   4.671 -0.2168  0.5696  0.0812
   43c3c     C1  490   6.144   3.197   4.863  0.0753  0.0589  0.1188
   43c3c     C1  491   6.221   3.391   4.740 -0.1787 -0.7729 -0.5087
   43c3c     H1  492   6.387   3.242   4.910 -0.3692  1.0713 -0.0905
   43c3c     H1  493   6.443   3.266   4.747 -0.7545  0.2613 -1.0855
   43c3c     H1  494   6.146   3.181   4.589  0.2935  1.9917 -0.1149
   43c3c     H1  495   6.311   3.210   4.566 -0.8785  0.0689  0.2605
   43c3c     HC  496   6.358   2.999   4.864  0.0152  0.6838  1.1772
   43c3c     HC  497   6.492   3.024   4.753 -1.0904 -0.8910 -1.8095
   43c3c     HC  498   6.201   2.963   4.700 -0.2960  0.8409  0.4470
   43c3c     HC  499   6.327   2.983   4.580  0.8645  1.6181  0.0684
   43c3c     H1  500   6.150   3.261   4.951  2.6794 -0.7242  0.5551
   43c3c     H1  501   6.041   3.208   4.830 -0.7340 -0.6512  2.3042
   43c3c     H1  502   6.151   3.095   4.902  0.6431  0.0888  0.0927
   43c3c     H1  503   6.114   3.401   4.718 -0.0959 -1.5873 -1.3147
   43c3c     H1  504   6.230   3.436   4.839  1.2828 -0.0902 -0.9518
   43c3c     C2  505   6.294   3.467   4.623 -0.0411  0.2335 -0.0111
   43c3c     HC  506   6.278   3.416   4.528  1.8364 -0.7581  0.1813
   43c3c     HC  507   6.401   3.479   4.640 -0.6026  3.4493  1.6915
   43c3c     CT  508   6.224   3.602   4.613 -0.4922  0.0755  0.4531
   43c3c     HC  509   6.211   3.657   4.706 -0.4383 -0.0754  0.5504
   43c3c     HC  510   6.127   3.590   4.566  1.5793 -0.4059 -3.9225
   43c3c     HC  511   6.284   3.666   4.549  0.5082  0.4508  1.7240
   44c3c     N4  512   4.944   6.114   1.080 -0.7096 -0.3147 -0.6179
   44c3c     C1  513   5.018   5.990   1.126  0.3727  0.0220 -1.1703
   44c3c     C1  514   4.812   6.057   1.107  0.3806 -1.0020  0.1785
   44c3c     C2  515   4.955   5.939   1.252  1.0995 -0.3293  0.7194
   44c3c     C2  516   4.810   5.943   1.206  0.3370 -0.5356  0.2111
   44c3c     C1  517   4.971   6.231   1.167  0.3910  0.3641  0.4494
   44c3c     C1  518   4.972   6.150   0.940  0.2377 -0.3557 -0.3384
   44c3c     H1  519   5.122   6.002   1.158  1.0368 -0.3054 -3.1299
   44c3c     H1  520   5.018   5.907   1.055 -0.1594  1.0036 -2.3360
   44c3c     H1  521   4.729   6.124   1.130  2.2658  1.2619  0.5479
   44c3c     H1  522   4.777   6.007   1.016 -0.1732  1.8113 -1.2199
   44c3c     HC  523   4.969   6.004   1.338  0.3578  1.9697 -0.8446
   44c3c     HC  524   4.979   5.837   1.281 -0.7066 -0.3534  2.2327
   44c3c     HC  525   4.753   5.964   1.296  0.3414  0.8352 -0.0821
   44c3c     HC  526   4.785   5.847   1.161  0.3260  0.1081 -1.2101
   44c3c     H1  527   5.070   6.274   1.155  0.2630  0.1106 -1.8010
   44c3c     H1  528   4.898   6.311   1.158 -0.1206  0.1233  2.3576
   44c3c     H1  529   4.957   6.203   1.271  0.3699  0.8193  0.5693
   44c3c     H1  530   4.901   6.222   0.900  1.1967 -0.1421 -1.6746
   44c3c     H1  531   5.068   6.201   0.948 -0.4215  0.9138 -0.3978
   44c3c     C2  532   4.988   6.042   0.831  0.3357 -1.0610  0.2606
   44c3c     HC  533   4.886   6.006   0.822 -0.5464  1.9468 -2.4394
   44c3c     HC  534   5.055   5.963   0.865 -0.8706 -1.3536  2.0387
   44c3c     CT  535   5.021   6.097   0.696  0.4577  0.6930  0.7835
   44c3c     HC  536   5.127   6.121   0.689  1.0677 -1.7802  1.0744
   44c3c     HC  537   4.952   6.175   0.664 -0.1586  0.2192  0.9513
   44c3c     HC  538   5.007   6.013   0.628 -4.0921  0.7743  1.4706
   45c3c     N4  539   0.851   1.851   4.400  0.1216 -0.0797 -0.0694
   45c3c     C1  540   0.741   1.757   4.401 -0.1091  0.5566  0.1070
   45c3c     C1  541   0.885   1.853   4.547 -0.0623  0.2124  0.0552
   45c3c     C2  542   0.775   1.652   4.502  0.0329  1.0379 -0.2936
   45c3c     C2  543   0.883   1.709   4.589  0.3303  0.6029  0.2908
   45c3c     C1  544   0.960   1.804   4.315  0.1263  0.0829 -0.2312
   45c3c     C1  545   0.816   1.991   4.367  0.6524  0.4055  0.4540
   45c3c     H1  546   0.717   1.717   4.302 -1.7817  1.6128  0.0506
   45c3c     H1  547   0.649   1.806   4.434 -1.2158 -1.2869 -0.1753
   45c3c     H1  548   0.984   1.897   4.561 -0.2524  0.6941 -0.1214
   45c3c     H1  549   0.812   1.903   4.610 -1.4604 -0.1798 -1.2492
   45c3c     HC  550   0.815   1.559   4.463 -2.0085  0.3593 -0.8295
   45c3c     HC  551   0.684   1.626   4.556 -0.2113  0.8954 -0.7739
   45c3c     HC  552   0.976   1.659   4.564 -0.1043  0.2519 -0.6611
   45c3c     HC  553   0.861   1.698   4.695 -2.3606  1.4026 -0.1301
   45c3c     H1  554   0.929   1.805   4.211 -2.1579  1.8516  0.4085
   45c3c     H1  555   1.049   1.865   4.326  1.2560 -1.4359 -0.7452
   45c3c     H1  556   0.971   1.697   4.336 -0.2273  0.0354 -0.2793
   45c3c     H1  557   0.905   2.053   4.362 -0.0608  1.6492  2.4637
   45c3c     H1  558   0.775   1.985   4.267 -0.4889  0.9986  0.8786
   45c3c     C2  559   0.712   2.075   4.445  0.1045 -0.0466  0.1390
   45c3c     HC  560   0.736   2.087   4.550 -1.3242 -1.7992  0.6826
   45c3c     HC  561   0.612   2.032   4.454 -0.8998  2.0729 -0.3719
   45c3c     CT  562   0.698   2.217   4.385  0.4140  0.8024  0.4170
   45c3c     HC  563   0.705   2.213   4.276 -0.0035  1.4918  0.3616
   45c3c     HC  564   0.770   2.288   4.426 -0.3619  1.5238  0.5526
   45c3c     HC  565   0.599   2.258   4.406  0.2131 -0.5563  2.2532
   46c3c     N4  566   2.631   1.393   3.204 -0.1362  0.3426  0.3300
   46c3c     C1  567   2.716   1.512   3.214  0.3829 -0.3927 -0.0929
   46c3c     C1  568   2.504   1.439   3.258 -0.4517 -0.0799 -0.4444
   46c3c     C2  569   2.627   1.624   3.155  1.0817 -0.3474 -0.0112
   46c3c     C2  570   2.482   1.575   3.190  0.5313 -0.0073 -0.3837
   46c3c     C1  571   2.614   1.357   3.061 -0.0136 -0.4772 -0.0734
   46c3c     C1  572   2.682   1.266   3.266 -0.1925  0.4849 -0.1803
   46c3c     H1  573   2.811   1.495   3.163  0.0484  0.1142 -0.9103
   46c3c     H1  574   2.744   1.531   3.317 -0.7057 -0.0285  0.1469
   46c3c     H1  575   2.423   1.368   3.241 -1.3801  0.8848 -0.0688
   46c3c     H1  576   2.511   1.444   3.367 -0.3067  0.1047 -0.4618
   46c3c     HC  577   2.638   1.626   3.047  0.1746  2.1338 -0.0868
   46c3c     HC  578   2.654   1.721   3.195 -0.3029 -0.0233  0.1623
   46c3c     HC  579   2.426   1.571   3.096  1.2306  0.4660 -0.8233
   46c3c     HC  580   2.414   1.637   3.249  0.0558 -0.4832 -0.4231
   46c3c     H1  581   2.708   1.334   3.012  0.8151 -0.3026  1.4007
   46c3c     H1  582   2.550   1.269   3.049 -0.8905  0.2468 -0.7442
   46c3c     H1  583   2.562   1.433   3.003  1.2303  0.9866  0.7167
   46c3c     H1  584   2.614   1.185   3.240  0.2026  0.2523 -0.5042
   46c3c     H1  585   2.779   1.234   3.228 -0.7535  0.3815 -1.5516
   46c3c     C2  586   2.692   1.254   3.418 -0.0925 -0.2423 -0.9326
   46c3c     HC  587   2.593   1.258   3.465 -0.3628  1.2892 -1.6040
   46c3c     HC  588   2.747   1.341   3.456  1.2603 -0.4841 -2.2915
   46c3c     CT  589   2.767   1.128   3.462 -0.3571 -0.3774  0.2737
   46c3c     HC  590   2.861   1.118   3.409 -0.1066 -0.8369  0.7987
   46c3c     HC  591   2.700   1.045   3.439 -1.1791 -0.2483  2.1293
   46c3c     HC  592   2.787   1.132   3.569  1.1717  1.5750 -0.0469
   47c3c     N4  593   4.850   6.349   5.918 -0.5744 -0.0150  0.2748
   47c3c     C1  594   4.874   6.291   5.785 -0.8084 -0.3237 -0.1476
   47c3c     C1  595   4.715   6.317   5.952 -0.6811  0.1002  0.1477
   47c3c     C2  596   4.785   6.170   5.771 -0.5035 -0.6718  0.1556
   47c3c     C2  597   4.685   6.181   5.887 -0.2867 -0.1952  0.5628
   47c3c     C1  598   4.937   6.279   6.016 -0.1830 -0.0641 -0.6660
   47c3c     C1  599   4.878   6.498   5.928 -0.4620  0.3410 -0.3364
   47c3c     H1  600   4.980   6.273   5.767 -0.5236  0.4178  0.7145
   47c3c     H1  601   4.839   6.362   5.710  0.2160 -1.5342 -1.7875
   47c3c     H1  602   4.707   6.319   6.061  1.7288  1.0334  0.3317
   47c3c     H1  603   4.646   6.391   5.910 -1.9063 -0.6678  0.7632
   47c3c     HC  604   4.832   6.073   5.786 -0.8649 -0.9700 -0.5545
   47c3c     HC  605   4.743   6.170   5.670 -0.9870 -1.5479  0.3443
   47c3c     HC  606   4.687   6.090   5.946 -0.8627  0.2915  1.3376
   47c3c     HC  607   4.581   6.185   5.855  0.0689 -0.5492 -0.6839
   47c3c     H1  608   5.041   6.300   5.994 -0.5141  2.3015 -0.1006
   47c3c     H1  609   4.918   6.336   6.107 -0.8293 -1.2079 -0.0686
   47c3c     H1  610   4.920   6.172   6.028  0.9801 -0.5815 -3.3335
   47c3c     H1  611   4.874   6.531   6.032 -0.0563 -1.4362  0.2693
   47c3c     H1  612   4.981   6.518   5.900  0.4125 -2.0161  1.0169
   47c3c     C2  613   4.791   6.596   5.849 -0.6264  0.1751  0.8257
   47c3c     HC  614   4.685   6.577   5.864  0.0711 -3.1081  2.2321
   47c3c     HC  615   4.814   6.588   5.743 -1.3337 -0.8904  0.7396
   47c3c     CT  616   4.823   6.739   5.884 -0.1835  0.0032  0.3683
   47c3c     HC  617   4.810   6.759   5.990  1.5720 -1.4636  0.8949
   47c3c     HC  618   4.775   6.812   5.820 -0.5458 -1.6265 -1.2816
   47c3c     HC  619   4.928   6.757   5.862 -0.9045  1.3459 -2.0824
   48c3c     N4  620   5.095   6.723   2.371  0.5361  0.2185  0.2973
   48c3c     C1  621   5.172   6.849   2.355  0.1150  0.0970 -0.5937
   48c3c     C1  622   4.966   6.774   2.332 -0.0814  0.8207  0.2207
   48c3c     C2  623   5.118   6.924   2.234  0.5353  0.7503 -0.3367
   48c3c     C2  624   4.984   6.862   2.208 -0.3247 -0.0564 -0.0935
   48c3c     C1  625   5.150   6.620   2.274  1.0723  0.0483 -0.1602
   48c3c     C1  626   5.097   6.666   2.506  0.0827 -0.2579 -0.7805
   48c3c     H1  627   5.280   6.834   2.346  0.2466  0.5864  0.1056
   48c3c     H1  628   5.161   6.903   2.449 -1.0453 -0.7504 -0.2239
   48c3c     H1  629   4.882   6.705   2.331 -0.1259  0.8512  1.2431
   48c3c     H1  630   4.947   6.845   2.412  1.0708  0.2264  1.0343
   48c3c     HC  631   5.189   6.917   2.151 -2.2819  3.3980 -3.0934
   48c3c     HC  632   5.108   7.028   2.263  0.1614  0.7315 -0.3937
   48c3c     HC  633   4.986   6.810   2.113  0.7976 -0.9377  0.3926
   48c3c     HC  634   4.900   6.931   2.200 -0.3187 -0.0706 -0.2672
   48c3c     H1  635   5.133   6.638   2.167 -0.6306  1.9431  0.4023
   48c3c     H1  636   5.256   6.608   2.297  1.6238  1.3726 -1.8806
   48c3c     H1  637   5.096   6.528   2.291  2.6908 -0.5861  1.6145
   48c3c     H1  638   5.042   6.573   2.493  0.7231 -1.0260  1.7167
   48c3c     H1  639   5.197   6.630   2.531 -1.4320 -3.3860  0.9925
   48c3c     C2  640   5.016   6.746   2.614  0.2395  0.2283 -0.0050
   48c3c     HC  641   4.911   6.747   2.586  0.7880  1.0886 -2.1397
   48c3c     HC  642   5.047   6.851   2.620 -1.7648  0.8059  0.6741
   48c3c     CT  643   5.026   6.708   2.757 -0.2995 -0.1790 -0.3182
   48c3c     HC  644   5.130   6.685   2.779 -0.2340 -0.1244 -0.5637
   48c3c     HC  645   4.962   6.625   2.787 -1.3847  1.0871  0.9568
   48c3c     HC  646   4.991   6.787   2.823  0.1942 -0.3378  0.1316
   49c3c     N4  647   4.379   4.218   6.272  0.0612 -0.4653 -0.1133
   49c3c     C1  648   4.485   4.253   6.180  0.2094  0.4661  0.1660
   49c3c     C1  649   4.447   4.146   6.381  0.0953 -0.4713 -0.7473
   49c3c     C2  650   4.613   4.278   6.262  0.2899 -0.0373  0.3948
   49c3c     C2  651   4.583   4.225   6.402 -0.2830  0.3605 -0.1288
   49c3c     C1  652   4.314   4.339   6.326 -0.0807 -0.4162 -0.5262
   49c3c     C1  653   4.271   4.136   6.213  0.1933  0.3494 -0.3452
   49c3c     H1  654   4.460   4.336   6.114 -1.3672 -0.2433 -0.1381
   49c3c     H1  655   4.509   4.165   6.120  1.0623 -0.0453  1.2417
   49c3c     H1  656   4.393   4.139   6.476  0.3149 -0.0189 -0.5913
   49c3c     H1  657   4.482   4.044   6.363  2.4848  0.2147 -0.1054
   49c3c     HC  658   4.633   4.384   6.271 -4.3443  0.8487  1.2916
   49c3c     HC  659   4.694   4.223   6.213  0.4879  1.0542 -0.5154
   49c3c     HC  660   4.568   4.308   6.471 -0.5497  0.7313 -0.6267
   49c3c     HC  661   4.666   4.165   6.439  0.1220  0.0163 -1.5673
   49c3c     H1  662   4.270   4.397   6.245 -1.4626 -2.2621 -1.1161
   49c3c     H1  663   4.231   4.312   6.390 -1.2593  0.2936 -1.7292
   49c3c     H1  664   4.384   4.409   6.371  0.4896 -0.8325 -0.7565
   49c3c     H1  665   4.208   4.112   6.299  1.9407  1.0574  1.1516
   49c3c     H1  666   4.210   4.193   6.142 -1.7203 -1.8796 -0.5487
   49c3c     C2  667   4.312   4.004   6.152  0.2332  0.4912  0.4662
   49c3c     HC  668   4.353   3.938   6.228 -0.5118  0.0235  0.4718
   49c3c     HC  669   4.381   4.021   6.070  1.5399 -1.8723  1.0258
   49c3c     CT  670   4.198   3.920   6.092  0.2725  0.4395  0.3927
   49c3c     HC  671   4.120   3.973   6.037  0.4213 -0.8582 -1.0964
   49c3c     HC  672   4.140   3.870   6.170  0.3292  0.7243  0.6152
   49c3c     HC  673   4.235   3.843   6.024  0.5205  1.1438 -0.2816
   50c3c     N4  674   4.606   1.401   1.608 -0.0548 -0.0953 -0.5490
   50c3c     C1  675   4.549   1.269   1.560 -0.6758 -0.2318  0.1761
   50c3c     C1  676   4.635   1.372   1.750 -0.1804 -0.2749 -0.3351
   50c3c     C2  677   4.609   1.154   1.642  0.8139 -0.4520 -0.0191
   50c3c     C2  678   4.683   1.228   1.752  0.0142  0.1322  0.8633
   50c3c     C1  679   4.727   1.441   1.535 -0.0174 -0.4192 -0.5407
   50c3c     C1  680   4.514   1.517   1.596  0.2574 -0.2614 -0.1217
   50c3c     H1  681   4.553   1.260   1.452  0.4467 -1.2911  0.3036
   50c3c     H1  682   4.443   1.272   1.585 -0.4009  1.4799  1.2216
   50c3c     H1  683   4.716   1.432   1.792 -0.5015  0.4618 -0.7609
   50c3c     H1  684   4.543   1.375   1.808  0.1354 -0.2204  0.1710
   50c3c     HC  685   4.668   1.086   1.582 -1.3490 -2.8417  0.4533
   50c3c     HC  686   4.535   1.087   1.686  0.1094  0.5767  0.3916
   50c3c     HC  687   4.789   1.226   1.723 -0.2384  0.2088 -0.0894
   50c3c     HC  688   4.669   1.179   1.848 -0.4359  1.8981  1.7165
   50c3c     H1  689   4.704   1.459   1.430 -0.6697  0.0685 -0.3190
   50c3c     H1  690   4.774   1.529   1.579 -0.6033  0.5622 -1.8704
   50c3c     H1  691   4.799   1.359   1.535 -0.6501 -0.9902 -0.0027
   50c3c     H1  692   4.573   1.608   1.605  0.5787 -0.5035  0.2262
   50c3c     H1  693   4.478   1.517   1.493 -0.8909 -0.0039  0.2737
   50c3c     C2  694   4.393   1.544   1.693  0.0869 -0.2130  0.1819
   50c3c     HC  695   4.424   1.547   1.798  0.6743 -1.5348  0.0528
   50c3c     HC  696   4.326   1.458   1.692 -0.4486  0.1688  1.3874
   50c3c     CT  697   4.317   1.672   1.657  0.7124 -0.5050 -0.3870
   50c3c     HC  698   4.288   1.676   1.552 -0.0668 -3.0740 -0.2846
   50c3c     HC  699   4.371   1.763   1.682  0.9017 -0.0066 -2.5255
   50c3c     HC  700   4.221   1.681   1.708  0.7543  0.1747 -0.4249
   51c3c     N4  701   0.553   2.968   2.228  0.1908 -0.0343 -0.4621
   51c3c     C1  702   0.569   3.079   2.137  0.0475  0.2755 -0.4213
   51c3c     C1  703   0.617   2.857   2.154  0.2867  0.0450  0.2136
   51c3c     C2  704   0.698   3.059   2.058  0.1132 -0.1789 -0.0750
   51c3c     C2  705   0.730   2.912   2.071 -0.8197 -0.4067 -0.2846
   51c3c     C1  706   0.634   2.992   2.346  0.8396  0.1896  0.3652
   51c3c     C1  707   0.414   2.935   2.264  0.0522 -0.1980 -0.2736
   51c3c     H1  708   0.568   3.176   2.186  2.2767 -0.1578  0.5906
   51c3c     H1  709   0.488   3.097   2.067  0.0475 -0.2333 -0.5544
   51c3c     H1  710   0.664   2.779   2.214  1.0711 -0.3402 -0.8856
   51c3c     H1  711   0.553   2.813   2.078 -0.3294 -0.9895  1.3182
   51c3c     HC  712   0.781   3.122   2.091  1.3858 -0.6417 -2.2737
   51c3c     HC  713   0.696   3.094   1.954  2.4498 -1.4859 -0.5820
   51c3c     HC  714   0.828   2.898   2.117 -0.8015  1.2465  0.2341
   51c3c     HC  715   0.739   2.860   1.976  0.6072  0.4157 -0.6190
   51c3c     H1  716   0.627   3.095   2.382  0.1772  0.0162  0.7340
   51c3c     H1  717   0.609   2.929   2.431  1.6921  0.4046  0.7895
   51c3c     H1  718   0.742   2.983   2.329  0.6698 -0.3667 -0.4696
   51c3c     H1  719   0.408   2.842   2.321 -0.5493  0.0471  0.0660
   51c3c     H1  720   0.370   3.006   2.335  2.0041  0.0264  0.7370
   51c3c     C2  721   0.309   2.933   2.144  0.1064  0.6894 -0.2422
   51c3c     HC  722   0.350   2.863   2.071 -0.5188  1.1775 -1.0619
   51c3c     HC  723   0.304   3.031   2.097  0.5828  0.9924  0.3222
   51c3c     CT  724   0.165   2.883   2.169  0.9955  0.6977 -0.1630
   51c3c     HC  725   0.156   2.781   2.205 -0.2469  2.1230  3.8942
   51c3c     HC  726   0.092   2.881   2.088  0.8969 -2.0506 -0.0378
   51c3c     HC  727   0.119   2.945   2.246  2.0881  0.4890  0.6733
   52c3c     N4  728   2.210   4.730   1.775 -0.0188 -0.1208  0.6351
   52c3c     C1  729   2.242   4.826   1.880  0.1701  0.2843  0.2905
   52c3c     C1  730   2.158   4.817   1.668  0.6240 -0.4380 -0.9437
   52c3c     C2  731   2.300   4.952   1.810 -0.5815  0.3623 -0.6298
   52c3c     C2  732   2.266   4.923   1.666  0.3358 -0.6656  0.0695
   52c3c     C1  733   2.331   4.656   1.731 -0.2568 -0.3082  0.5127
   52c3c     C1  734   2.113   4.618   1.801  0.6125 -0.0743  0.5472
   52c3c     H1  735   2.315   4.783   1.949  0.1711  0.2012  0.2376
   52c3c     H1  736   2.157   4.857   1.940  2.1826  3.5737  1.5853
   52c3c     H1  737   2.156   4.768   1.571  0.8197 -0.7059 -0.8127
   52c3c     H1  738   2.062   4.865   1.687  0.6783 -0.8274  0.3638
   52c3c     HC  739   2.407   4.955   1.831 -0.4677  0.0400 -1.1465
   52c3c     HC  740   2.250   5.043   1.842 -1.5407  1.1255 -4.0910
   52c3c     HC  741   2.356   4.886   1.617 -0.6927 -1.8226 -0.9866
   52c3c     HC  742   2.250   5.014   1.608  0.2417 -0.2175  0.7913
   52c3c     H1  743   2.383   4.614   1.817  0.7514  0.5679  0.3377
   52c3c     H1  744   2.320   4.569   1.667  3.0287 -1.8393  1.9402
   52c3c     H1  745   2.419   4.706   1.690  0.9461 -3.4719 -0.9008
   52c3c     H1  746   2.096   4.556   1.713  0.3289 -0.6611  1.0163
   52c3c     H1  747   2.159   4.557   1.878  1.7921 -0.0934 -0.1547
   52c3c     C2  748   1.977   4.661   1.862 -0.0514 -0.5971 -0.2161
   52c3c     HC  749   1.910   4.693   1.782  2.0902 -0.8896 -2.1595
   52c3c     HC  750   1.988   4.734   1.943 -1.6041 -0.1387 -0.4048
   52c3c     CT  751   1.915   4.545   1.947 -0.2275 -0.8140  0.4659
   52c3c     HC  752   1.840   4.588   2.013 -2.0293 -2.6896 -0.3002
   52c3c     HC  753   1.984   4.485   2.007  1.4182  0.2409 -0.3430
   52c3c     HC  754   1.861   4.476   1.883 -1.5813  0.8558 -0.2144
   53c3c     N4  755   0.919   4.139   1.464 -0.2953  0.2981  0.1600
   53c3c     C1  756   0.896   4.004   1.515  0.2676 -0.0942 -0.2589
   53c3c     C1  757   1.049   4.172   1.525 -0.6667 -0.0913  0.4724
   53c3c     C2  758   1.033   3.930   1.526  0.4315  0.8066  0.1090
   53c3c     C2  759   1.134   4.044   1.543  0.3585  0.2563  0.1179
   53c3c     C1  760   0.932   4.125   1.316  0.1189  0.7773  0.1093
   53c3c     C1  761   0.810   4.241   1.493 -0.0939  0.4458  0.4069
   53c3c     H1  762   0.818   3.944   1.466  1.3083 -1.2718 -0.4960
   53c3c     H1  763   0.858   4.012   1.617 -0.6815  0.9158 -0.6779
   53c3c     H1  764   1.104   4.252   1.475 -1.4347  0.1199 -0.0366
   53c3c     H1  765   1.030   4.215   1.624  1.0047  0.2672  0.6545
   53c3c     HC  766   1.058   3.876   1.435  0.7761  1.2525 -0.0627
   53c3c     HC  767   1.043   3.866   1.614 -0.1863  2.2861  1.2745
   53c3c     HC  768   1.211   4.045   1.466  0.4612  0.8913  0.2281
   53c3c     HC  769   1.188   4.043   1.638  2.5183  0.8298 -1.0722
   53c3c     H1  770   0.838   4.092   1.270 -0.0168  1.5267 -0.1658
   53c3c     H1  771   0.953   4.215   1.258 -0.9269  1.1168  0.2477
   53c3c     H1  772   1.007   4.056   1.279  1.0588  1.4546  0.7447
   53c3c     H1  773   0.825   4.334   1.439  0.8961  0.9706  1.5575
   53c3c     H1  774   0.710   4.209   1.463 -0.1323 -0.3893  1.3897
   53c3c     C2  775   0.780   4.272   1.646  0.6922  0.4126  0.2506
   53c3c     HC  776   0.861   4.331   1.689 -0.1489  0.8261  1.2759
   53c3c     HC  777   0.763   4.179   1.702 -0.6961  1.3272  1.3802
   53c3c     CT  778   0.655   4.354   1.668 -0.1279  0.0642  0.2890
   53c3c     HC  779   0.570   4.286   1.664  0.1959 -0.4650  1.9161
   53c3c     HC  780   0.634   4.437   1.601 -2.2126 -0.3812  0.3497
   53c3c     HC  781   0.655   4.393   1.770  0.4150 -1.0590  0.7321
   54c3c     N4  782   4.110   4.025   1.242  0.0378  0.5808 -0.2493
   54c3c     C1  783   4.051   3.913   1.167 -0.4635  0.8220  0.3396
   54c3c     C1  784   4.039   4.012   1.373  0.7997  1.2137  0.1153
   54c3c     C2  785   4.034   3.801   1.270  0.4771  1.1225 -0.1671
   54c3c     C2  786   4.050   3.868   1.404  0.9493  0.7333 -0.4795
   54c3c     C1  787   4.256   4.007   1.258 -0.0617  0.8033 -0.4225
   54c3c     C1  788   4.079   4.159   1.186  0.3465  0.2647  0.6746
   54c3c     H1  789   4.102   3.882   1.076 -0.1349  0.3591  0.6785
   54c3c     H1  790   3.947   3.937   1.144  0.0727  2.7127 -0.2048
   54c3c     H1  791   4.084   4.080   1.446  0.1252  0.7889  0.9327
   54c3c     H1  792   3.934   4.037   1.363  1.1554  2.7806  0.2158
   54c3c     HC  793   4.110   3.725   1.250  0.1366  0.6672  0.2632
   54c3c     HC  794   3.934   3.760   1.256  0.3910  0.7516  1.4778
   54c3c     HC  795   4.148   3.843   1.445  1.0935  0.3597 -1.0454
   54c3c     HC  796   3.973   3.830   1.471  1.8404  1.2582  0.8654
   54c3c     H1  797   4.307   4.027   1.163 -1.1614  0.3986 -1.1008
   54c3c     H1  798   4.297   4.082   1.326 -0.3061  1.0920 -0.5900
   54c3c     H1  799   4.294   3.915   1.301  1.4017  1.6976  0.2390
   54c3c     H1  800   4.131   4.233   1.247  0.8632  0.8176 -0.4203
   54c3c     H1  801   4.118   4.164   1.084  0.0177  0.9992  0.5837
   54c3c     C2  802   3.930   4.213   1.173  0.2792 -0.5945 -0.3032
   54c3c     HC  803   3.884   4.234   1.270 -0.6846  3.7217 -1.5838
   54c3c     HC  804   3.878   4.146   1.105  1.1603 -1.9274  0.3298
   54c3c     CT  805   3.928   4.352   1.113 -0.4988  0.4069 -0.0333
   54c3c     HC  806   3.974   4.365   1.015 -1.9130  0.6858 -0.6807
   54c3c     HC  807   3.980   4.421   1.178  1.1427  0.3842 -1.2882
   54c3c     HC  808   3.825   4.389   1.109 -0.7384  0.0353  2.1631
   55c3c     N4  809   2.246   1.202   4.336 -0.1913  0.0108  0.4039
   55c3c     C1  810   2.303   1.099   4.428 -0.7569 -0.2000  0.6123
   55c3c     C1  811   2.136   1.130   4.273 -0.0162  0.4257  0.0898
   55c3c     C2  812   2.176   1.045   4.496  0.5989  0.2459 -0.4268
   55c3c     C2  813   2.080   1.036   4.380  0.1533  0.4368 -0.0109
   55c3c     C1  814   2.192   1.318   4.409 -0.7815 -0.1320  0.2721
   55c3c     C1  815   2.351   1.258   4.245  0.4164 -0.1098 -0.6106
   55c3c     H1  816   2.378   1.137   4.498  1.6785  0.0171 -2.0203
   55c3c     H1  817   2.357   1.016   4.382  0.5889  1.2967 -0.5971
   55c3c     H1  818   2.060   1.199   4.235  0.4672  0.0873 -1.5297
   55c3c     H1  819   2.174   1.071   4.189 -1.2052 -0.9642  0.5073
   55c3c     HC  820   2.137   1.108   4.576 -0.3181 -0.8633  0.0188
   55c3c     HC  821   2.186   0.945   4.539  1.3000 -0.2287 -1.6699
   55c3c     HC  822   1.981   1.071   4.408 -0.3989 -0.1932 -1.1225
   55c3c     HC  823   2.071   0.935   4.340  1.5615 -0.0993  0.9759
   55c3c     H1  824   2.272   1.363   4.468 -0.2664 -0.0884 -0.4461
   55c3c     H1  825   2.161   1.392   4.335  0.6184 -1.3303 -1.5543
   55c3c     H1  826   2.103   1.297   4.468 -1.3851  0.0532 -0.5548
   55c3c     H1  827   2.317   1.339   4.180  1.9625  1.1787  0.1541
   55c3c     H1  828   2.429   1.312   4.299 -0.5480 -0.2320  0.9391
   55c3c     C2  829   2.418   1.161   4.146  0.4285  0.2859  0.0028
   55c3c     HC  830   2.357   1.146   4.057  0.0580 -0.3890  0.3670
   55c3c     HC  831   2.437   1.060   4.183 -0.6161  0.3173  0.6472
   55c3c     CT  832   2.548   1.225   4.089  0.7755  0.3334  0.3135
   55c3c     HC  833   2.628   1.212   4.161  0.8231  2.4683  0.6805
   55c3c     HC  834   2.542   1.332   4.067 -1.5363 -0.2346 -1.9496
   55c3c     HC  835   2.587   1.176   4.001 -0.0120 -1.9733  1.2103
   56c3c     N4  836   2.137   5.338   1.252 -0.1887  0.3354  0.7625
   56c3c     C1  837   2.120   5.488   1.262  0.2957  0.4970  1.1092
   56c3c     C1  838   2.059   5.309   1.125  0.3536  0.4736  0.0291
   56c3c     C2  839   2.136   5.540   1.117  0.9674  0.8160 -0.2411
   56c3c     C2  840   2.088   5.426   1.028  0.3861  0.1417  0.3972
   56c3c     C1  841   2.279   5.305   1.239 -1.0036  0.9005  0.4686
   56c3c     C1  842   2.097   5.265   1.375  0.4336  0.1442  0.4580
   56c3c     H1  843   2.181   5.537   1.338  0.5927  1.3529  0.3263
   56c3c     H1  844   2.017   5.504   1.292  0.1098  1.1746  0.1224
   56c3c     H1  845   2.082   5.214   1.078 -1.2159  1.0029 -1.8764
   56c3c     H1  846   1.952   5.303   1.145  0.4708 -1.1051  0.2112
   56c3c     HC  847   2.236   5.573   1.088  1.5360 -1.1299 -0.5984
   56c3c     HC  848   2.067   5.624   1.107 -2.4059 -1.7310  0.8340
   56c3c     HC  849   2.167   5.400   0.958  1.4949  0.9860  1.3053
   56c3c     HC  850   1.994   5.447   0.976 -0.6279  1.0350  2.5142
   56c3c     H1  851   2.343   5.352   1.313 -1.8908  1.6821  0.7479
   56c3c     H1  852   2.301   5.198   1.244 -0.3640  0.9886 -0.3633
   56c3c     H1  853   2.319   5.337   1.143  0.0539 -0.2278  0.5175
   56c3c     H1  854   2.124   5.162   1.353  0.1592  0.4860 -1.5781
   56c3c     H1  855   2.168   5.295   1.452  0.2809 -0.3596  0.8008
   56c3c     C2  856   1.951   5.271   1.421  0.7583 -0.1617 -0.1451
   56c3c     HC  857   1.879   5.248   1.343 -0.3198 -0.6362  0.9863
   56c3c     HC  858   1.932   5.376   1.446  0.1996  0.2960 -2.3957
   56c3c     CT  859   1.925   5.176   1.540 -0.6220  0.0420  0.3205
   56c3c     HC  860   1.964   5.078   1.515 -2.1499  0.1313 -2.6888
   56c3c     HC  861   1.818   5.168   1.561 -1.0159  1.3146 -1.0693
   56c3c     HC  862   1.976   5.206   1.631  0.3730 -0.4978 -0.0526
   57c3c     N4  863   4.661   5.144   5.787 -0.3053  0.3851  0.5742
   57c3c     C1  864   4.783   5.084   5.836 -0.3862 -0.0049 -0.1538
   57c3c     C1  865   4.562   5.106   5.888  0.2509 -0.3147  0.8625
   57c3c     C2  866   4.750   4.953   5.907 -0.1321 -0.6798  0.3684
   57c3c     C2  867   4.599   4.963   5.934 -0.0027 -0.5115 -0.4674
   57c3c     C1  868   4.681   5.286   5.788 -0.2207  0.5097  0.2452
   57c3c     C1  869   4.623   5.104   5.649  0.3570  0.0312  0.1730
   57c3c     H1  870   4.835   5.145   5.911  2.4502 -1.2247 -1.0963
   57c3c     H1  871   4.857   5.067   5.758 -0.7121 -0.5997 -0.3310
   57c3c     H1  872   4.569   5.173   5.973 -1.2722 -0.0847  0.8147
   57c3c     H1  873   4.459   5.117   5.856  0.1746 -0.7339  0.9526
   57c3c     HC  874   4.805   4.943   6.001 -0.3945 -1.3664  0.4469
   57c3c     HC  875   4.770   4.861   5.852  0.1438 -1.0553  1.0795
   57c3c     HC  876   4.577   4.954   6.041  1.7670 -1.2343 -0.1517
   57c3c     HC  877   4.541   4.886   5.884 -0.0740 -0.0160 -1.1511
   57c3c     H1  878   4.764   5.319   5.725 -0.3255  0.1049 -0.0999
   57c3c     H1  879   4.590   5.336   5.754 -1.2483 -0.8664  0.9181
   57c3c     H1  880   4.704   5.320   5.889 -0.4920 -0.3852  0.6120
   57c3c     H1  881   4.532   5.158   5.623 -0.4863 -1.5430 -0.2032
   57c3c     H1  882   4.703   5.139   5.583  1.5162  0.4090  1.7469
   57c3c     C2  883   4.589   4.956   5.623  0.1146 -0.7411 -0.1670
   57c3c     HC  884   4.503   4.920   5.678 -0.1829  0.7395  0.3671
   57c3c     HC  885   4.671   4.890   5.654  1.1602  0.6040 -0.0204
   57c3c     CT  886   4.558   4.926   5.477 -0.0045  0.1495 -0.1979
   57c3c     HC  887   4.643   4.945   5.411  0.8920 -2.2898  0.1826
   57c3c     HC  888   4.465   4.979   5.456 -0.4288 -0.1548  0.9016
   57c3c     HC  889   4.536   4.821   5.459 -0.2264 -0.1631  1.8524
   58c3c     N4  890   1.722   1.015   3.015  0.2361  0.5130 -0.5027
   58c3c     C1  891   1.822   1.108   2.964 -0.1907  0.6142 -0.0539
   58c3c     C1  892   1.702   0.917   2.906 -0.6059 -0.3352 -0.0923
   58c3c     C2  893   1.924   1.022   2.888 -0.7321  0.3569  0.0620
   58c3c     C2  894   1.838   0.908   2.831  0.0991 -0.3226  0.3537
   58c3c     C1  895   1.777   0.952   3.132 -1.0906  0.5758 -0.2852
   58c3c     C1  896   1.593   1.077   3.047  0.2702 -0.4558 -0.0687
   58c3c     H1  897   1.863   1.166   3.047 -0.2267 -1.1550  1.2047
   58c3c     H1  898   1.774   1.175   2.892 -1.3287  0.3887  0.4758
   58c3c     H1  899   1.664   0.819   2.934  1.5015 -1.1435  0.0266
   58c3c     H1  900   1.628   0.961   2.839  0.7425  1.3643 -0.5168
   58c3c     HC  901   2.003   0.979   2.950 -0.7892  0.2417  0.0565
   58c3c     HC  902   1.979   1.076   2.811 -0.5438 -0.4114 -0.3558
   58c3c     HC  903   1.894   0.816   2.849  1.3294  1.0229  3.9413
   58c3c     HC  904   1.830   0.917   2.723  1.3137 -2.0577  0.0962
   58c3c     H1  905   1.773   1.019   3.218 -0.6777  0.3950 -0.1183
   58c3c     H1  906   1.715   0.866   3.158 -2.0509  1.6508  1.0676
   58c3c     H1  907   1.883   0.925   3.123 -0.5076  2.6401  0.1209
   58c3c     H1  908   1.515   1.001   3.051 -0.5962  0.2639 -2.3874
   58c3c     H1  909   1.588   1.111   3.150 -2.6750 -0.4632 -0.1446
   58c3c     C2  910   1.540   1.190   2.954 -0.5326 -0.0656  0.2408
   58c3c     HC  911   1.431   1.180   2.957 -0.6814  1.0147 -1.3937
   58c3c     HC  912   1.567   1.181   2.849 -0.8592 -0.9981  0.2252
   58c3c     CT  913   1.577   1.326   3.012 -0.3510 -0.7782  0.1941
   58c3c     HC  914   1.521   1.407   2.966 -3.3306 -1.0852  3.0640
   58c3c     HC  915   1.683   1.349   3.000 -0.7773  1.8796  1.1956
   58c3c     HC  916   1.550   1.326   3.118  0.9384 -0.2542  0.5271
   59c3c     N4  917   6.913   3.419   6.208  0.1933  0.1200  0.0700
   59c3c     C1  918   6.833   3.315   6.274  0.0107 -0.3705 -0.0504
   59c3c     C1  919   7.053   3.374   6.240 -0.1536 -0.0698 -0.0179
   59c3c     C2  920   6.901   3.185   6.229  0.0015  0.1590 -0.2394
   59c3c     C2  921   7.053   3.222   6.211  0.3692  0.0640 -0.0591
   59c3c     C1  922   6.879   3.419   6.062  0.0495 -0.1449 -0.2948
   59c3c     C1  923   6.885   3.557   6.252 -0.3020 -0.4374 -0.4149
   59c3c     H1  924   6.727   3.320   6.250 -0.1470 -0.4604  0.6156
   59c3c     H1  925   6.842   3.318   6.382  1.7599 -1.3234 -0.1361
   59c3c     H1  926   7.129   3.432   6.187 -0.9391  0.4208 -0.6188
   59c3c     H1  927   7.067   3.384   6.347 -0.3141 -0.8050  0.0728
   59c3c     HC  928   6.857   3.151   6.135 -1.5881 -0.2909  0.6429
   59c3c     HC  929   6.892   3.105   6.303 -0.1663  0.5381  0.1547
   59c3c     HC  930   7.080   3.199   6.108  0.4906  0.1332 -0.0427
   59c3c     HC  931   7.123   3.175   6.281  1.0020  1.8615  0.5563
   59c3c     H1  932   6.776   3.444   6.040  0.3289  0.9680 -0.3541
   59c3c     H1  933   6.946   3.487   6.010  1.7309 -1.5388 -0.0048
   59c3c     H1  934   6.898   3.324   6.011  0.7823  0.5515 -1.3578
   59c3c     H1  935   6.941   3.629   6.193  0.0954 -0.9673 -0.6869
   59c3c     H1  936   6.778   3.574   6.240 -0.2689  0.2411  0.1830
   59c3c     C2  937   6.924   3.597   6.396 -0.0873 -0.0375 -0.3023
   59c3c     HC  938   7.032   3.599   6.408 -0.2673 -0.0849  1.4907
   59c3c     HC  939   6.884   3.522   6.464 -0.1556 -0.2906 -0.6215
   59c3c     CT  940   6.873   3.734   6.436 -0.3483  0.1610 -0.4636
   59c3c     HC  941   6.767   3.729   6.461 -0.4505 -1.2274 -1.1134
   59c3c     HC  942   6.887   3.810   6.359 -0.7525 -0.4640 -1.1645
   59c3c     HC  943   6.933   3.762   6.523 -0.0536  0.3723 -0.7329
   60c3c     N4  944   2.561   2.141   3.908 -0.3179 -0.0111  0.1128
   60c3c     C1  945   2.633   2.139   4.034  0.5300 -0.5946 -0.5561
   60c3c     C1  946   2.669   2.133   3.811 -0.8513  0.2522 -0.5355
   60c3c     C2  947   2.747   2.039   4.021  0.0871 -0.1051 -0.5824
   60c3c     C2  948   2.760   2.029   3.868 -0.7337  0.6264  0.0308
   60c3c     C1  949   2.469   2.023   3.907 -0.5402  0.6467 -0.2743
   60c3c     C1  950   2.471   2.255   3.880 -0.2080  0.3560  0.1295
   60c3c     H1  951   2.568   2.116   4.119  0.6728  2.3834  0.4105
   60c3c     H1  952   2.677   2.237   4.054  0.2212 -0.5427 -0.1270
   60c3c     H1  953   2.627   2.098   3.717 -0.7756  0.8421 -0.7904
   60c3c     H1  954   2.719   2.229   3.798  0.5366 -0.4671 -0.6101
   60c3c     HC  955   2.736   1.944   4.073  0.2024  0.7873  1.1060
   60c3c     HC  956   2.834   2.084   4.070 -0.2870  0.7850 -0.7384
   60c3c     HC  957   2.723   1.932   3.833  0.9417  0.0313 -0.1035
   60c3c     HC  958   2.863   2.036   3.835 -0.9160 -0.0915 -0.7336
   60c3c     H1  959   2.401   2.027   3.992  0.8951 -0.8737  0.9618
   60c3c     H1  960   2.410   2.012   3.816 -0.3762  0.5871 -0.3740
   60c3c     H1  961   2.516   1.925   3.912 -3.5758 -0.8777 -0.2856
   60c3c     H1  962   2.433   2.255   3.778 -0.6288 -0.2537  0.2777
   60c3c     H1  963   2.389   2.246   3.953  0.4795 -1.1941  0.7410
   60c3c     C2  964   2.524   2.399   3.903  0.0593  0.0422 -0.8100
   60c3c     HC  965   2.600   2.426   3.830 -0.5577 -0.4384 -1.6420
   60c3c     HC  966   2.573   2.412   4.000 -0.7402  0.1867 -0.4200
   60c3c     CT  967   2.411   2.503   3.885 -1.1519  0.4754 -0.4697
   60c3c     HC  968   2.447   2.600   3.850  0.0281  0.2770  0.1624
   60c3c     HC  969   2.353   2.508   3.977 -3.7124 -4.0062 -1.7098
   60c3c     HC  970   2.338   2.470   3.811 -0.2499  2.2956 -2.2548
   61c3c     N4  971   4.750   6.962   5.120 -0.2710  0.0280 -0.5128
   61c3c     C1  972   4.773   6.935   4.976 -0.9385 -0.5870 -0.1386
   61c3c     C1  973   4.808   7.097   5.141  0.3906 -0.4221 -0.1726
   61c3c     C2  974   4.747   7.072   4.912 -0.2679  0.1134  0.2231
   61c3c     C2  975   4.766   7.176   5.016  0.4809  0.2824  0.1101
   61c3c     C1  976   4.606   6.965   5.150 -0.6458  0.0667  0.6207
   61c3c     C1  977   4.805   6.863   5.209  0.2690  0.4049  0.0697
   61c3c     H1  978   4.702   6.858   4.943 -1.6096  0.5328 -1.3302
   61c3c     H1  979   4.875   6.911   4.948 -0.9455 -0.2105 -0.4846
   61c3c     H1  980   4.765   7.138   5.232 -0.3113 -0.5313 -0.4503
   61c3c     H1  981   4.916   7.099   5.151  0.2233 -1.1530  1.8954
   61c3c     HC  982   4.648   7.076   4.866 -0.5158  1.2788  0.8357
   61c3c     HC  983   4.826   7.087   4.837  0.4375  0.1077  0.9587
   61c3c     HC  984   4.679   7.241   5.024  0.2680  0.1243 -0.8286
   61c3c     HC  985   4.848   7.241   4.983 -1.0018  1.9284 -0.3755
   61c3c     H1  986   4.557   6.868   5.160 -1.9709  0.7584  1.0511
   61c3c     H1  987   4.586   7.020   5.242  1.3320  0.7760  0.6420
   61c3c     H1  988   4.541   7.013   5.077 -2.4510 -0.6584  1.7221
   61c3c     H1  989   4.796   6.903   5.310 -2.0595  0.0021  0.0509
   61c3c     H1  990   4.745   6.772   5.201  0.1259  0.5611 -0.6356
   61c3c     C2  991   4.949   6.820   5.177 -1.0394 -0.6967  0.3699
   61c3c     HC  992   5.011   6.910   5.172 -2.3789  0.2539  0.5787
   61c3c     HC  993   4.947   6.774   5.078 -2.6284 -1.6311  0.8316
   61c3c     CT  994   4.998   6.718   5.273  0.0753  0.0611 -0.2638
   61c3c     HC  995   5.105   6.730   5.288 -0.0772  0.3862  0.5962
   61c3c     HC  996   4.988   6.612   5.249 -0.4537  0.1880 -0.6212
   61c3c     HC  997   4.957   6.735   5.373 -0.4165 -0.4107 -0.3803
   62c3c     N4  998   5.300   1.283   1.704  0.7118 -0.2494  0.3252
   62c3c     C1  999   5.291   1.340   1.836  0.3734  0.1253 -0.1322
   62c3c     C1 1000   5.318   1.140   1.733  0.6811  0.5195  0.1930
   62c3c     C2 1001   5.191   1.253   1.909  0.0179  0.1847 -0.0942
   62c3c     C2 1002   5.218   1.112   1.847 -0.0238  0.2494 -0.2457
   62c3c     C1 1003   5.180   1.306   1.621  1.0512 -0.2590 -0.0367
   62c3c     C1 1004   5.406   1.336   1.620 -0.2636 -0.0122 -0.1262
   62c3c     H1 1005   5.249   1.440   1.821  0.6130  0.5129  1.7004
   62c3c     H1 1006   5.383   1.340   1.894  0.2440 -2.3480  0.1069
   62c3c     H1 1007   5.295   1.073   1.651 -1.7024 -0.6601  1.7816
   62c3c     H1 1008   5.415   1.108   1.772  0.8634 -0.1394 -0.7895
   62c3c     HC 1009   5.093   1.295   1.885 -0.4009 -0.7183  0.0464
   62c3c     HC 1010   5.212   1.257   2.016  0.0636  1.1184 -0.1303
   62c3c     HC 1011   5.132   1.061   1.804  0.1685 -0.4344  0.1752
   62c3c     HC 1012   5.263   1.048   1.924  0.6562  2.1495  0.9659
   62c3c     H1 1013   5.171   1.413   1.606  0.5689 -0.3798 -0.6329
   62c3c     H1 1014   5.181   1.258   1.523  2.2855 -2.3086  0.9431
   62c3c     H1 1015   5.086   1.279   1.670  1.4617 -0.9609  0.3696
   62c3c     H1 1016   5.409   1.286   1.523 -0.3243 -0.0690 -0.0985
   62c3c     H1 1017   5.382   1.439   1.593  0.8908  0.3023 -0.0077
   62c3c     C2 1018   5.550   1.343   1.667 -0.2852  0.3408  0.1042
   62c3c     HC 1019   5.588   1.242   1.683  0.8374  0.8848  0.9750
   62c3c     HC 1020   5.547   1.392   1.765 -2.3006  0.4504  0.0162
   62c3c     CT 1021   5.639   1.426   1.576 -0.2174  0.0583  0.8002
   62c3c     HC 1022   5.575   1.504   1.534 -1.2698 -1.2664 -0.1091
   62c3c     HC 1023   5.693   1.370   1.500  0.7215 -0.9713  2.2130
   62c3c     HC 1024   5.704   1.486   1.640  0.6034  0.8268 -0.7439
   63c3c     N4 1025   5.878   3.174   3.781 -0.0311 -0.4829  0.2836
   63c3c     C1 1026   5.967   3.290   3.755 -0.9073  0.1523 -0.0417
   63c3c     C1 1027   5.891   3.147   3.922 -0.2208 -0.6023 -0.0778
   63c3c     C2 1028   5.967   3.376   3.885  0.0579 -0.3825 -0.1862
   63c3c     C2 1029   5.901   3.284   3.991 -0.3258  0.2138 -0.3563
   63c3c     C1 1030   5.740   3.211   3.748 -0.0614  0.0932  0.2013
   63c3c     C1 1031   5.912   3.058   3.699 -0.4900  0.3661  0.6265
   63c3c     H1 1032   5.936   3.354   3.672 -2.5219 -0.8601 -0.2378
   63c3c     H1 1033   6.068   3.255   3.730 -0.3734  0.4401  1.6735
   63c3c     H1 1034   5.812   3.084   3.964 -0.7673 -0.6288 -1.1388
   63c3c     H1 1035   5.983   3.095   3.951  0.8466  0.3008 -1.7323
   63c3c     HC 1036   5.900   3.461   3.872  1.4396  0.9453  1.1054
   63c3c     HC 1037   6.063   3.412   3.922 -0.3163 -0.1685  0.6018
   63c3c     HC 1038   5.802   3.323   4.015 -0.8988 -0.2234 -1.9541
   63c3c     HC 1039   5.958   3.286   4.083 -0.6677 -0.3279 -0.1297
   63c3c     H1 1040   5.727   3.232   3.642  1.0135  1.0330  0.2517
   63c3c     H1 1041   5.670   3.131   3.770  1.2804 -1.5977 -1.4678
   63c3c     H1 1042   5.707   3.303   3.795  0.5507 -0.3779  1.5645
   63c3c     H1 1043   5.832   2.985   3.707 -1.3378  0.7719 -3.2802
   63c3c     H1 1044   5.908   3.089   3.595 -1.4277  0.4405  0.6880
   63c3c     C2 1045   6.051   2.988   3.719 -0.2820 -0.4315  0.6305
   63c3c     HC 1046   6.071   2.949   3.819  0.2718  0.1526  0.7432
   63c3c     HC 1047   6.124   3.059   3.680 -0.8464 -1.1610 -1.8793
   63c3c     CT 1048   6.059   2.868   3.623  0.2356  0.0129  0.4048
   63c3c     HC 1049   6.051   2.903   3.520  0.3632  0.7117  0.6328
   63c3c     HC 1050   5.987   2.789   3.645 -0.6231  0.7101  0.1289
   63c3c     HC 1051   6.157   2.820   3.627  1.4499  2.3863  0.1424
   64c3c     N4 1052   0.049   3.279   2.967  0.4535 -0.0414 -0.6010
   64c3c     C1 1053   0.184   3.244   3.016  0.0786  0.0671 -0.3386
   64c3c     C1 1054   0.072   3.312   2.823 -0.1401 -0.9274 -0.0716
   64c3c     C2 1055   0.296   3.307   2.927 -0.3315 -0.5664  0.5488
   64c3c     C2 1056   0.210   3.380   2.814  0.4720 -0.0825  0.2569
   64c3c     C1 1057  -0.041   3.161   2.972 -0.0462  0.3452 -0.3121
   64c3c     C1 1058  -0.011   3.386   3.052  0.3721 -0.3068  0.0940
   64c3c     H1 1059   0.194   3.137   3.033 -0.9428 -0.0367 -0.3826
   64c3c     H1 1060   0.211   3.279   3.116  0.0834  0.5710 -0.5148
   64c3c     H1 1061   0.073   3.225   2.757  2.5304 -0.8045 -0.2620
   64c3c     H1 1062  -0.006   3.377   2.783  0.5656 -0.0583 -0.0621
   64c3c     HC 1063   0.358   3.228   2.884  1.1505  0.4927  0.7049
   64c3c     HC 1064   0.359   3.375   2.983  0.1820 -1.3175  0.8935
   64c3c     HC 1065   0.254   3.374   2.714  0.0249 -0.4848  0.0804
   64c3c     HC 1066   0.198   3.487   2.826  2.3606  0.0888  0.8450
   64c3c     H1 1067  -0.050   3.132   3.077  0.7547  1.9642  0.2269
   64c3c     H1 1068  -0.137   3.188   2.929 -0.4673  0.7149  0.8442
   64c3c     H1 1069   0.001   3.074   2.922 -0.7169 -1.6734  2.4706
   64c3c     H1 1070  -0.117   3.396   3.026  0.5291  1.8478  0.2256
   64c3c     H1 1071  -0.004   3.346   3.153  0.8894 -1.6188 -0.4489
   64c3c     C2 1072   0.055   3.525   3.057 -0.3056 -0.0970 -0.2213
   64c3c     HC 1073   0.033   3.577   2.964 -0.2622 -0.3846 -0.3897
   64c3c     HC 1074   0.161   3.522   3.082 -0.4746  0.8015  0.6771
   64c3c     CT 1075  -0.007   3.619   3.169 -0.0636  0.3548 -0.1742
   64c3c     HC 1076   0.013   3.570   3.265  0.5425 -0.4474 -0.7045
   64c3c     HC 1077  -0.114   3.636   3.168  0.0004  0.7415 -1.0533
   64c3c     HC 1078   0.042   3.717   3.172 -0.8380  0.7497 -0.3003
   65c3c     N4 1079   7.194   3.387   2.259  0.0115  0.5398 -0.4194
   65c3c     C1 1080   7.326   3.452   2.279 -0.0865 -0.2497  0.2084
   65c3c     C1 1081   7.167   3.397   2.116  0.0308  0.1012 -0.1050
   65c3c     C2 1082   7.410   3.395   2.163  0.2632  0.7700 -0.3455
   65c3c     C2 1083   7.305   3.380   2.054  0.8602  0.3803 -0.5101
   65c3c     C1 1084   7.194   3.241   2.291  0.2205 -0.0304 -0.0938
   65c3c     C1 1085   7.089   3.447   2.347  0.0360 -0.6929 -0.1530
   65c3c     H1 1086   7.361   3.427   2.379  0.3038  0.2871  0.2090
   65c3c     H1 1087   7.321   3.560   2.267 -0.4295 -0.5328 -2.5112
   65c3c     H1 1088   7.091   3.334   2.069 -0.4952 -0.0068  0.8755
   65c3c     H1 1089   7.138   3.499   2.093  2.4284  1.0260  0.7962
   65c3c     HC 1090   7.459   3.298   2.179  1.9624  1.7975  0.8016
   65c3c     HC 1091   7.488   3.462   2.128  0.0744  0.6698 -0.9580
   65c3c     HC 1092   7.318   3.288   1.997  1.6295  1.1968 -1.6746
   65c3c     HC 1093   7.327   3.464   1.988  0.2752 -0.1774 -1.4300
   65c3c     H1 1094   7.221   3.217   2.393 -0.0745 -0.2923 -0.0771
   65c3c     H1 1095   7.096   3.193   2.278  1.0811 -2.6905  2.6190
   65c3c     H1 1096   7.269   3.185   2.235  0.5067  0.3353 -0.0798
   65c3c     H1 1097   7.004   3.381   2.328 -0.5015  0.2580 -1.0942
   65c3c     H1 1098   7.120   3.426   2.449 -0.5328 -1.9976 -0.2395
   65c3c     C2 1099   7.042   3.589   2.320 -0.0469 -0.6819 -0.3160
   65c3c     HC 1100   6.998   3.604   2.221 -0.3044 -1.3883 -0.3106
   65c3c     HC 1101   7.116   3.669   2.322 -1.6661  0.8997 -1.3151
   65c3c     CT 1102   6.920   3.619   2.408  0.1000 -0.5559  0.7038
   65c3c     HC 1103   6.946   3.631   2.513  0.8796 -0.4383  0.5048
   65c3c     HC 1104   6.841   3.545   2.399  0.0653 -0.6455  1.7118
   65c3c     HC 1105   6.873   3.715   2.385  0.3093 -0.6704 -0.2179
   66c3c     N4 1106   2.844   6.005   1.861 -0.4189  0.2429 -0.0622
   66c3c     C1 1107   2.877   5.905   1.757 -0.1699 -0.7517  0.7129
   66c3c     C1 1108   2.726   6.076   1.808 -0.0504 -0.8575 -0.6406
   66c3c     C2 1109   2.739   5.862   1.699  0.0359  0.3542  0.1988
   66c3c     C2 1110   2.637   5.969   1.739  0.2312 -1.0693 -0.2865
   66c3c     C1 1111   2.802   5.934   1.981  0.3190 -0.3430  0.1181
   66c3c     C1 1112   2.955   6.091   1.912 -0.1399  0.3829  0.3851
   66c3c     H1 1113   2.926   5.815   1.794 -0.6284 -2.5011 -2.7509
   66c3c     H1 1114   2.945   5.949   1.684  1.4664 -0.7455  2.1994
   66c3c     H1 1115   2.675   6.136   1.883  1.1367  2.3733 -2.3076
   66c3c     H1 1116   2.755   6.148   1.731 -1.5093 -0.6638 -1.0222
   66c3c     HC 1117   2.704   5.772   1.750  1.5429 -0.1454  0.3894
   66c3c     HC 1118   2.739   5.832   1.595 -2.7760 -0.9345  0.5360
   66c3c     HC 1119   2.559   5.931   1.806 -0.5190  1.7000  0.4548
   66c3c     HC 1120   2.584   6.003   1.650  0.8207 -0.8189 -0.5429
   66c3c     H1 1121   2.882   5.871   2.021  1.0532 -0.6075 -1.7220
   66c3c     H1 1122   2.761   6.006   2.051 -2.0677 -0.4946 -1.0740
   66c3c     H1 1123   2.719   5.864   1.972 -0.3023  0.5012 -0.8296
   66c3c     H1 1124   2.902   6.152   1.985 -1.3118 -0.1350 -0.0204
   66c3c     H1 1125   3.032   6.034   1.964  0.3375  0.9319  0.2879
   66c3c     C2 1126   3.023   6.181   1.805  0.7972 -1.0572  0.4219
   66c3c     HC 1127   2.947   6.239   1.754  0.0454 -2.4888 -0.1166
   66c3c     HC 1128   3.073   6.128   1.724 -0.1984  0.2814 -1.0770
   66c3c     CT 1129   3.120   6.280   1.872  0.1429 -0.5847 -0.0865
   66c3c     HC 1130   3.083   6.370   1.921  2.3464  0.1774  0.2775
   66c3c     HC 1131   3.186   6.328   1.799  1.5891 -1.0574  0.8702
   66c3c     HC 1132   3.188   6.229   1.941  0.7019 -0.0917 -0.2626
   67c3c     N4 1133   1.480   2.725   5.232 -0.0666  0.0821  0.0232
   67c3c     C1 1134   1.412   2.835   5.300  0.3056  0.3789 -0.3454
   67c3c     C1 1135   1.555   2.794   5.121 -0.1432  0.8025 -0.1117
   67c3c     C2 1136   1.497   2.962   5.291  0.3391  0.3995 -0.1640
   67c3c     C2 1137   1.597   2.929   5.181  0.4376  0.7086  0.3771
   67c3c     C1 1138   1.564   2.659   5.335  0.3698 -0.2651 -0.5694
   67c3c     C1 1139   1.384   2.616   5.188  0.0781  0.2254  0.2639
   67c3c     H1 1140   1.390   2.815   5.405  0.9658  2.1202  0.1485
   67c3c     H1 1141   1.323   2.865   5.246 -0.8104  1.7272  2.1739
   67c3c     H1 1142   1.641   2.737   5.085  0.1398  1.2947 -0.2345
   67c3c     H1 1143   1.492   2.805   5.033  0.5864 -0.4450 -0.8034
   67c3c     HC 1144   1.552   2.984   5.382  1.0858  1.2137 -0.8125
   67c3c     HC 1145   1.435   3.048   5.267 -0.1541 -0.0377 -0.4676
   67c3c     HC 1146   1.702   2.929   5.210  0.7691  2.2375 -0.7620
   67c3c     HC 1147   1.589   3.004   5.102  1.4104  0.1701 -0.2374
   67c3c     H1 1148   1.509   2.610   5.415  0.6490  0.7828  0.2742
   67c3c     H1 1149   1.629   2.583   5.291 -0.0925 -0.3300 -1.1432
   67c3c     H1 1150   1.630   2.725   5.391 -1.0593 -0.7929  1.7895
   67c3c     H1 1151   1.442   2.528   5.160 -0.3948 -0.3870  1.1844
   67c3c     H1 1152   1.327   2.590   5.277  0.5122  1.5791  0.9436
   67c3c     C2 1153   1.279   2.638   5.074  0.2449 -0.0263 -0.5762
   67c3c     HC 1154   1.327   2.648   4.977  0.4116 -0.5616 -0.5518
   67c3c     HC 1155   1.220   2.724   5.104  0.7010 -0.3477  1.3040
   67c3c     CT 1156   1.187   2.517   5.075  0.0666  0.3049 -0.5314
   67c3c     HC 1157   1.130   2.523   4.982 -1.0692  0.7025  0.1720
   67c3c     HC 1158   1.123   2.521   5.163  3.2413  1.6172  1.8062
   67c3c     HC 1159   1.246   2.426   5.078 -0.1572  0.0722 -2.3584
   68c3c     N4 1160   0.670   0.917   4.463  0.5961  0.2897  0.4067
   68c3c     C1 1161   0.664   0.949   4.607 -0.2674 -0.0361  1.2014
   68c3c     C1 1162   0.798   0.856   4.443 -0.0987 -0.2256  0.7708
   68c3c     C2 1163   0.755   0.840   4.670 -0.2439  0.7202  0.1671
   68c3c     C2 1164   0.812   0.760   4.560 -0.1330  0.4757  0.5076
   68c3c     C1 1165   0.560   0.818   4.440  0.0087  0.2526 -0.6235
   68c3c     C1 1166   0.641   1.024   4.370 -0.0301  0.8071 -0.3388
   68c3c     H1 1167   0.561   0.946   4.643 -1.0014 -0.1218 -0.8692
   68c3c     H1 1168   0.697   1.052   4.620 -0.8861  0.2828  0.2551
   68c3c     H1 1169   0.807   0.801   4.349 -0.0922  1.0421  0.0042
   68c3c     H1 1170   0.881   0.927   4.443  0.1854 -0.5419 -0.6441
   68c3c     HC 1171   0.697   0.764   4.721 -0.3882  0.9480  0.3446
   68c3c     HC 1172   0.826   0.893   4.733 -0.9931 -0.4075  2.0020
   68c3c     HC 1173   0.749   0.672   4.544  0.8783 -0.0496 -0.6983
   68c3c     HC 1174   0.912   0.724   4.583  0.2498  1.2040  0.0059
   68c3c     H1 1175   0.462   0.865   4.448 -0.2581 -0.3019 -0.5939
   68c3c     H1 1176   0.569   0.771   4.342  0.7072  0.2341 -0.5555
   68c3c     H1 1177   0.557   0.739   4.515 -0.4636  1.5548  0.7409
   68c3c     H1 1178   0.632   0.985   4.268  0.1671 -0.7364  0.2117
   68c3c     H1 1179   0.544   1.069   4.387 -0.6656 -0.1140 -1.4192
   68c3c     C2 1180   0.746   1.139   4.360 -0.0767 -0.0232 -0.2384
   68c3c     HC 1181   0.844   1.108   4.323  0.6583  1.6437  0.2705
   68c3c     HC 1182   0.769   1.179   4.459  1.5777  0.4237 -0.7905
   68c3c     CT 1183   0.700   1.257   4.276  0.0847  0.5715  0.6493
   68c3c     HC 1184   0.601   1.291   4.305 -0.6186  0.7320 -1.8674
   68c3c     HC 1185   0.685   1.223   4.174  0.0844 -1.8986  1.4190
   68c3c     HC 1186   0.769   1.341   4.281  0.5527  0.1819  0.7536
   69c3c     N4 1187   2.450   4.311   0.924 -0.0440 -0.1226  0.4053
   69c3c     C1 1188   2.502   4.403   1.024 -0.7370 -0.0194  0.4809
   69c3c     C1 1189   2.564   4.286   0.833 -0.1472 -0.7054  0.0389
   69c3c     C2 1190   2.638   4.339   1.059 -0.2386 -0.1152  0.0325
   69c3c     C2 1191   2.684   4.261   0.929 -0.1590 -0.7030 -0.0374
   69c3c     C1 1192   2.401   4.187   0.995 -0.7759  0.0013  0.2837
   69c3c     C1 1193   2.334   4.365   0.849  0.1040  0.5066  0.8233
   69c3c     H1 1194   2.432   4.426   1.104 -1.5966  0.0917 -0.2931
   69c3c     H1 1195   2.523   4.498   0.976 -0.3085 -0.4527 -0.1980
   69c3c     H1 1196   2.547   4.208   0.759  0.3909 -0.1665 -0.6567
   69c3c     H1 1197   2.601   4.377   0.786 -1.1072 -0.4218 -0.1713
   69c3c     HC 1198   2.647   4.277   1.148 -0.3575 -0.5895 -0.2856
   69c3c     HC 1199   2.705   4.422   1.082 -0.7246  0.6522 -1.2778
   69c3c     HC 1200   2.694   4.154   0.943  1.3845 -0.3374  1.7120
   69c3c     HC 1201   2.777   4.300   0.887 -1.3858  1.1771 -1.1356
   69c3c     H1 1202   2.314   4.209   1.057 -0.5701  1.0986  0.1908
   69c3c     H1 1203   2.363   4.112   0.925 -0.5882  0.9590 -0.8733
   69c3c     H1 1204   2.476   4.133   1.052 -0.3885 -0.1719 -0.3876
   69c3c     H1 1205   2.306   4.284   0.783 -0.2605  0.0572  1.5254
   69c3c     H1 1206   2.249   4.381   0.916 -0.4252 -2.1544  0.8356
   69c3c     C2 1207   2.359   4.492   0.768 -0.3748  0.4240 -0.7305
   69c3c     HC 1208   2.424   4.464   0.685 -0.0845 -1.8034  0.2105
   69c3c     HC 1209   2.405   4.572   0.826  0.0477  0.7700 -1.5349
   69c3c     CT 1210   2.242   4.563   0.704 -0.7060  0.3248 -0.5035
   69c3c     HC 1211   2.160   4.577   0.774 -1.6839  2.5281 -2.0129
   69c3c     HC 1212   2.200   4.513   0.617 -0.3293  1.3350 -1.2815
   69c3c     HC 1213   2.266   4.666   0.678  0.8854 -0.2238 -1.3360
   70c3c     N4 1214   2.325   5.359   4.380  0.1446  0.2169  0.1136
   70c3c     C1 1215   2.234   5.243   4.377  0.3896  0.3816 -0.3208
   70c3c     C1 1216   2.328   5.414   4.241 -0.7090  0.0555 -0.3695
   70c3c     C2 1217   2.137   5.269   4.263  0.5542 -0.1380 -0.6951
   70c3c     C2 1218   2.188   5.390   4.185 -0.1386 -0.1541 -0.3868
   70c3c     C1 1219   2.268   5.457   4.466 -0.6085 -0.3629 -0.5673
   70c3c     C1 1220   2.456   5.316   4.433  0.8583 -0.5178  0.0026
   70c3c     H1 1221   2.181   5.215   4.468  0.4869 -1.3171 -0.7577
   70c3c     H1 1222   2.285   5.155   4.338 -1.3584  0.0107 -1.8306
   70c3c     H1 1223   2.353   5.520   4.234 -2.0554  0.4420  0.4450
   70c3c     H1 1224   2.396   5.361   4.174  0.6912  0.1711  0.9235
   70c3c     HC 1225   2.037   5.291   4.302  0.6581  0.2297 -0.6360
   70c3c     HC 1226   2.129   5.181   4.200 -0.7783  0.3429 -1.2380
   70c3c     HC 1227   2.140   5.485   4.210  1.0986  0.6556 -1.0572
   70c3c     HC 1228   2.182   5.377   4.077  0.8785  1.9400 -0.7228
   70c3c     H1 1229   2.263   5.423   4.570 -1.8499  0.4376 -0.3466
   70c3c     H1 1230   2.323   5.551   4.464 -2.5914  0.8864  0.8562
   70c3c     H1 1231   2.167   5.481   4.433 -0.5086  0.7406 -0.1031
   70c3c     H1 1232   2.513   5.408   4.449  0.6918 -0.4275  0.0794
   70c3c     H1 1233   2.439   5.262   4.526 -0.6615 -0.7425 -0.4047
   70c3c     C2 1234   2.548   5.225   4.342 -0.1853 -0.2896 -0.3792
   70c3c     HC 1235   2.589   5.289   4.264 -0.6128  1.9939  1.2179
   70c3c     HC 1236   2.490   5.144   4.297  0.2412 -0.0478 -1.3788
   70c3c     CT 1237   2.662   5.162   4.423 -0.0282 -0.0175 -0.2946
   70c3c     HC 1238   2.735   5.234   4.460 -1.0961  0.3777  1.0925
   70c3c     HC 1239   2.721   5.099   4.356  1.2442  0.0859  0.7145
   70c3c     HC 1240   2.630   5.097   4.504 -0.4291  1.0869  0.4361
   71c3c     N4 1241   4.480   2.095   3.984  0.2815 -0.4029  0.4311
   71c3c     C1 1242   4.621   2.138   4.013 -0.1136  0.2912  0.0892
   71c3c     C1 1243   4.484   1.954   4.029 -0.0310  0.2959 -0.4622
   71c3c     C2 1244   4.657   2.072   4.146  0.0275  0.5832  0.9167
   71c3c     C2 1245   4.555   1.954   4.160 -0.4502  0.3444 -1.2326
   71c3c     C1 1246   4.394   2.189   4.057  0.0090 -0.6821 -0.5437
   71c3c     C1 1247   4.435   2.107   3.844  0.3962  0.8198 -0.3816
   71c3c     H1 1248   4.642   2.245   4.005  0.8907 -0.0690 -2.8702
   71c3c     H1 1249   4.689   2.091   3.943  0.5347  1.3101  0.0184
   71c3c     H1 1250   4.383   1.914   4.045 -0.4050  1.4611  0.1744
   71c3c     H1 1251   4.539   1.886   3.965  0.1034 -0.8770  0.8592
   71c3c     HC 1252   4.638   2.145   4.225 -1.7993  0.8114  0.2840
   71c3c     HC 1253   4.760   2.040   4.162  0.8260  2.2823 -0.5990
   71c3c     HC 1254   4.487   1.974   4.243 -0.4090 -0.3655 -1.0239
   71c3c     HC 1255   4.607   1.858   4.171 -1.6564 -0.4115 -1.9899
   71c3c     H1 1256   4.396   2.290   4.017  0.2840 -0.7768 -0.7748
   71c3c     H1 1257   4.291   2.155   4.066  0.6899 -2.1958  2.0042
   71c3c     H1 1258   4.432   2.193   4.159  0.4299 -1.0917 -0.6807
   71c3c     H1 1259   4.337   2.059   3.844 -0.2084  1.9843  1.9291
   71c3c     H1 1260   4.413   2.211   3.817  0.2531  0.7672 -0.4652
   71c3c     C2 1261   4.528   2.048   3.743 -0.2210  0.5257 -0.1262
   71c3c     HC 1262   4.557   1.945   3.765 -0.9597  0.2842 -0.2602
   71c3c     HC 1263   4.616   2.111   3.740  0.9538 -1.1321 -2.4660
   71c3c     CT 1264   4.470   2.048   3.600 -0.8002 -0.6597 -0.6937
   71c3c     HC 1265   4.480   2.144   3.551 -0.9887 -0.4736 -0.3700
   71c3c     HC 1266   4.363   2.030   3.609 -0.4088 -2.1160  1.6155
   71c3c     HC 1267   4.521   1.973   3.539  1.7821 -0.2495  0.8505
   72c3c     N4 1268   5.665   6.105   5.334  0.3562  0.2438 -0.2431
   72c3c     C1 1269   5.657   6.253   5.322 -0.0113 -0.1894 -0.1020
   72c3c     C1 1270   5.760   6.083   5.447  0.0317  0.4410 -0.0667
   72c3c     C2 1271   5.656   6.304   5.465 -0.4216 -0.1740  0.0190
   72c3c     C2 1272   5.737   6.198   5.542  0.1904  0.6053  0.1147
   72c3c     C1 1273   5.532   6.049   5.376 -0.1998 -0.5094  0.0480
   72c3c     C1 1274   5.713   6.032   5.214  0.6181 -0.1815 -0.4544
   72c3c     H1 1275   5.572   6.286   5.262 -0.9448 -3.0539 -0.4301
   72c3c     H1 1276   5.749   6.280   5.270  0.0252  0.2268  0.1814
   72c3c     H1 1277   5.751   5.988   5.500  2.7143  0.5914  0.7295
   72c3c     H1 1278   5.866   6.095   5.422 -0.1023 -1.0767 -1.4195
   72c3c     HC 1279   5.557   6.311   5.511 -0.1334 -1.3050  0.8593
   72c3c     HC 1280   5.690   6.407   5.467 -0.1298 -0.2765  0.6188
   72c3c     HC 1281   5.686   6.172   5.635  1.6972 -0.8733  0.5325
   72c3c     HC 1282   5.831   6.243   5.573  0.3562  1.1481 -1.1595
   72c3c     H1 1283   5.466   6.059   5.289  0.8268 -1.2166 -0.8222
   72c3c     H1 1284   5.535   5.941   5.394  1.8666 -0.0746  2.5653
   72c3c     H1 1285   5.497   6.099   5.465  1.9602  0.6601  0.2691
   72c3c     H1 1286   5.680   5.928   5.224 -0.2125  0.0740 -0.4704
   72c3c     H1 1287   5.656   6.071   5.130 -1.7072 -1.3476  0.5130
   72c3c     C2 1288   5.867   6.027   5.180  0.4994 -1.0401 -0.2930
   72c3c     HC 1289   5.920   5.958   5.246  0.7925 -0.2604  0.2953
   72c3c     HC 1290   5.924   6.119   5.187  0.0056 -0.7418 -0.1555
   72c3c     CT 1291   5.888   5.965   5.035  0.0163 -0.1224 -0.2236
   72c3c     HC 1292   5.813   5.995   4.962  1.0235 -0.3843 -1.3985
   72c3c     HC 1293   5.879   5.856   5.042  0.1703 -0.1550 -0.5056
   72c3c     HC 1294   5.984   5.981   4.987  0.2987  1.2298  0.7560
   73c3c     N4 1295   5.367   0.260   1.329  0.4175  0.4232  0.4513
   73c3c     C1 1296   5.450   0.146   1.282  0.6176  0.5281  0.2905
   73c3c     C1 1297   5.455   0.377   1.356 -0.3540  0.9877  0.1892
   73c3c     C2 1298   5.551   0.218   1.192  1.3369  0.3085  0.4138
   73c3c     C2 1299   5.568   0.358   1.257  0.0691  0.5966  0.1209
   73c3c     C1 1300   5.267   0.295   1.225  0.2514  0.2963 -0.1712
   73c3c     C1 1301   5.290   0.213   1.448  0.7472 -0.5891  0.5626
   73c3c     H1 1302   5.395   0.071   1.224  2.1651  1.0854 -1.9301
   73c3c     H1 1303   5.501   0.090   1.361  0.6565  1.2120  0.7483
   73c3c     H1 1304   5.413   0.477   1.342 -0.8213  0.7941  0.1883
   73c3c     H1 1305   5.500   0.380   1.455 -0.9872 -1.9062  0.6100
   73c3c     HC 1306   5.510   0.225   1.091  0.7150  0.8827  0.7052
   73c3c     HC 1307   5.643   0.160   1.186  1.8064  1.1346 -0.5048
   73c3c     HC 1308   5.570   0.435   1.181  0.1375  1.0609  0.5893
   73c3c     HC 1309   5.664   0.368   1.308 -0.5166 -0.3891  1.4581
   73c3c     H1 1310   5.194   0.218   1.201  1.2142 -0.6174 -0.1834
   73c3c     H1 1311   5.221   0.390   1.251 -1.4099 -0.6664  0.4321
   73c3c     H1 1312   5.317   0.315   1.129  0.6636  0.9562  0.1715
   73c3c     H1 1313   5.209   0.282   1.469 -2.0916 -3.6017 -0.1224
   73c3c     H1 1314   5.234   0.121   1.434  0.6885 -0.4682 -0.0036
   73c3c     C2 1315   5.368   0.191   1.579  0.8104 -0.4116  0.0057
   73c3c     HC 1316   5.386   0.289   1.625  0.6865 -0.4756  0.1905
   73c3c     HC 1317   5.467   0.151   1.561  1.2126  0.7366 -0.4146
   73c3c     CT 1318   5.295   0.100   1.683  0.1389 -0.0777  1.3229
   73c3c     HC 1319   5.236   0.022   1.634  1.5448 -1.8796  2.4355
   73c3c     HC 1320   5.224   0.156   1.744  0.3600 -0.0098  1.5162
   73c3c     HC 1321   5.364   0.046   1.747  0.3595  0.5183  1.5873
   74c3c     N4 1322   4.164   4.923   6.796  0.0941  0.1750 -0.0232
   74c3c     C1 1323   4.160   4.844   6.924 -0.5269  0.1272 -0.1924
   74c3c     C1 1324   4.234   4.834   6.709  0.3670  0.4676 -0.1206
   74c3c     C2 1325   4.124   4.700   6.871 -0.2162 -0.4783 -0.1360
   74c3c     C2 1326   4.181   4.691   6.730  0.8757  0.3294  0.0369
   74c3c     C1 1327   4.028   4.936   6.745  0.7203 -0.6161 -1.1118
   74c3c     C1 1328   4.238   5.055   6.797  0.1553 -0.0420 -0.5098
   74c3c     H1 1329   4.096   4.886   7.001 -1.8312  1.5164 -1.9982
   74c3c     H1 1330   4.262   4.840   6.964 -0.8415  1.3985  0.7543
   74c3c     H1 1331   4.231   4.862   6.603  0.3072 -1.9377 -0.7834
   74c3c     H1 1332   4.339   4.839   6.736  0.1141 -1.1774  1.2171
   74c3c     HC 1333   4.019   4.670   6.875  0.5526 -3.0767  1.7667
   74c3c     HC 1334   4.177   4.625   6.929  0.6973  0.5328  0.3690
   74c3c     HC 1335   4.101   4.659   6.664  0.7722  0.1736  0.2369
   74c3c     HC 1336   4.260   4.616   6.718  1.3656 -0.0013  4.4792
   74c3c     H1 1337   3.962   4.992   6.812  0.3852 -1.2299 -0.9260
   74c3c     H1 1338   4.039   4.985   6.648  0.1256  0.2168 -0.7728
   74c3c     H1 1339   3.974   4.843   6.727  0.7224 -0.7736 -0.2960
   74c3c     H1 1340   4.252   5.086   6.694 -1.2258  0.5538 -0.5257
   74c3c     H1 1341   4.171   5.127   6.842  0.2170 -0.2001 -0.1573
   74c3c     C2 1342   4.377   5.074   6.863 -0.5088  0.8870 -0.5163
   74c3c     HC 1343   4.450   5.001   6.827 -0.6932  0.5678 -0.2450
   74c3c     HC 1344   4.373   5.062   6.971  0.1249  0.0896 -0.5682
   74c3c     CT 1345   4.431   5.216   6.845  0.0579 -0.0454 -0.0347
   74c3c     HC 1346   4.438   5.241   6.739 -0.9637 -2.4749 -0.7252
   74c3c     HC 1347   4.529   5.226   6.891  0.1314  0.7450 -0.3609
   74c3c     HC 1348   4.371   5.291   6.898 -0.4764  0.1767 -0.9447
   75c3c     N4 1349   2.872   4.637   4.376  0.4968 -0.0839 -0.2382
   75c3c     C1 1350   2.958   4.737   4.440 -0.6225 -0.3519 -0.8785
   75c3c     C1 1351   2.747   4.666   4.451  0.5474  0.0156  0.3640
   75c3c     C2 1352   2.875   4.867   4.480  1.3761 -0.2993 -0.6137
   75c3c     C2 1353   2.731   4.824   4.466  0.3086  0.5903 -0.1177
   75c3c     C1 1354   2.864   4.659   4.229 -0.3991 -0.4471 -0.0641
   75c3c     C1 1355   2.921   4.499   4.395  0.4319  0.1783  0.0490
   75c3c     H1 1356   3.036   4.765   4.369  1.0728 -1.3477  0.5262
   75c3c     H1 1357   3.010   4.696   4.527 -1.3804  0.4806 -0.0313
   75c3c     H1 1358   2.660   4.612   4.416  1.4070 -0.1401 -1.6226
   75c3c     H1 1359   2.759   4.633   4.554 -0.3615  0.5064  0.6260
   75c3c     HC 1360   2.889   4.949   4.410  1.5033 -1.0621 -1.4936
   75c3c     HC 1361   2.899   4.905   4.579  1.3179 -0.4546 -0.5391
   75c3c     HC 1362   2.686   4.855   4.372 -0.2195  1.5354  0.4381
   75c3c     HC 1363   2.668   4.844   4.553 -0.0854  1.0235 -0.5080
   75c3c     H1 1364   2.959   4.643   4.179 -0.9777  0.5506 -1.5096
   75c3c     H1 1365   2.792   4.587   4.191 -1.7548 -0.2660  2.0590
   75c3c     H1 1366   2.826   4.757   4.201  1.4355 -0.0930 -1.3839
   75c3c     H1 1367   2.852   4.428   4.350  2.1713 -2.0585  0.8601
   75c3c     H1 1368   3.016   4.493   4.343 -0.6180  0.0093 -1.9096
   75c3c     C2 1369   2.944   4.445   4.539  0.2338 -0.4002 -0.2000
   75c3c     HC 1370   2.871   4.473   4.615  1.2637 -0.9586  1.0150
   75c3c     HC 1371   3.036   4.485   4.580 -0.1896 -1.3295  1.7395
   75c3c     CT 1372   2.947   4.293   4.557 -0.7789 -0.5042  0.7999
   75c3c     HC 1373   2.992   4.249   4.468  2.0379  0.3474  1.7436
   75c3c     HC 1374   2.844   4.258   4.564 -1.2490  0.9156  1.2859
   75c3c     HC 1375   2.995   4.261   4.649 -0.7242 -1.4607  0.4373
   76c3c     N4 1376   5.014   0.744   5.535 -0.6308 -0.1180 -0.1978
   76c3c     C1 1377   4.940   0.814   5.639 -0.5980 -0.0870 -0.2376
   76c3c     C1 1378   4.991   0.602   5.565  0.1573 -0.0026 -0.0544
   76c3c     C2 1379   4.811   0.731   5.661  0.2778 -0.6019 -0.3483
   76c3c     C2 1380   4.841   0.591   5.588 -0.2965  0.2239 -0.3324
   76c3c     C1 1381   4.959   0.778   5.403 -0.2442 -0.0857  0.1236
   76c3c     C1 1382   5.155   0.778   5.524 -0.4223 -0.3126  0.4657
   76c3c     H1 1383   4.920   0.919   5.615 -0.5960  0.0736  0.4590
   76c3c     H1 1384   4.993   0.810   5.734 -0.6914 -2.1661 -0.2528
   76c3c     H1 1385   5.019   0.529   5.488  0.6329  0.5960 -0.4500
   76c3c     H1 1386   5.042   0.569   5.655 -0.2375 -0.6886 -0.0747
   76c3c     HC 1387   4.723   0.783   5.621  0.6898 -0.0748 -0.5740
   76c3c     HC 1388   4.799   0.712   5.768  0.3746  0.3583 -0.1591
   76c3c     HC 1389   4.786   0.574   5.496  0.7076  0.1833 -0.9333
   76c3c     HC 1390   4.820   0.501   5.646  1.6914 -1.0627 -1.5737
   76c3c     H1 1391   4.953   0.884   5.378  0.9673 -0.1305 -0.4059
   76c3c     H1 1392   5.008   0.730   5.318  0.0429 -0.8654  0.7249
   76c3c     H1 1393   4.855   0.747   5.390 -0.5440  1.5522 -1.5973
   76c3c     H1 1394   5.192   0.725   5.436 -0.0017  0.3969  0.2054
   76c3c     H1 1395   5.156   0.884   5.497 -0.0514  0.0569  1.9086
   76c3c     C2 1396   5.242   0.758   5.649  0.3478 -0.3116  0.0708
   76c3c     HC 1397   5.227   0.651   5.664 -1.3207 -0.1256 -0.1683
   76c3c     HC 1398   5.207   0.809   5.739  0.0050 -0.7772  0.2063
   76c3c     CT 1399   5.388   0.795   5.627  0.0894 -0.4949 -0.7142
   76c3c     HC 1400   5.401   0.902   5.613  0.9365 -0.4918  0.0654
   76c3c     HC 1401   5.425   0.734   5.544 -0.6879 -0.4048 -1.1397
   76c3c     HC 1402   5.443   0.758   5.713 -0.0277  1.0171  0.0292
   77c3c     N4 1403   5.411   6.570   4.417 -0.0217  0.4015  0.1986
   77c3c     C1 1404   5.495   6.610   4.305 -0.6241 -0.0613 -0.0690
   77c3c     C1 1405   5.331   6.691   4.445 -0.3613 -0.3715  0.5653
   77c3c     C2 1406   5.404   6.705   4.223 -0.1473 -0.6133 -0.0779
   77c3c     C2 1407   5.287   6.750   4.312  0.0658  0.0751  0.4820
   77c3c     C1 1408   5.324   6.457   4.379 -0.5089 -0.7312  1.2055
   77c3c     C1 1409   5.489   6.520   4.531  0.0776 -0.4812  0.3449
   77c3c     H1 1410   5.540   6.527   4.250 -0.0251  0.9404 -1.1203
   77c3c     H1 1411   5.580   6.667   4.344  0.1280 -0.7464 -0.7043
   77c3c     H1 1412   5.248   6.669   4.511 -0.4402 -0.2126  0.5178
   77c3c     H1 1413   5.387   6.774   4.490  0.9778  0.1870 -2.0357
   77c3c     HC 1414   5.369   6.655   4.133 -0.1392 -2.5298  0.9440
   77c3c     HC 1415   5.457   6.798   4.204  0.7346 -1.2727 -0.9181
   77c3c     HC 1416   5.197   6.695   4.282 -0.2761 -0.6879  2.8169
   77c3c     HC 1417   5.270   6.857   4.315  0.7148  0.1619  1.0237
   77c3c     H1 1418   5.387   6.370   4.362  1.1873  0.5791  0.6806
   77c3c     H1 1419   5.246   6.437   4.453 -0.4904 -1.0353  1.1436
   77c3c     H1 1420   5.277   6.479   4.283  0.8413 -2.5886  0.0950
   77c3c     H1 1421   5.422   6.479   4.606  0.4203 -1.5414  0.0748
   77c3c     H1 1422   5.546   6.433   4.501  0.4101 -0.2040  0.1613
   77c3c     C2 1423   5.588   6.616   4.596  0.6414  0.2657  0.1642
   77c3c     HC 1424   5.568   6.723   4.591 -0.0081  0.2104  1.2622
   77c3c     HC 1425   5.682   6.606   4.542  0.4668  0.2386 -0.1361
   77c3c     CT 1426   5.602   6.582   4.742  0.1036  0.5186  0.4452
   77c3c     HC 1427   5.677   6.650   4.781 -0.7368  0.3695  2.3976
   77c3c     HC 1428   5.632   6.481   4.769  0.3908  0.6291  0.5394
   77c3c     HC 1429   5.510   6.605   4.797 -0.9648 -1.7380 -0.3055
   78c3c     N4 1430   5.668   4.148   3.412  0.1586 -0.0963 -0.0800
   78c3c     C1 1431   5.783   4.221   3.352  0.5319  0.3176 -0.3802
   78c3c     C1 1432   5.740   4.046   3.497  0.3681 -0.1370 -0.0887
   78c3c     C2 1433   5.878   4.249   3.471  0.8211  0.0125  0.1057
   78c3c     C2 1434   5.856   4.126   3.559  0.5170 -0.0567  0.2680
   78c3c     C1 1435   5.591   4.241   3.498  0.8327 -0.0573  0.2657
   78c3c     C1 1436   5.576   4.082   3.313 -0.3850 -0.3571  0.6220
   78c3c     H1 1437   5.752   4.309   3.295  0.7713  0.0612 -0.9171
   78c3c     H1 1438   5.843   4.169   3.277  0.8395  1.7475 -1.1456
   78c3c     H1 1439   5.672   4.012   3.575  0.3242  0.3368  0.0882
   78c3c     H1 1440   5.779   3.958   3.448  0.3944  0.4252 -1.0848
   78c3c     HC 1441   5.849   4.340   3.524 -0.3962  0.8256 -1.8829
   78c3c     HC 1442   5.982   4.266   3.446  1.0906  1.0987  1.8101
   78c3c     HC 1443   5.825   4.152   3.661 -1.3225  1.0431 -0.5564
   78c3c     HC 1444   5.950   4.072   3.565  1.0899  0.5616 -2.4901
   78c3c     H1 1445   5.551   4.327   3.444 -0.7248 -0.9638 -0.0659
   78c3c     H1 1446   5.501   4.189   3.532  0.0280  1.5817  0.7018
   78c3c     H1 1447   5.639   4.272   3.591  0.3215  1.0197  0.1807
   78c3c     H1 1448   5.505   4.023   3.371  0.5847 -1.2900  0.8761
   78c3c     H1 1449   5.524   4.158   3.255  0.7137  0.4045  0.6091
   78c3c     C2 1450   5.656   3.993   3.217  0.3593  0.0865  0.0990
   78c3c     HC 1451   5.695   3.901   3.260  0.4707  0.0492 -0.0825
   78c3c     HC 1452   5.730   4.051   3.162  1.0154  0.9594  1.8587
   78c3c     CT 1453   5.562   3.948   3.101 -0.0978 -1.0687  0.4941
   78c3c     HC 1454   5.600   3.874   3.031  0.9984  0.9624 -1.1446
   78c3c     HC 1455   5.540   4.035   3.039 -1.0728 -0.0863  2.1784
   78c3c     HC 1456   5.470   3.912   3.147  1.2966 -1.3017  3.2204
   79c3c     N4 1457   4.291   2.611   4.274 -0.6836 -0.8928  0.1570
   79c3c     C1 1458   4.284   2.546   4.141 -0.0446 -0.8772 -0.0069
   79c3c     C1 1459   4.158   2.671   4.281 -0.2077  0.4081 -0.3140
   79c3c     C2 1460   4.144   2.497   4.111  0.2434 -0.5764 -0.1595
   79c3c     C2 1461   4.061   2.564   4.224 -0.6223  0.7748 -0.4003
   79c3c     C1 1462   4.301   2.507   4.379 -0.4542 -0.1881 -0.4587
   79c3c     C1 1463   4.399   2.706   4.294 -0.2011  0.3677 -0.3358
   79c3c     H1 1464   4.359   2.467   4.146  0.2943 -0.5311  0.5974
   79c3c     H1 1465   4.303   2.612   4.057  0.0944  0.4129  1.0145
   79c3c     H1 1466   4.130   2.699   4.382  0.4368  1.1411 -0.3322
   79c3c     H1 1467   4.148   2.764   4.224  1.1735 -0.3006 -1.7772
   79c3c     HC 1468   4.140   2.389   4.125 -1.7529 -0.4315  0.6010
   79c3c     HC 1469   4.108   2.524   4.012  0.9384 -1.2987 -0.6197
   79c3c     HC 1470   4.027   2.490   4.296  0.6040  1.5910  1.0300
   79c3c     HC 1471   3.968   2.611   4.191  0.2110  2.3324 -0.6073
   79c3c     H1 1472   4.400   2.461   4.380 -0.4227 -0.1508 -1.2952
   79c3c     H1 1473   4.287   2.547   4.479 -1.3905 -1.1619 -0.1882
   79c3c     H1 1474   4.232   2.423   4.367 -1.3972  0.6582 -0.9480
   79c3c     H1 1475   4.410   2.742   4.396 -1.2802 -1.7321  0.5522
   79c3c     H1 1476   4.487   2.643   4.279 -0.6228 -0.3249  0.1161
   79c3c     C2 1477   4.408   2.825   4.200 -0.2734 -0.2146  0.2091
   79c3c     HC 1478   4.319   2.888   4.198 -0.1799 -0.0907 -0.1322
   79c3c     HC 1479   4.426   2.793   4.097 -0.6088 -0.1601  0.1314
   79c3c     CT 1480   4.521   2.913   4.250 -0.9005 -0.6317 -0.3479
   79c3c     HC 1481   4.531   3.001   4.186 -2.0842 -0.6337 -0.5562
   79c3c     HC 1482   4.616   2.860   4.245 -0.3486  0.2177  0.9294
   79c3c     HC 1483   4.509   2.944   4.354  0.3553  0.8730 -0.6265
   80c3c     N4 1484   5.877   1.097   0.969 -0.3560  0.0370 -0.2854
   80c3c     C1 1485   5.857   1.085   1.117  0.5797  0.0546  0.2971
   80c3c     C1 1486   5.963   0.980   0.936 -0.1455  0.4177 -0.0091
   80c3c     C2 1487   5.842   0.936   1.146 -0.0538 -0.0962  0.3159
   80c3c     C2 1488   5.915   0.867   1.034 -0.3564  0.5743  0.2067
   80c3c     C1 1489   5.754   1.081   0.890  0.5100 -0.8607  0.6342
   80c3c     C1 1490   5.931   1.232   0.944 -0.4670  0.2393  0.2542
   80c3c     H1 1491   5.775   1.143   1.159  0.5437  1.2204 -1.3259
   80c3c     H1 1492   5.944   1.119   1.174  0.0201  1.5330  0.3011
   80c3c     H1 1493   5.975   0.957   0.830 -0.0772 -0.3384  0.1568
   80c3c     H1 1494   6.065   1.004   0.965 -0.7975  1.5645  1.4028
   80c3c     HC 1495   5.737   0.907   1.136 -0.0327 -0.9325  2.2388
   80c3c     HC 1496   5.873   0.909   1.247 -0.5788  1.1567  0.8165
   80c3c     HC 1497   5.860   0.792   0.978  0.7176  0.3017 -0.5060
   80c3c     HC 1498   6.004   0.821   1.077  1.4402  2.4386 -1.3725
   80c3c     H1 1499   5.671   1.150   0.904  1.3255  0.3501 -0.3368
   80c3c     H1 1500   5.779   1.096   0.784 -0.8555  0.2820  0.4679
   80c3c     H1 1501   5.715   0.980   0.904  0.8427 -0.9338  1.0425
   80c3c     H1 1502   5.917   1.253   0.839  1.5736  1.9570  0.2885
   80c3c     H1 1503   5.867   1.306   0.992  1.8452  2.0268  0.7137
   80c3c     C2 1504   6.075   1.263   0.989 -0.5407  0.2834  0.6371
   80c3c     HC 1505   6.143   1.178   0.981 -0.4326  0.3509  0.8475
   80c3c     HC 1506   6.082   1.285   1.096 -0.3547  1.3547  0.4065
   80c3c     CT 1507   6.137   1.374   0.902  0.5235 -0.7031  0.6396
   80c3c     HC 1508   6.241   1.380   0.935 -0.2747  0.5670  3.0871
   80c3c     HC 1509   6.093   1.469   0.931  1.8326 -0.2036  0.9976
   80c3c     HC 1510   6.127   1.338   0.800  1.3572  1.0381 -0.0637
   81c3c     N4 1511   4.302   1.927   4.813 -0.0073 -0.2322 -0.1148
   81c3c     C1 1512   4.441   1.926   4.858 -0.0883 -0.6733  0.3737
   81c3c     C1 1513   4.218   1.882   4.928  0.2077 -0.2916 -0.3748
   81c3c     C2 1514   4.435   1.951   5.009  0.1241  0.7024  0.4997
   81c3c     C2 1515   4.297   1.922   5.052 -0.0870  0.0574 -0.2986
   81c3c     C1 1516   4.267   2.062   4.768  0.5200 -0.0141  0.2992
   81c3c     C1 1517   4.280   1.836   4.699 -0.3000 -0.8226  0.2483
   81c3c     H1 1518   4.508   1.996   4.809 -0.8509  1.9513  2.9435
   81c3c     H1 1519   4.489   1.829   4.844 -0.5086 -0.8527  0.1384
   81c3c     H1 1520   4.115   1.916   4.915  0.6575  0.8975 -0.9058
   81c3c     H1 1521   4.213   1.774   4.939 -1.8030 -0.2310 -0.4379
   81c3c     HC 1522   4.463   2.054   5.034  2.5346  0.1112  0.3462
   81c3c     HC 1523   4.509   1.891   5.062 -2.3303 -1.5437  1.4811
   81c3c     HC 1524   4.252   2.010   5.099  0.5830  0.1037  0.2571
   81c3c     HC 1525   4.291   1.844   5.128  1.4368 -1.3378 -1.5612
   81c3c     H1 1526   4.330   2.109   4.693 -0.5061 -1.0591 -1.2569
   81c3c     H1 1527   4.166   2.067   4.727  0.5555  0.8224  0.3131
   81c3c     H1 1528   4.271   2.136   4.848  2.9510  1.1771 -0.9040
   81c3c     H1 1529   4.174   1.848   4.680  0.0438  1.5167 -0.4080
   81c3c     H1 1530   4.328   1.871   4.607 -0.6758 -1.3447 -0.1470
   81c3c     C2 1531   4.329   1.692   4.708 -0.4352  0.8565  0.0726
   81c3c     HC 1532   4.323   1.659   4.812 -1.2014 -1.0605 -0.5402
   81c3c     HC 1533   4.436   1.681   4.690 -0.0788 -2.6748  3.4016
   81c3c     CT 1534   4.244   1.597   4.617  0.7678  0.0963  0.7210
   81c3c     HC 1535   4.240   1.636   4.515  0.2141 -0.2350  0.6157
   81c3c     HC 1536   4.147   1.589   4.665  0.8473 -1.3673  0.6788
   81c3c     HC 1537   4.293   1.499   4.608  1.7229  0.5577  0.8061
   82c3c     N4 1538   0.494   2.409   2.574 -0.0315 -0.3795  0.0822
   82c3c     C1 1539   0.409   2.354   2.467 -0.1013  0.4950 -0.0458
   82c3c     C1 1540   0.420   2.525   2.620 -0.1588  0.2206  0.2670
   82c3c     C2 1541   0.262   2.378   2.511  0.2110  0.3980 -1.0087
   82c3c     C2 1542   0.267   2.495   2.619 -0.8416 -0.4126  0.0304
   82c3c     C1 1543   0.508   2.307   2.679  0.1582  0.3837 -0.0694
   82c3c     C1 1544   0.633   2.444   2.534 -0.7934 -0.4254 -0.0186
   82c3c     H1 1545   0.426   2.248   2.449  0.8274  0.8254 -1.1321
   82c3c     H1 1546   0.419   2.408   2.373  0.0896  2.2444  0.9550
   82c3c     H1 1547   0.450   2.557   2.720 -0.9898  0.2279  0.5229
   82c3c     H1 1548   0.446   2.610   2.556  0.4567  1.1349  1.7086
   82c3c     HC 1549   0.223   2.291   2.564  1.8982  0.3728  0.2079
   82c3c     HC 1550   0.192   2.400   2.430  0.7756  1.1853 -1.2889
   82c3c     HC 1551   0.234   2.459   2.717  0.2923  0.3215  0.6849
   82c3c     HC 1552   0.208   2.581   2.589  1.5854  0.9221 -1.0225
   82c3c     H1 1553   0.569   2.222   2.649  1.6076  1.6601 -0.7442
   82c3c     H1 1554   0.565   2.347   2.763 -0.2205  1.2959 -0.2472
   82c3c     H1 1555   0.415   2.259   2.710  0.1921 -0.5184 -1.3684
   82c3c     H1 1556   0.681   2.502   2.613  1.3076 -1.6352 -0.3596
   82c3c     H1 1557   0.698   2.357   2.532 -0.5605 -0.2502 -0.1686
   82c3c     C2 1558   0.646   2.518   2.402  0.0535 -0.0125  0.1621
   82c3c     HC 1559   0.583   2.607   2.395 -1.7883 -1.3092 -0.1445
   82c3c     HC 1560   0.630   2.460   2.311 -1.0951  1.2499 -0.4692
   82c3c     CT 1561   0.788   2.569   2.384  0.0659 -0.3593  0.4814
   82c3c     HC 1562   0.861   2.494   2.414  0.3517  0.7061  2.5481
   82c3c     HC 1563   0.797   2.658   2.446  0.1977  0.5541 -0.8102
   82c3c     HC 1564   0.820   2.596   2.283 -1.3982 -0.6087 -0.0701
   83c3c     N4 1565   1.856   1.968   3.814 -0.2746 -0.7330 -0.0304
   83c3c     C1 1566   1.941   1.857   3.854  0.6086  0.2782  0.0061
   83c3c     C1 1567   1.827   2.041   3.945  0.3512 -0.0663  0.1447
   83c3c     C2 1568   2.010   1.900   3.980  0.1501 -0.2966 -0.4623
   83c3c     C2 1569   1.956   2.033   4.017  0.1121 -1.0724  0.0873
   83c3c     C1 1570   1.934   2.057   3.722  0.5882  0.5116  0.2487
   83c3c     C1 1571   1.738   1.932   3.729 -0.6515  0.4864 -0.7160
   83c3c     H1 1572   2.006   1.817   3.777 -0.2384 -1.5283  0.1877
   83c3c     H1 1573   1.882   1.773   3.892  1.0279 -0.4613 -0.9441
   83c3c     H1 1574   1.791   2.142   3.928  0.8747  0.0194 -0.4416
   83c3c     H1 1575   1.748   1.985   3.994 -0.3660 -0.0968 -1.0443
   83c3c     HC 1576   2.118   1.898   3.966  0.3079  2.5668  0.0328
   83c3c     HC 1577   1.985   1.834   4.062  1.3739 -0.6655 -0.3730
   83c3c     HC 1578   2.025   2.108   3.979 -1.2328 -0.6473 -1.5743
   83c3c     HC 1579   1.948   2.057   4.123 -1.6870 -0.7170 -0.1210
   83c3c     H1 1580   1.966   2.001   3.634  1.7727 -1.0694  1.6317
   83c3c     H1 1581   1.887   2.149   3.688 -0.3283 -0.4242 -1.0557
   83c3c     H1 1582   2.027   2.083   3.772  0.3398  0.3510  0.8132
   83c3c     H1 1583   1.691   2.022   3.689  0.6427  0.9277 -1.2855
   83c3c     H1 1584   1.767   1.884   3.636  2.4835  0.8838 -0.0243
   83c3c     C2 1585   1.630   1.845   3.788 -0.5317 -0.0506  0.3823
   83c3c     HC 1586   1.613   1.868   3.893 -0.8344 -1.9900  0.7824
   83c3c     HC 1587   1.661   1.740   3.787 -1.0690 -0.2174 -1.5034
   83c3c     CT 1588   1.493   1.865   3.714 -0.1493  0.0960 -0.2882
   83c3c     HC 1589   1.407   1.812   3.756 -0.5407  0.1524 -0.9913
   83c3c     HC 1590   1.505   1.825   3.613 -0.4199  0.0182 -0.2918
   83c3c     HC 1591   1.461   1.969   3.707  0.3080  0.2614  0.1234
   84c3c     N4 1592   1.929   1.580   3.387 -0.3050  0.0847  0.6381
   84c3c     C1 1593   1.989   1.563   3.257  0.3964  0.5525  0.0910
   84c3c     C1 1594   2.016   1.683   3.448 -0.0503  0.2700  0.6196
   84c3c     C2 1595   2.010   1.701   3.211 -0.3636  0.2954  0.7418
   84c3c     C2 1596   2.037   1.779   3.331 -0.4645  0.0514 -0.8265
   84c3c     C1 1597   1.788   1.627   3.380 -0.2524 -0.9986  0.5267
   84c3c     C1 1598   1.925   1.462   3.477 -0.2856  0.0168 -0.1980
   84c3c     H1 1599   1.930   1.509   3.183  0.2025  1.1030 -0.1538
   84c3c     H1 1600   2.088   1.517   3.254  0.2296  0.1684  0.4095
   84c3c     H1 1601   1.993   1.730   3.544 -2.4862 -2.0373  1.2173
   84c3c     H1 1602   2.112   1.636   3.470  0.0422  0.6262  1.0008
   84c3c     HC 1603   1.917   1.729   3.160 -0.1393  1.7517  1.1016
   84c3c     HC 1604   2.086   1.708   3.133 -1.1001  1.2902  0.1012
   84c3c     HC 1605   1.969   1.865   3.335  0.2139  0.5237  1.3688
   84c3c     HC 1606   2.143   1.804   3.330 -0.7852  1.5624  0.7417
   84c3c     H1 1607   1.745   1.568   3.299  0.0256  0.0966 -0.4506
   84c3c     H1 1608   1.742   1.619   3.479 -1.1305  0.8904  0.3070
   84c3c     H1 1609   1.783   1.731   3.348  2.2757 -1.0773 -0.2635
   84c3c     H1 1610   1.884   1.487   3.575  0.5382 -3.9463  1.2680
   84c3c     H1 1611   1.847   1.393   3.444 -0.0535  0.1244 -0.9701
   84c3c     C2 1612   2.054   1.380   3.486  0.0196  0.2477 -0.1271
   84c3c     HC 1613   2.133   1.429   3.543 -0.2267  1.9649 -1.2238
   84c3c     HC 1614   2.093   1.348   3.389 -0.3470  0.6938 -0.4206
   84c3c     CT 1615   2.036   1.257   3.574 -0.5908 -0.0656 -0.4955
   84c3c     HC 1616   1.937   1.212   3.561 -1.3981  1.8940 -1.2216
   84c3c     HC 1617   2.051   1.276   3.680 -0.7984 -2.5276  0.0189
   84c3c     HC 1618   2.115   1.184   3.555 -0.4400 -0.4927  1.6289
   85c3c     N4 1619   4.891   3.946   7.076 -0.3312 -0.7713  0.8870
   85c3c     C1 1620   4.941   3.933   7.218 -0.0589 -0.4029  0.2675
   85c3c     C1 1621   4.994   3.882   6.992 -0.4754 -0.1954 -0.4825
   85c3c     C2 1622   4.999   3.791   7.220  0.5460  0.7451 -0.4495
   85c3c     C2 1623   5.048   3.768   7.080 -0.0518  0.0902  0.7733
   85c3c     C1 1624   4.763   3.876   7.070 -0.4378 -0.0137  0.9649
   85c3c     C1 1625   4.869   4.092   7.044 -0.4356  0.4325 -0.7794
   85c3c     H1 1626   4.861   3.956   7.288 -0.7709 -0.3976 -0.5399
   85c3c     H1 1627   5.027   3.992   7.250 -0.8803  0.9342  0.0557
   85c3c     H1 1628   4.977   3.852   6.889  1.5554  0.7786 -1.1300
   85c3c     H1 1629   5.072   3.958   6.993 -1.0292  0.3713 -0.5559
   85c3c     HC 1630   4.917   3.721   7.238  1.9706 -0.6839  0.5818
   85c3c     HC 1631   5.074   3.770   7.296  0.5436 -0.2435 -0.7235
   85c3c     HC 1632   5.005   3.678   7.037 -1.7049  0.1737  2.2003
   85c3c     HC 1633   5.156   3.758   7.078 -0.0735 -0.1763  0.9787
   85c3c     H1 1634   4.682   3.934   7.112  0.1746  1.3859  0.2683
   85c3c     H1 1635   4.728   3.866   6.967 -1.2010 -1.0865  1.3229
   85c3c     H1 1636   4.752   3.772   7.101 -0.6458  0.1126  1.3082
   85c3c     H1 1637   4.814   4.112   6.952 -1.0607 -0.0456 -0.5123
   85c3c     H1 1638   4.802   4.120   7.125  1.5695  3.2285  0.0135
   85c3c     C2 1639   5.000   4.176   7.045  0.0183  0.5463 -0.6917
   85c3c     HC 1640   5.044   4.165   6.946  0.9964 -1.6737 -0.0560
   85c3c     HC 1641   5.067   4.144   7.125 -0.1622  0.4771 -0.5678
   85c3c     CT 1642   4.967   4.324   7.079  0.0557 -0.3184 -0.7605
   85c3c     HC 1643   4.938   4.346   7.182 -0.1562 -1.4797 -0.5719
   85c3c     HC 1644   4.873   4.341   7.026 -0.7870 -1.6380  0.2879
   85c3c     HC 1645   5.055   4.379   7.044 -1.3634  0.1041 -3.8223
   86c3c     N4 1646   7.032   2.578   4.266 -0.0055 -0.1687  0.0297
   86c3c     C1 1647   7.149   2.554   4.182  0.3387 -0.4171  0.3740
   86c3c     C1 1648   7.006   2.444   4.326  0.0489  0.1119 -0.3400
   86c3c     C2 1649   7.241   2.461   4.252  0.2367  0.0672 -0.1139
   86c3c     C2 1650   7.144   2.378   4.339  0.1854 -0.2099  0.0898
   86c3c     C1 1651   7.065   2.661   4.381  0.2464 -0.5126  0.4695
   86c3c     C1 1652   6.930   2.657   4.190  0.2495 -0.0797 -0.1529
   86c3c     H1 1653   7.188   2.646   4.138  0.9827 -0.8584  0.0135
   86c3c     H1 1654   7.128   2.490   4.096  0.7376  1.4471 -1.1419
   86c3c     H1 1655   6.950   2.445   4.420 -0.0305 -0.9789 -0.3621
   86c3c     H1 1656   6.941   2.386   4.261  2.1672  1.1980 -3.5509
   86c3c     HC 1657   7.315   2.512   4.315 -0.7266 -1.2681  2.1479
   86c3c     HC 1658   7.298   2.396   4.185  0.6884 -0.0469  0.3791
   86c3c     HC 1659   7.172   2.375   4.445 -0.0376  0.4383  0.1705
   86c3c     HC 1660   7.142   2.273   4.309  0.6724 -0.3982  0.6945
   86c3c     H1 1661   7.105   2.759   4.356 -1.3333  0.2488  0.8611
   86c3c     H1 1662   6.976   2.678   4.441 -0.8566 -2.3031 -0.6211
   86c3c     H1 1663   7.141   2.611   4.442  0.0162 -1.1288  0.2532
   86c3c     H1 1664   6.851   2.692   4.257 -0.6732 -0.1551 -1.1957
   86c3c     H1 1665   6.972   2.754   4.166 -0.7265  0.7032  1.2124
   86c3c     C2 1666   6.870   2.572   4.074  0.6435 -0.0687 -0.6802
   86c3c     HC 1667   6.813   2.489   4.116  2.9227 -0.4679  1.8103
   86c3c     HC 1668   6.953   2.531   4.016  1.9845  3.1393 -1.1235
   86c3c     CT 1669   6.783   2.648   3.982  0.8837 -0.6014  0.2293
   86c3c     HC 1670   6.768   2.587   3.893 -0.3629 -1.0688  0.7474
   86c3c     HC 1671   6.818   2.747   3.953  0.6639 -0.6561 -0.2248
   86c3c     HC 1672   6.691   2.657   4.041  0.4791 -1.9405 -0.1562
   87c3c     N4 1673   2.559   2.267   4.985 -0.4061 -0.4797 -0.0189
   87c3c     C1 1674   2.632   2.387   5.020  0.3720 -0.3399  0.2025
   87c3c     C1 1675   2.433   2.314   4.928  0.2694  0.0483  0.2801
   87c3c     C2 1676   2.601   2.487   4.903  0.4676 -0.1566 -0.1337
   87c3c     C2 1677   2.467   2.442   4.852  1.2887 -0.1482  0.3373
   87c3c     C1 1678   2.629   2.192   4.875 -0.2532  0.0773 -0.0142
   87c3c     C1 1679   2.532   2.170   5.102  0.2150 -0.4106  0.2482
   87c3c     H1 1680   2.739   2.368   5.032  0.3056 -0.8455 -0.0073
   87c3c     H1 1681   2.582   2.428   5.108 -2.5327  0.5103 -1.7798
   87c3c     H1 1682   2.380   2.243   4.865 -0.9247  0.3699  0.9151
   87c3c     H1 1683   2.359   2.337   5.005 -1.0112 -0.1604 -0.8699
   87c3c     HC 1684   2.683   2.489   4.831  1.9847  0.4148  1.5657
   87c3c     HC 1685   2.612   2.587   4.944  2.3401 -0.2416 -0.4072
   87c3c     HC 1686   2.459   2.424   4.745  0.6560 -0.3126  0.4122
   87c3c     HC 1687   2.387   2.513   4.873  2.4500  1.2683  0.0425
   87c3c     H1 1688   2.728   2.163   4.912 -0.7617 -1.2179  0.3478
   87c3c     H1 1689   2.574   2.105   4.840 -0.4314  0.3041 -0.3049
   87c3c     H1 1690   2.655   2.252   4.787  0.3470  0.2798  0.2937
   87c3c     H1 1691   2.492   2.077   5.062 -1.7297  1.1213 -1.4970
   87c3c     H1 1692   2.631   2.150   5.142  0.0732 -2.3653 -0.3459
   87c3c     C2 1693   2.433   2.215   5.212 -0.2431 -0.0730 -0.5099
   87c3c     HC 1694   2.333   2.230   5.172 -0.1802 -1.8304 -1.3776
   87c3c     HC 1695   2.465   2.312   5.251  0.5853  0.1049 -1.6026
   87c3c     CT 1696   2.419   2.111   5.328 -0.0076  0.7532 -0.2267
   87c3c     HC 1697   2.513   2.113   5.383 -0.8792  2.2832  1.2610
   87c3c     HC 1698   2.400   2.008   5.296 -0.1228 -0.1868  2.6985
   87c3c     HC 1699   2.336   2.125   5.398 -0.0914  2.0517 -0.5822
   88c3c     N4 1700   2.220   2.676   5.237 -0.6817 -0.4817 -0.4518
   88c3c     C1 1701   2.091   2.615   5.246 -0.1752 -0.0302 -0.4321
   88c3c     C1 1702   2.256   2.714   5.373 -0.1964 -0.8754  0.0679
   88c3c     C2 1703   2.095   2.532   5.379 -0.5716 -0.1685 -0.1614
   88c3c     C2 1704   2.191   2.611   5.465 -0.4682 -0.2325  0.7633
   88c3c     C1 1705   2.317   2.582   5.179 -0.7458 -0.1756 -0.1313
   88c3c     C1 1706   2.230   2.794   5.152 -1.0239  0.0153  0.3002
   88c3c     H1 1707   2.062   2.552   5.161 -1.1088 -0.3521  0.1125
   88c3c     H1 1708   2.009   2.685   5.262 -0.3736 -0.1138 -1.0456
   88c3c     H1 1709   2.364   2.718   5.392 -0.1091 -0.8861 -0.4341
   88c3c     H1 1710   2.219   2.810   5.408  1.7313 -0.4597  1.0348
   88c3c     HC 1711   2.133   2.431   5.368 -0.0786 -0.2082  1.7579
   88c3c     HC 1712   1.998   2.530   5.428 -1.4151  0.3487 -1.7729
   88c3c     HC 1713   2.270   2.551   5.511  1.2849  1.1823 -0.3126
   88c3c     HC 1714   2.135   2.658   5.545 -1.9934 -0.6334 -0.0541
   88c3c     H1 1715   2.286   2.556   5.078  1.8909 -1.0198 -0.7420
   88c3c     H1 1716   2.416   2.626   5.174 -0.5023 -0.7258 -0.1621
   88c3c     H1 1717   2.330   2.495   5.242  0.8525 -1.1180 -1.7248
   88c3c     H1 1718   2.323   2.844   5.179 -0.7117 -0.4315  0.0599
   88c3c     H1 1719   2.247   2.765   5.048  1.4806 -0.7923  0.9035
   88c3c     C2 1720   2.112   2.897   5.160 -0.4586  0.0464 -0.5119
   88c3c     HC 1721   2.079   2.915   5.262 -0.8528  0.2450 -0.6712
   88c3c     HC 1722   2.021   2.863   5.111 -0.6575 -0.9771  0.5409
   88c3c     CT 1723   2.149   3.038   5.103  0.4077 -0.3501  0.2550
   88c3c     HC 1724   2.165   3.037   4.995  0.4473  0.2836  0.2499
   88c3c     HC 1725   2.243   3.076   5.144  0.4151  0.3912 -0.4305
   88c3c     HC 1726   2.075   3.113   5.131 -0.8719 -1.2765 -0.6258
   89c3c     N4 1727   5.141   2.338   3.935 -0.1933 -0.5628  0.2335
   89c3c     C1 1728   5.174   2.364   3.797 -0.2795 -0.5486  0.2759
   89c3c     C1 1729   5.269   2.328   4.002 -0.0077 -0.4557 -0.0305
   89c3c     C2 1730   5.298   2.455   3.796  0.7989 -0.1943  0.0435
   89c3c     C2 1731   5.356   2.437   3.937 -0.0721  0.1614  0.2667
   89c3c     C1 1732   5.069   2.457   3.983  0.3143 -0.7049  0.6998
   89c3c     C1 1733   5.059   2.218   3.962 -0.2708 -0.2674 -0.4302
   89c3c     H1 1734   5.088   2.411   3.750 -0.3761 -0.3302  0.6691
   89c3c     H1 1735   5.190   2.267   3.750 -0.6849 -0.0293 -0.9330
   89c3c     H1 1736   5.259   2.354   4.108 -0.1664  0.6582 -0.3136
   89c3c     H1 1737   5.318   2.231   3.990 -1.2914 -1.1029 -0.0690
   89c3c     HC 1738   5.280   2.561   3.784 -0.0727 -0.2486  0.8306
   89c3c     HC 1739   5.372   2.427   3.721  0.6223 -0.7979  0.0919
   89c3c     HC 1740   5.346   2.533   3.988  0.8043  0.4188 -0.0450
   89c3c     HC 1741   5.462   2.415   3.941 -0.1161  0.0010  0.6456
   89c3c     H1 1742   4.975   2.478   3.933  0.3974 -1.7801  0.0929
   89c3c     H1 1743   5.043   2.447   4.089  1.6580 -1.5650  0.9685
   89c3c     H1 1744   5.114   2.557   3.979  2.7159 -1.7670 -0.1932
   89c3c     H1 1745   5.033   2.217   4.068  0.9002 -0.8427 -0.1427
   89c3c     H1 1746   4.965   2.223   3.908 -0.2643 -1.7743 -0.6058
   89c3c     C2 1747   5.116   2.075   3.929 -0.1197 -0.3473 -0.2363
   89c3c     HC 1748   5.209   2.053   3.981 -1.0359  0.7691  1.9365
   89c3c     HC 1749   5.123   2.063   3.821  1.9902 -0.7246 -0.0863
   89c3c     CT 1750   5.019   1.970   3.979 -0.2099 -0.5703 -0.3596
   89c3c     HC 1751   4.931   1.984   3.916  0.4654 -1.6073 -1.5742
   89c3c     HC 1752   4.987   1.969   4.083  1.1614 -1.0814  0.0676
   89c3c     HC 1753   5.055   1.868   3.962  1.3348 -0.5464  2.5370
   90c3c     N4 1754   6.832   4.499   5.691 -0.4706 -0.8867 -0.1948
   90c3c     C1 1755   6.734   4.501   5.573  0.6139 -0.3750 -0.0538
   90c3c     C1 1756   6.960   4.529   5.623  0.1271  0.3058 -0.2690
   90c3c     C2 1757   6.773   4.618   5.486  0.6221  0.3726  0.1537
   90c3c     C2 1758   6.919   4.631   5.516  0.1903 -0.1675  0.2005
   90c3c     C1 1759   6.792   4.601   5.796  0.0333 -0.4921  1.0636
   90c3c     C1 1760   6.831   4.376   5.765  0.4254  0.5401 -0.8208
   90c3c     H1 1761   6.629   4.516   5.601  0.7609 -0.2454  0.4271
   90c3c     H1 1762   6.751   4.412   5.513 -2.1946 -1.5297  0.7902
   90c3c     H1 1763   7.035   4.562   5.695 -0.1009 -0.3732  0.2890
   90c3c     H1 1764   7.004   4.439   5.581 -0.1866  0.2556 -0.4910
   90c3c     HC 1765   6.728   4.711   5.521  0.6958  0.4204  0.1183
   90c3c     HC 1766   6.747   4.598   5.383  1.4404 -0.1226  0.0399
   90c3c     HC 1767   6.932   4.732   5.553 -1.6425  0.3746 -0.5697
   90c3c     HC 1768   6.972   4.615   5.422 -0.2885  0.0841 -0.1152
   90c3c     H1 1769   6.690   4.594   5.833 -0.8880  1.9423 -0.8362
   90c3c     H1 1770   6.862   4.589   5.878 -0.8876  0.3220  1.9907
   90c3c     H1 1771   6.805   4.704   5.763 -1.4883 -1.0784 -1.5659
   90c3c     H1 1772   6.903   4.399   5.844  0.0154 -2.2107  0.3992
   90c3c     H1 1773   6.738   4.362   5.820  0.5185  0.2164 -0.7423
   90c3c     C2 1774   6.863   4.245   5.690 -0.0857 -0.7804  0.3738
   90c3c     HC 1775   6.957   4.251   5.636 -0.3887  1.3850  0.0416
   90c3c     HC 1776   6.779   4.216   5.627 -0.4249  1.7459 -0.3659
   90c3c     CT 1777   6.865   4.131   5.788 -0.2539 -0.5427  0.1193
   90c3c     HC 1778   6.772   4.132   5.844 -0.4157  0.5557 -0.1662
   90c3c     HC 1779   6.951   4.122   5.855  0.1711  0.3087 -0.3023
   90c3c     HC 1780   6.870   4.037   5.732  0.9153 -0.5759  0.2542
   91c3c     N4 1781   4.363   5.862   1.642 -0.3380 -0.1600  0.1051
   91c3c     C1 1782   4.364   5.836   1.494  0.4124 -0.2897 -0.6066
   91c3c     C1 1783   4.347   6.009   1.645  0.4180  0.7113 -0.3127
   91c3c     C2 1784   4.260   5.936   1.435  0.0466  0.0933  0.3080
   91c3c     C2 1785   4.237   6.042   1.543  0.9193  0.6343  0.1288
   91c3c     C1 1786   4.249   5.793   1.703  0.0873  0.2260 -0.2624
   91c3c     C1 1787   4.483   5.809   1.719  0.2717 -0.5254 -0.5407
   91c3c     H1 1788   4.343   5.734   1.461 -2.4794  0.1944 -0.3954
   91c3c     H1 1789   4.463   5.858   1.456 -0.0492  1.3167 -0.9083
   91c3c     H1 1790   4.322   6.048   1.744  0.0570 -0.1052 -0.0762
   91c3c     H1 1791   4.439   6.063   1.621  0.7826 -0.0571 -0.6449
   91c3c     HC 1792   4.163   5.894   1.408 -1.3804  2.5271  1.4952
   91c3c     HC 1793   4.304   5.986   1.348  0.0683  1.7168  1.2480
   91c3c     HC 1794   4.134   6.030   1.574  0.2997  2.6901 -1.0623
   91c3c     HC 1795   4.252   6.141   1.501 -0.3303  1.0025  0.5367
   91c3c     H1 1796   4.256   5.684   1.699  0.7303  0.1405  2.1290
   91c3c     H1 1797   4.243   5.829   1.806  0.5750  2.8762 -1.1417
   91c3c     H1 1798   4.160   5.814   1.645  0.3050 -0.8108 -0.9888
   91c3c     H1 1799   4.471   5.811   1.827  0.8976  0.8552 -0.4885
   91c3c     H1 1800   4.497   5.702   1.704 -4.3213 -1.3931  0.6846
   91c3c     C2 1801   4.608   5.899   1.707  1.0426 -0.7852  0.1145
   91c3c     HC 1802   4.585   5.988   1.765  2.0403  0.3762 -1.2301
   91c3c     HC 1803   4.619   5.933   1.604 -0.5731  0.4515  0.3322
   91c3c     CT 1804   4.737   5.847   1.759  0.2205  0.0097 -0.5151
   91c3c     HC 1805   4.825   5.887   1.709  0.0573 -0.6554 -1.3299
   91c3c     HC 1806   4.743   5.741   1.735  0.5231  0.1125 -0.8921
   91c3c     HC 1807   4.738   5.855   1.868 -0.6608  0.1679 -0.5108
   92c3c     N4 1808   3.210   3.277   0.964  0.0124  0.6722 -0.2017
   92c3c     C1 1809   3.099   3.189   0.996 -0.1956  0.2011  0.7956
   92c3c     C1 1810   3.175   3.406   1.033 -0.4046  0.7067  0.3621
   92c3c     C2 1811   3.070   3.209   1.142  0.0576  0.5354  1.0202
   92c3c     C2 1812   3.097   3.360   1.160  0.5068  0.4980  0.1133
   92c3c     C1 1813   3.338   3.247   1.034  0.3563  0.5260 -0.2705
   92c3c     C1 1814   3.242   3.282   0.819  0.1438 -0.5703 -0.3086
   92c3c     H1 1815   3.110   3.084   0.969  0.9336  0.4544  0.2189
   92c3c     H1 1816   3.005   3.227   0.953 -0.1865  0.7456  1.2487
   92c3c     H1 1817   3.260   3.469   1.061 -0.8344  1.3426  0.2307
   92c3c     H1 1818   3.102   3.461   0.974 -1.4118  0.7762  1.6479
   92c3c     HC 1819   3.139   3.142   1.194 -1.9449 -0.7335  2.0880
   92c3c     HC 1820   2.971   3.174   1.171  0.3304 -1.3320 -0.2263
   92c3c     HC 1821   3.146   3.381   1.255 -0.6585  0.8070  0.6429
   92c3c     HC 1822   3.006   3.419   1.160  0.6477  0.7191 -0.3071
   92c3c     H1 1823   3.375   3.149   1.005 -0.5264  0.1136 -0.0596
   92c3c     H1 1824   3.415   3.321   1.013 -0.1020  0.6722 -1.4489
   92c3c     H1 1825   3.329   3.249   1.143 -0.4021 -0.8112 -0.2876
   92c3c     H1 1826   3.331   3.342   0.805 -0.5710  0.6509  0.2622
   92c3c     H1 1827   3.275   3.183   0.788  2.3359  0.2976 -0.7874
   92c3c     C2 1828   3.129   3.337   0.733  0.1858  0.0409 -0.5474
   92c3c     HC 1829   3.096   3.434   0.769 -1.3041 -0.1667 -1.3406
   92c3c     HC 1830   3.039   3.276   0.744 -0.1165  0.5900  0.0392
   92c3c     CT 1831   3.153   3.348   0.579 -0.1550 -0.0460 -0.1379
   92c3c     HC 1832   3.228   3.278   0.541 -1.0212 -0.7713 -0.5233
   92c3c     HC 1833   3.185   3.447   0.545 -0.6639  0.0432 -0.3655
   92c3c     HC 1834   3.065   3.322   0.521  0.4683 -1.8209 -0.3280
   93c3c     N4 1835   1.536   2.035   2.824  0.2708  0.2577  0.2836
   93c3c     C1 1836   1.538   2.036   2.971 -0.2802 -0.5017  0.7461
   93c3c     C1 1837   1.421   1.946   2.797 -0.1658 -0.1818 -0.5985
   93c3c     C2 1838   1.396   2.059   3.011 -0.1931 -0.2989  0.4408
   93c3c     C2 1839   1.313   1.984   2.905  0.3718 -0.2197 -0.2787
   93c3c     C1 1840   1.513   2.173   2.772  0.0968  0.2021  1.0618
   93c3c     C1 1841   1.657   1.977   2.761 -0.5490 -0.2811 -0.1140
   93c3c     H1 1842   1.613   2.097   3.021 -0.0544 -0.8437  0.8275
   93c3c     H1 1843   1.563   1.936   3.007  2.1391  0.2196  1.1365
   93c3c     H1 1844   1.378   1.953   2.697 -0.9487  1.0130 -0.1983
   93c3c     H1 1845   1.442   1.841   2.819  0.8448  0.1151 -0.1405
   93c3c     HC 1846   1.376   2.166   3.011 -0.1505 -0.2798  1.4018
   93c3c     HC 1847   1.379   2.031   3.116  0.4905  0.8451  0.8669
   93c3c     HC 1848   1.235   2.050   2.868  0.2493 -0.9429 -1.3543
   93c3c     HC 1849   1.256   1.898   2.942 -1.0277  0.9496  0.3359
   93c3c     H1 1850   1.595   2.234   2.810 -0.4713  1.4909  0.2517
   93c3c     H1 1851   1.500   2.174   2.664 -0.2833 -0.7641  1.0977
   93c3c     H1 1852   1.431   2.231   2.815 -0.0058  0.9744 -0.1682
   93c3c     H1 1853   1.646   1.985   2.653 -0.4710 -1.0230 -0.1806
   93c3c     H1 1854   1.734   2.049   2.790 -1.1848  0.6429 -0.6788
   93c3c     C2 1855   1.709   1.835   2.797 -0.1815  0.6427 -0.5301
   93c3c     HC 1856   1.635   1.755   2.791 -0.4449  0.7224  1.2480
   93c3c     HC 1857   1.739   1.829   2.902  0.4536  1.1428 -0.6844
   93c3c     CT 1858   1.824   1.786   2.702 -0.3864 -0.0783 -0.3081
   93c3c     HC 1859   1.804   1.791   2.594 -0.4009 -1.1972 -0.3581
   93c3c     HC 1860   1.851   1.682   2.722 -1.4121 -0.0903  1.0867
   93c3c     HC 1861   1.916   1.843   2.715 -0.2725 -0.0590 -1.1377
   94c3c     N4 1862   2.205   6.903   2.004 -0.0951  0.2901  0.1642
   94c3c     C1 1863   2.264   7.032   2.050  0.1855  0.3454  0.0676
   94c3c     C1 1864   2.102   6.880   2.102 -0.0238  0.1071  0.4832
   94c3c     C2 1865   2.139   7.116   2.077 -0.2044 -0.0960  0.1849
   94c3c     C2 1866   2.031   7.015   2.119  0.1682  0.4135  0.2679
   94c3c     C1 1867   2.146   6.916   1.873 -0.4186  0.6780  0.1337
   94c3c     C1 1868   2.308   6.796   1.994 -0.5709  0.0340 -0.1256
   94c3c     H1 1869   2.325   7.077   1.972  1.5778  0.1773  1.0384
   94c3c     H1 1870   2.328   7.026   2.138  0.0264  0.3504  0.1839
   94c3c     H1 1871   2.028   6.803   2.081 -0.9554  0.3227  2.7204
   94c3c     H1 1872   2.150   6.857   2.198 -0.1546  1.4535  0.8917
   94c3c     HC 1873   2.114   7.174   1.988  0.2720  1.2586  0.9207
   94c3c     HC 1874   2.154   7.189   2.156 -1.1255 -1.9019  2.0568
   94c3c     HC 1875   1.942   7.016   2.055  0.7928  1.8436 -0.6023
   94c3c     HC 1876   2.004   7.022   2.224  0.0175  1.3602  0.1648
   94c3c     H1 1877   2.215   6.943   1.792  1.3230 -1.9543  0.6832
   94c3c     H1 1878   2.100   6.822   1.841  0.8232  0.4517 -1.0526
   94c3c     H1 1879   2.057   6.978   1.868 -1.2513 -0.6236 -1.8901
   94c3c     H1 1880   2.260   6.705   1.959 -1.1919  0.4336 -0.3302
   94c3c     H1 1881   2.378   6.821   1.914 -1.4374  2.6561 -0.1349
   94c3c     C2 1882   2.403   6.760   2.120  0.6629 -0.4868 -0.2129
   94c3c     HC 1883   2.345   6.712   2.199 -2.0232  0.3677 -1.6145
   94c3c     HC 1884   2.439   6.849   2.173 -0.5087 -0.5483  0.7000
   94c3c     CT 1885   2.527   6.675   2.092  0.2769 -0.1385 -0.0721
   94c3c     HC 1886   2.500   6.573   2.062  0.0689 -0.5118  1.3540
   94c3c     HC 1887   2.600   6.659   2.171  0.9072  1.6132 -0.2860
   94c3c     HC 1888   2.594   6.722   2.020  2.7672 -2.1606  0.8533
   95c3c     N4 1889   4.544   0.880   4.839  0.2397  0.3752  0.2867
   95c3c     C1 1890   4.438   0.818   4.758  0.0569 -0.5516 -0.3829
   95c3c     C1 1891   4.633   0.925   4.730 -0.5467 -0.5573  0.3433
   95c3c     C2 1892   4.411   0.928   4.650  0.7375  0.7403  0.1813
   95c3c     C2 1893   4.545   0.992   4.629 -0.1907 -0.1726 -0.2009
   95c3c     C1 1894   4.495   0.996   4.916  0.3592 -0.2944  0.1733
   95c3c     C1 1895   4.618   0.798   4.933 -0.4353 -0.5882 -0.8676
   95c3c     H1 1896   4.349   0.790   4.813  0.0306 -0.0264 -0.1538
   95c3c     H1 1897   4.468   0.722   4.716 -0.5931 -1.0856  0.3660
   95c3c     H1 1898   4.709   0.995   4.764 -0.2343 -0.8784  0.3184
   95c3c     H1 1899   4.698   0.849   4.684  1.0383  0.1279  1.3991
   95c3c     HC 1900   4.338   0.994   4.698  0.4502 -1.1951  2.5147
   95c3c     HC 1901   4.382   0.875   4.559  0.9204 -1.4331  1.3395
   95c3c     HC 1902   4.542   1.100   4.645  2.3516  0.1878 -1.8781
   95c3c     HC 1903   4.590   0.967   4.533  1.7020 -0.0133  0.6225
   95c3c     H1 1904   4.423   0.972   4.994 -0.3100  0.1443 -0.3051
   95c3c     H1 1905   4.579   1.043   4.968  1.5187 -2.7096  0.5742
   95c3c     H1 1906   4.452   1.080   4.862  0.1818 -1.0107 -0.8085
   95c3c     H1 1907   4.699   0.859   4.973 -0.6975 -1.2800  0.7204
   95c3c     H1 1908   4.557   0.776   5.020  2.7316 -0.9413  1.3159
   95c3c     C2 1909   4.658   0.660   4.880 -0.1038  0.0988 -0.4128
   95c3c     HC 1910   4.681   0.657   4.773  0.0161  0.2935 -0.3929
   95c3c     HC 1911   4.584   0.581   4.893 -0.5497  0.6211  0.2673
   95c3c     CT 1912   4.782   0.604   4.952 -0.2855  0.6140 -0.5015
   95c3c     HC 1913   4.765   0.608   5.060  0.7695  2.0272 -0.3753
   95c3c     HC 1914   4.865   0.670   4.927 -2.0205  2.3114 -1.9722
   95c3c     HC 1915   4.803   0.500   4.928 -0.9416  0.1036  1.0644
   96c3c     N4 1916   1.300   2.395   6.010 -0.1916  0.2105  0.2953
   96c3c     C1 1917   1.192   2.392   6.108 -0.2853 -0.1035 -0.1285
   96c3c     C1 1918   1.395   2.285   6.044 -0.1087 -0.8006 -0.5412
   96c3c     C2 1919   1.176   2.243   6.142 -0.5385 -0.8072 -0.2167
   96c3c     C2 1920   1.306   2.174   6.108 -0.5778 -0.3915  0.3915
   96c3c     C1 1921   1.235   2.361   5.880 -0.5098  0.6587 -0.5463
   96c3c     C1 1922   1.363   2.525   5.989  0.3194 -0.3070  0.6086
   96c3c     H1 1923   1.096   2.437   6.080 -0.7617  1.2878  3.5006
   96c3c     H1 1924   1.225   2.443   6.198 -1.6709  0.2148  0.2203
   96c3c     H1 1925   1.458   2.244   5.965 -0.3535 -1.1221 -0.5696
   96c3c     H1 1926   1.461   2.319   6.124  1.3137  0.9966 -2.4088
   96c3c     HC 1927   1.104   2.184   6.085 -0.1991  0.7207 -2.2765
   96c3c     HC 1928   1.151   2.227   6.247  0.2170  1.3606  0.3226
   96c3c     HC 1929   1.284   2.093   6.039  0.6534 -0.1836 -0.2646
   96c3c     HC 1930   1.353   2.128   6.195 -1.9007 -1.1227  0.7334
   96c3c     H1 1931   1.192   2.440   5.819  0.8159  1.2003 -0.8130
   96c3c     H1 1932   1.310   2.317   5.814  1.1725  0.5505  1.3814
   96c3c     H1 1933   1.155   2.290   5.895 -1.4003  1.8173  0.2740
   96c3c     H1 1934   1.426   2.526   5.900  0.0680 -1.4888  0.4184
   96c3c     H1 1935   1.292   2.608   5.978  1.4048  0.5084 -0.4752
   96c3c     C2 1936   1.444   2.580   6.106 -0.4028  0.0675  0.1480
   96c3c     HC 1937   1.540   2.529   6.107 -1.3553 -1.8785 -1.4127
   96c3c     HC 1938   1.390   2.578   6.201 -1.0745  2.6982 -0.1544
   96c3c     CT 1939   1.478   2.728   6.091  1.0750 -0.2894  0.2537
   96c3c     HC 1940   1.393   2.795   6.108 -0.4484 -2.3196  0.8181
   96c3c     HC 1941   1.519   2.744   5.991 -1.7067 -2.6655 -1.3265
   96c3c     HC 1942   1.551   2.765   6.164  0.7763 -0.4826  0.6508
   97c3c     N4 1943   2.468   5.166   2.771 -0.2069  0.4418  0.1804
   97c3c     C1 1944   2.394   5.042   2.810  0.2051  0.1420 -0.5535
   97c3c     C1 1945   2.600   5.116   2.729  0.5263  0.3371 -0.2982
   97c3c     C2 1946   2.429   4.948   2.694  0.3874  0.1532  0.1016
   97c3c     C2 1947   2.572   4.989   2.647  0.8995 -0.3359 -0.5126
   97c3c     C1 1948   2.406   5.227   2.652  0.6382  0.4467 -0.2576
   97c3c     C1 1949   2.482   5.274   2.872 -0.0985  0.3611 -0.2816
   97c3c     H1 1950   2.288   5.064   2.825  0.2258 -0.2679  0.2330
   97c3c     H1 1951   2.422   4.993   2.903 -0.0316 -0.2013 -0.6588
   97c3c     H1 1952   2.657   5.189   2.672  0.9641  0.4251  0.2563
   97c3c     H1 1953   2.663   5.092   2.815  0.1545  0.1591 -0.0741
   97c3c     HC 1954   2.352   4.957   2.617  0.9617 -0.7601 -0.5804
   97c3c     HC 1955   2.424   4.844   2.726 -0.8094 -0.3099 -1.4886
   97c3c     HC 1956   2.563   5.013   2.541  0.9457 -0.6363 -0.5839
   97c3c     HC 1957   2.645   4.910   2.661  0.5003 -0.7874 -0.9811
   97c3c     H1 1958   2.305   5.263   2.671  0.9637  1.4089 -0.3437
   97c3c     H1 1959   2.470   5.309   2.621  2.6416 -1.3527 -1.0041
   97c3c     H1 1960   2.397   5.168   2.561  0.0985  1.1272 -0.6490
   97c3c     H1 1961   2.549   5.345   2.824 -0.6495  0.7878 -0.4169
   97c3c     H1 1962   2.382   5.317   2.879 -0.0172  0.4713  0.2611
   97c3c     C2 1963   2.533   5.233   3.013  0.2705  0.3349 -0.9110
   97c3c     HC 1964   2.618   5.164   3.011  0.9183  1.1186 -0.6713
   97c3c     HC 1965   2.451   5.185   3.067  0.5297  0.4922 -0.3726
   97c3c     CT 1966   2.580   5.359   3.089  0.0544  0.2792 -0.8862
   97c3c     HC 1967   2.608   5.331   3.190  0.7294 -0.5022 -1.2756
   97c3c     HC 1968   2.499   5.432   3.090 -0.0668  0.1377  0.5050
   97c3c     HC 1969   2.670   5.401   3.043 -0.9247  1.6075 -1.6043
   98c3c     N4 1970   6.121   2.592   4.081  0.0852 -0.2819 -0.4306
   98c3c     C1 1971   6.247   2.528   4.035 -0.7203 -0.1019 -0.4646
   98c3c     C1 1972   6.170   2.648   4.210 -0.0436 -0.1250  0.1723
   98c3c     C2 1973   6.354   2.635   4.051 -0.2840 -0.2511  0.0229
   98c3c     C2 1974   6.307   2.710   4.176  0.3213 -0.0685 -0.1324
   98c3c     C1 1975   6.075   2.701   3.990  0.6393  0.8293 -0.6324
   98c3c     C1 1976   6.010   2.493   4.101 -0.2717  0.5290  0.3587
   98c3c     H1 1977   6.238   2.480   3.937 -0.5326  0.6358 -0.8448
   98c3c     H1 1978   6.266   2.445   4.103  0.2307 -0.0355 -0.6411
   98c3c     H1 1979   6.101   2.715   4.262 -0.3695 -0.9686  0.8507
   98c3c     H1 1980   6.192   2.573   4.286 -0.9544  0.1627  0.7303
   98c3c     HC 1981   6.357   2.704   3.967 -0.4179 -1.3871 -0.9290
   98c3c     HC 1982   6.452   2.589   4.052 -1.0318 -1.8678  0.2045
   98c3c     HC 1983   6.301   2.819   4.167  0.0614  0.0911  1.7082
   98c3c     HC 1984   6.380   2.691   4.255  0.9179  0.1559 -0.6296
   98c3c     H1 1985   6.048   2.662   3.891 -1.1374 -0.0111  0.1728
   98c3c     H1 1986   5.978   2.740   4.020  0.4290  0.1437 -0.4149
   98c3c     H1 1987   6.139   2.788   3.975  0.7346  0.9504  0.4347
   98c3c     H1 1988   5.920   2.538   4.144 -1.3578  0.5630 -1.8354
   98c3c     H1 1989   5.983   2.463   4.000  1.8385 -0.4972  0.0820
   98c3c     C2 1990   6.025   2.359   4.172 -0.0373  0.0319  0.5442
   98c3c     HC 1991   6.102   2.365   4.249  0.4382  0.3245  0.0500
   98c3c     HC 1992   6.065   2.288   4.100 -1.6741  0.3766 -0.7457
   98c3c     CT 1993   5.895   2.294   4.219  0.3174  0.0879 -0.1423
   98c3c     HC 1994   5.910   2.200   4.272  0.5213  1.7099  2.8091
   98c3c     HC 1995   5.825   2.277   4.138 -0.3773 -0.5651  0.5939
   98c3c     HC 1996   5.849   2.351   4.300 -1.5315 -2.0466  0.3306
   99c3c     N4 1997   6.199   1.300   2.156 -0.1595 -0.3092  0.4542
   99c3c     C1 1998   6.302   1.194   2.136 -0.0509  0.5109  0.6760
   99c3c     C1 1999   6.074   1.223   2.165 -0.5161 -0.2753  0.1909
   99c3c     C2 2000   6.241   1.087   2.045 -0.1054 -0.4199  0.9390
   99c3c     C2 2001   6.096   1.096   2.079 -0.0206  0.4212 -0.1327
   99c3c     C1 2002   6.225   1.372   2.282 -0.8668 -0.8582  0.6963
   99c3c     C1 2003   6.202   1.412   2.057 -0.0901 -0.5589  0.2955
   99c3c     H1 2004   6.323   1.146   2.232 -0.4911  0.4814  0.7591
   99c3c     H1 2005   6.397   1.236   2.101 -0.4090  0.8224  0.0767
   99c3c     H1 2006   6.068   1.194   2.270 -0.0243 -1.5331 -0.1100
   99c3c     H1 2007   5.987   1.279   2.131 -1.8128 -1.4686  1.4672
   99c3c     HC 2008   6.285   0.989   2.063 -0.7648 -0.6476  1.3548
   99c3c     HC 2009   6.250   1.113   1.940 -0.6178 -0.8671  0.7808
   99c3c     HC 2010   6.059   1.006   2.127 -0.8538  0.8443  0.0254
   99c3c     HC 2011   6.038   1.094   1.987 -0.3527  0.8706  0.0625
   99c3c     H1 2012   6.320   1.426   2.284 -0.8428 -0.8888  0.3733
   99c3c     H1 2013   6.147   1.446   2.300 -0.0660 -0.0369  0.8298
   99c3c     H1 2014   6.220   1.306   2.369 -1.8764 -1.4372  0.2114
   99c3c     H1 2015   6.130   1.488   2.084  0.5298  0.3294 -0.5202
   99c3c     H1 2016   6.300   1.459   2.069  0.4983 -1.8997  0.9936
   99c3c     C2 2017   6.178   1.378   1.908 -0.6776 -0.3501 -0.0968
   99c3c     HC 2018   6.093   1.311   1.895 -0.7504 -0.4148  0.7082
   99c3c     HC 2019   6.263   1.324   1.868 -0.6289  0.2230 -0.7771
   99c3c     CT 2020   6.162   1.505   1.826 -0.1655  0.0970  0.3834
   99c3c     HC 2021   6.244   1.574   1.843 -0.2536 -0.1040  1.6237
   99c3c     HC 2022   6.069   1.552   1.859  0.2898  0.7094  0.8096
   99c3c     HC 2023   6.161   1.481   1.719 -0.0497  0.4362  0.3071
  100c3c     N4 2024   2.988   3.969   1.475  1.0984 -0.2145 -0.2789
  100c3c     C1 2025   3.107   3.906   1.415  0.6446 -0.0566 -0.1242
  100c3c     C1 2026   2.913   4.022   1.360 -0.3689 -0.2651 -0.5222
  100c3c     C2 2027   3.055   3.844   1.285 -0.3703 -0.8108  0.5425
  100c3c     C2 2028   2.937   3.929   1.239  0.2930  0.3084 -0.1784
  100c3c     C1 2029   2.915   3.856   1.537  0.1463  0.1660  0.0869
  100c3c     C1 2030   3.019   4.067   1.582  0.6684 -0.3775 -0.2355
  100c3c     H1 2031   3.156   3.832   1.478  0.4435 -0.0524  0.0384
  100c3c     H1 2032   3.185   3.979   1.393  1.5543 -0.6336  1.1285
  100c3c     H1 2033   2.810   4.045   1.385 -0.0478 -1.1151  1.6683
  100c3c     H1 2034   2.954   4.119   1.332  0.1089 -0.2914  0.0871
  100c3c     HC 2035   3.012   3.745   1.300 -0.2456 -1.0276 -0.5463
  100c3c     HC 2036   3.134   3.834   1.211 -0.9362 -2.9880  0.2125
  100c3c     HC 2037   2.854   3.862   1.220  1.5436 -1.1838 -0.4647
  100c3c     HC 2038   2.958   3.975   1.142  1.5923  0.4248  0.1545
  100c3c     H1 2039   2.966   3.802   1.617  2.6813  0.3944 -1.3546
  100c3c     H1 2040   2.821   3.886   1.584  0.7549  0.4872  1.1317
  100c3c     H1 2041   2.881   3.782   1.465 -2.3763  1.6753 -0.3319
  100c3c     H1 2042   2.927   4.112   1.619  0.8266  0.0117 -0.3207
  100c3c     H1 2043   3.066   4.013   1.664 -0.9173 -1.1186  0.2187
  100c3c     C2 2044   3.120   4.178   1.543  0.2223 -0.2834  0.3510
  100c3c     HC 2045   3.081   4.244   1.466  2.2939 -0.0084 -0.5060
  100c3c     HC 2046   3.216   4.139   1.509 -0.2534  0.9576 -2.5143
  100c3c     CT 2047   3.153   4.257   1.670  0.6310 -0.5148  0.0929
  100c3c     HC 2048   3.250   4.301   1.650  0.4675 -0.5293 -0.7938
  100c3c     HC 2049   3.168   4.191   1.755  1.2336 -0.9570 -0.3516
  100c3c     HC 2050   3.079   4.332   1.699  1.9604  0.4200  1.1147
  101fsi    FSI 2051   4.894   2.420   4.451  0.7558 -0.2136  0.2944
  101fsi    SBT 2052   4.825   2.312   4.360  0.3860  0.0466  0.1469
  101fsi    NBT 2053   4.772   2.199   4.458  0.2827 -0.1703 -0.4866
  101fsi    OBT 2054   4.726   2.385   4.286  0.2324 -0.0385  0.0827
  101fsi    OBT 2055   4.928   2.257   4.280  0.2361  0.7965  0.3251
  101fsi    SBT 2056   4.625   2.170   4.506 -0.1583 -0.2056 -0.7366
  101fsi    OBT 2057   4.524   2.251   4.443 -0.5085  0.3250 -0.0384
  101fsi    OBT 2058   4.616   2.148   4.646 -1.1127 -0.0252 -0.4118
  101fsi    FSI 2059   4.598   2.027   4.448 -0.5211  0.6089 -0.5556
  102fsi    FSI 2060   0.392   2.687   0.303 -0.0832  0.7010  0.7522
  102fsi    SBT 2061   0.398   2.561   0.400  0.2699 -0.2635 -0.2137
  102fsi    NBT 2062   0.307   2.463   0.310 -0.1664 -0.4250  0.1904
  102fsi    OBT 2063   0.533   2.529   0.410  0.7397  0.5153 -0.2666
  102fsi    OBT 2064   0.337   2.623   0.518 -0.3399  0.3261  0.8970
  102fsi    SBT 2065   0.342   2.352   0.205 -0.0550 -0.1567  0.1709
  102fsi    OBT 2066   0.479   2.357   0.173 -0.0947  0.2073 -0.1697
  102fsi    OBT 2067   0.247   2.327   0.099 -0.9237  0.2299 -0.6223
  102fsi    FSI 2068   0.327   2.210   0.289 -1.4093 -0.0477  0.3129
  103fsi    FSI 2069   4.539   5.400   2.102  0.1378 -0.0517 -0.1429
  103fsi    SBT 2070   4.580   5.552   2.119 -0.2487 -0.0139 -0.2294
  103fsi    NBT 2071   4.471   5.618   2.210 -0.3617 -0.3532  0.1397
  103fsi    OBT 2072   4.705   5.541   2.182 -0.2515  0.2102 -0.2986
  103fsi    OBT 2073   4.589   5.604   1.983  0.2482  0.2561 -0.1230
  103fsi    SBT 2074   4.340   5.685   2.160  0.1856 -0.5251  0.0434
  103fsi    OBT 2075   4.284   5.623   2.044  0.7758 -0.5912 -0.0661
  103fsi    OBT 2076   4.342   5.828   2.170 -0.2531 -0.3919 -0.3140
  103fsi    FSI 2077   4.237   5.644   2.275 -0.1660  0.4268 -0.3150
  104fsi    FSI 2078   3.435   3.016   0.793  0.7475  0.5786  0.4371
  104fsi    SBT 2079   3.392   2.876   0.857 -0.0472  0.8013 -0.1592
  104fsi    NBT 2080   3.524   2.836   0.932  0.1381  0.6688  1.1189
  104fsi    OBT 2081   3.285   2.904   0.949 -0.1179 -0.5516  0.0840
  104fsi    OBT 2082   3.351   2.789   0.744  0.2238 -0.7583  0.3942
  104fsi    SBT 2083   3.576   2.849   1.077 -0.1823  0.6609 -0.2398
  104fsi    OBT 2084   3.533   2.962   1.156 -1.5170  0.2561  1.2817
  104fsi    OBT 2085   3.717   2.819   1.080 -0.2754  0.8850  0.0404
  104fsi    FSI 2086   3.502   2.729   1.157  0.1236 -0.3615 -0.0837
  105fsi    FSI 2087   2.480   1.726   3.724  0.1987  0.0435 -0.0032
  105fsi    SBT 2088   2.485   1.754   3.567  0.2050 -0.1642  0.0862
  105fsi    NBT 2089   2.444   1.902   3.566  0.4065 -0.5944  0.1353
  105fsi    OBT 2090   2.627   1.735   3.543  0.1524  0.6254  0.5258
  105fsi    OBT 2091   2.388   1.664   3.503 -0.1009 -0.2843 -0.2340
  105fsi    SBT 2092   2.304   1.964   3.566 -0.0735  0.0226 -0.0694
  105fsi    OBT 2093   2.306   2.104   3.603  0.3571  0.4809 -0.7332
  105fsi    OBT 2094   2.202   1.880   3.620 -0.0919 -0.5521 -0.2520
  105fsi    FSI 2095   2.271   1.968   3.411 -0.3353  0.2956 -0.1144
  106fsi    FSI 2096   1.548   4.355   1.538  0.7158 -0.0034 -0.4504
  106fsi    SBT 2097   1.534   4.477   1.434 -0.2094 -0.2373 -0.1069
  106fsi    NBT 2098   1.550   4.429   1.285 -0.8978  0.0361 -0.8755
  106fsi    OBT 2099   1.405   4.520   1.455  0.8579  0.2383  0.5336
  106fsi    OBT 2100   1.643   4.560   1.480 -0.3862  0.4366  0.0320
  106fsi    SBT 2101   1.617   4.509   1.162 -0.2482  0.3062 -0.1014
  106fsi    OBT 2102   1.559   4.640   1.152  0.5713 -0.5406  0.0335
  106fsi    OBT 2103   1.627   4.436   1.045  0.8562 -0.2829  0.0518
  106fsi    FSI 2104   1.765   4.538   1.185  0.1057 -0.8904 -0.5703
  107fsi    FSI 2105   6.482   4.989   5.826  0.1376 -0.7815  0.7948
  107fsi    SBT 2106   6.549   4.973   5.688 -0.5503 -0.2114 -0.0940
  107fsi    NBT 2107   6.707   5.002   5.712  0.6657  0.3332 -0.6799
  107fsi    OBT 2108   6.513   4.847   5.638 -0.1579  0.7346 -0.6489
  107fsi    OBT 2109   6.491   5.089   5.615 -0.0031  1.2081 -0.8056
  107fsi    SBT 2110   6.781   5.131   5.750 -0.4267 -0.1724  0.0267
  107fsi    OBT 2111   6.679   5.215   5.817 -0.1322  0.2557 -0.1822
  107fsi    OBT 2112   6.860   5.185   5.645 -0.5343 -0.1694 -0.9862
  107fsi    FSI 2113   6.886   5.101   5.871 -1.4238  0.3669  0.0282
  108fsi    FSI 2114   3.413   4.756   4.739 -0.4444  0.1001  0.1547
  108fsi    SBT 2115   3.267   4.725   4.682  0.0807 -0.0567 -0.2693
  108fsi    NBT 2116   3.178   4.795   4.786 -0.3724  0.2236  0.0482
  108fsi    OBT 2117   3.270   4.802   4.561 -0.4877  0.1044 -0.1139
  108fsi    OBT 2118   3.256   4.580   4.678 -0.3798  0.1541 -0.8567
  108fsi    SBT 2119   3.060   4.743   4.870 -0.0181  0.3024  0.1078
  108fsi    OBT 2120   2.968   4.657   4.801  0.1132  0.0357  0.8018
  108fsi    OBT 2121   2.998   4.851   4.945  0.2598 -0.1482 -0.3453
  108fsi    FSI 2122   3.130   4.655   4.973 -0.1226  0.5351 -0.5430
  109fsi    FSI 2123   2.324   6.391   1.924  0.0016 -0.2356  0.2480
  109fsi    SBT 2124   2.274   6.243   1.883 -0.1062 -0.0450  0.4199
  109fsi    NBT 2125   2.150   6.225   1.979  0.2557  0.3805  0.5305
  109fsi    OBT 2126   2.234   6.252   1.744 -0.1939 -0.3853  0.2710
  109fsi    OBT 2127   2.387   6.155   1.919 -0.2195 -0.2515 -0.0611
  109fsi    SBT 2128   2.000   6.238   1.942  0.6049  0.1367 -0.2974
  109fsi    OBT 2129   1.954   6.143   1.844  0.7941  0.1803 -0.0046
  109fsi    OBT 2130   1.958   6.380   1.935  0.0299 -0.1117  0.1450
  109fsi    FSI 2131   1.927   6.190   2.070 -0.1005  0.7741 -0.4811
  110fsi    FSI 2132   2.962   7.027   1.659  0.0939  0.2274  0.3996
  110fsi    SBT 2133   2.886   7.007   1.523 -0.1387  0.4792  0.1508
  110fsi    NBT 2134   2.795   7.137   1.507  0.2707  0.5030  0.2014
  110fsi    OBT 2135   2.989   7.013   1.425  0.0663 -1.0095  0.6613
  110fsi    OBT 2136   2.823   6.881   1.552  0.4015 -0.2083 -0.0338
  110fsi    SBT 2137   2.644   7.138   1.461 -0.8214 -0.2704  0.1459
  110fsi    OBT 2138   2.594   7.277   1.467 -0.4591  0.1990  0.2157
  110fsi    OBT 2139   2.574   7.030   1.530  0.2621 -0.0463 -0.2227
  110fsi    FSI 2140   2.647   7.114   1.306 -0.1756  0.3946 -0.1422
  111fsi    FSI 2141   4.016   2.240   4.257 -0.0213  0.4556  0.3767
  111fsi    SBT 2142   3.992   2.175   4.398  0.0273  0.3070  0.4917
  111fsi    NBT 2143   3.997   2.021   4.360 -0.5367 -0.5015  0.2543
  111fsi    OBT 2144   4.094   2.221   4.483 -0.2320  0.6043  0.3844
  111fsi    OBT 2145   3.866   2.216   4.433 -0.6069  1.0470 -0.0620
  111fsi    SBT 2146   4.110   1.949   4.277  0.1514  0.2177 -0.0452
  111fsi    OBT 2147   4.108   1.807   4.299 -0.2247 -0.2607  0.3451
  111fsi    OBT 2148   4.240   2.013   4.288 -0.0236 -0.4800 -0.6749
  111fsi    FSI 2149   4.056   1.962   4.128 -0.6030  0.3395 -0.1981
  112fsi    FSI 2150   5.576   6.520   2.726 -0.9746  0.1712  0.2207
  112fsi    SBT 2151   5.438   6.453   2.676 -0.1885  0.0050  0.4086
  112fsi    NBT 2152   5.437   6.490   2.519 -0.5819  0.9816 -0.3458
  112fsi    OBT 2153   5.447   6.314   2.704  0.3894 -0.3004  0.0490
  112fsi    OBT 2154   5.342   6.526   2.755  0.4387  0.5460  0.2369
  112fsi    SBT 2155   5.489   6.397   2.401 -0.5459  0.3434 -0.5997
  112fsi    OBT 2156   5.433   6.428   2.270 -0.9985 -0.0327 -0.0873
  112fsi    OBT 2157   5.480   6.250   2.425 -0.2651 -0.0247 -0.2827
  112fsi    FSI 2158   5.640   6.424   2.380 -0.6921  0.4833 -0.0018
  113fsi    FSI 2159   2.772   5.554   2.379 -0.4259 -0.8745 -0.3820
  113fsi    SBT 2160   2.676   5.667   2.331 -0.2432 -0.1192 -0.2067
  113fsi    NBT 2161   2.631   5.592   2.199  0.0424 -0.0013 -0.5286
  113fsi    OBT 2162   2.579   5.673   2.439 -0.4183 -0.4825 -0.4732
  113fsi    OBT 2163   2.767   5.778   2.307 -0.0435 -0.0837 -0.3039
  113fsi    SBT 2164   2.506   5.505   2.164 -0.3625  0.1803  0.1546
  113fsi    OBT 2165   2.492   5.499   2.020 -0.0502 -0.4908  0.1420
  113fsi    OBT 2166   2.389   5.533   2.238 -0.1739  0.7606 -0.0419
  113fsi    FSI 2167   2.544   5.356   2.207 -0.6530  0.2820 -0.2922
  114fsi    FSI 2168   0.798   2.328   1.813  0.4543 -0.9726 -0.7998
  114fsi    SBT 2169   0.751   2.478   1.784 -0.2063  0.0950  0.1449
  114fsi    NBT 2170   0.871   2.532   1.702  0.3073  0.2272 -0.5869
  114fsi    OBT 2171   0.633   2.469   1.702 -0.4712  0.1183 -0.2719
  114fsi    OBT 2172   0.730   2.533   1.915  0.4908 -0.2113  0.2846
  114fsi    SBT 2173   1.003   2.590   1.760 -0.2019 -0.2043 -0.0070
  114fsi    OBT 2174   1.108   2.589   1.661  0.6903 -0.6080  0.1774
  114fsi    OBT 2175   1.044   2.549   1.894  0.2100  0.2397  0.1900
  114fsi    FSI 2176   0.972   2.740   1.767 -0.5740  0.3371  0.4969
  115fsi    FSI 2177   5.246   6.550   5.690  0.5412  0.1114  0.1506
  115fsi    SBT 2178   5.329   6.427   5.727 -0.2777 -0.2650 -0.1144
  115fsi    NBT 2179   5.270   6.376   5.865 -0.4078  0.3176 -0.1388
  115fsi    OBT 2180   5.287   6.342   5.617  0.4115  0.0595 -0.5965
  115fsi    OBT 2181   5.460   6.483   5.716  0.2205 -0.4824 -0.5953
  115fsi    SBT 2182   5.335   6.404   6.005  0.2229  0.1503 -0.5028
  115fsi    OBT 2183   5.250   6.451   6.108  0.0798 -0.7493  0.8528
  115fsi    OBT 2184   5.468   6.456   5.993 -0.1111 -0.1148  0.2619
  115fsi    FSI 2185   5.353   6.260   6.059  0.2692 -0.9481  0.2130
  116fsi    FSI 2186   3.603   3.802   1.555  0.4730 -0.8465 -0.1028
  116fsi    SBT 2187   3.622   3.923   1.455 -0.1266 -0.1156 -0.2489
  116fsi    NBT 2188   3.675   3.848   1.328 -0.1798 -0.4278  0.0020
  116fsi    OBT 2189   3.491   3.975   1.436 -0.1836 -0.3933 -0.2547
  116fsi    OBT 2190   3.716   4.016   1.510 -0.3830 -0.4256 -0.2678
  116fsi    SBT 2191   3.630   3.852   1.179  0.0929  0.2850 -0.3864
  116fsi    OBT 2192   3.716   3.763   1.107  0.2912  0.1395 -0.1245
  116fsi    OBT 2193   3.604   3.977   1.117  0.3391  0.2886 -0.0463
  116fsi    FSI 2194   3.489   3.782   1.171 -0.0266  0.2518 -0.5902
  117fsi    FSI 2195   3.134   0.393   1.506  0.3312  0.6395 -0.1633
  117fsi    SBT 2196   3.094   0.246   1.503  0.0033  0.1608  0.5975
  117fsi    NBT 2197   3.099   0.200   1.659 -1.0999 -0.0861 -0.3437
  117fsi    OBT 2198   2.954   0.245   1.450  0.1617 -0.0890 -0.2963
  117fsi    OBT 2199   3.198   0.187   1.425 -0.6518 -0.3149  0.3877
  117fsi    SBT 2200   2.995   0.197   1.774 -0.1852  0.0565 -0.0595
  117fsi    OBT 2201   2.993   0.085   1.863 -0.5295  0.7833  0.5685
  117fsi    OBT 2202   2.864   0.244   1.731 -0.7901  0.2490 -0.7083
  117fsi    FSI 2203   3.046   0.315   1.869  0.2733 -0.0573 -0.8100
  118fsi    FSI 2204   1.763   2.256   3.447  0.0423  0.2073  0.0214
  118fsi    SBT 2205   1.767   2.157   3.331 -0.1694 -0.3148 -0.1590
  118fsi    NBT 2206   1.889   2.209   3.243  0.1403  0.0067  0.1096
  118fsi    OBT 2207   1.794   2.037   3.402  0.1571  0.0527  0.2057
  118fsi    OBT 2208   1.639   2.175   3.263  0.3768 -0.1259  0.2203
  118fsi    SBT 2209   1.961   2.137   3.120  0.2426 -0.1088 -0.1173
  118fsi    OBT 2210   1.968   2.211   2.996  0.5252 -0.2220 -0.1613
  118fsi    OBT 2211   1.915   2.001   3.101 -0.5642 -0.0558 -0.7869
  118fsi    FSI 2212   2.108   2.110   3.170  0.1521 -0.4756 -0.3486
  119fsi    FSI 2213   5.009   1.388   3.969 -0.3377 -0.8301  0.2928
  119fsi    SBT 2214   5.084   1.314   4.096 -0.2247  0.5320 -0.3369
  119fsi    NBT 2215   5.208   1.406   4.113  0.5318  1.0480 -0.5537
  119fsi    OBT 2216   4.983   1.323   4.195  0.4508  0.5096  0.0115
  119fsi    OBT 2217   5.118   1.182   4.054 -0.1030 -0.1650 -0.0118
  119fsi    SBT 2218   5.236   1.512   4.226 -0.4706  0.5429 -0.1023
  119fsi    OBT 2219   5.123   1.521   4.314 -0.4705 -0.1752 -0.3624
  119fsi    OBT 2220   5.301   1.628   4.191  0.8871  0.4077  0.2972
  119fsi    FSI 2221   5.343   1.447   4.318 -0.6470  0.3726 -0.5879
  120fsi    FSI 2222   4.356   6.246   0.794 -0.1641  0.0620 -0.7120
  120fsi    SBT 2223   4.482   6.334   0.748 -0.3324  0.1783  0.1656
  120fsi    NBT 2224   4.501   6.435   0.860  0.9513 -1.2437 -0.4299
  120fsi    OBT 2225   4.590   6.239   0.732  0.2278 -0.1023 -0.3185
  120fsi    OBT 2226   4.442   6.414   0.641 -0.3552 -0.2706  0.1788
  120fsi    SBT 2227   4.589   6.425   0.986  0.3003  0.5046  0.1988
  120fsi    OBT 2228   4.582   6.534   1.082 -0.1940  0.4043 -0.3288
  120fsi    OBT 2229   4.717   6.376   0.956 -0.0644 -0.1983  0.3097
  120fsi    FSI 2230   4.526   6.300   1.058  0.0833  0.5051  1.0398
  121fsi    FSI 2231   5.152   6.624   1.324 -0.7625  0.2501  0.9891
  121fsi    SBT 2232   5.048   6.732   1.277  0.0686  0.1547  0.4239
  121fsi    NBT 2233   5.099   6.760   1.128  0.7737  0.1077  0.5680
  121fsi    OBT 2234   4.926   6.661   1.281 -0.1853  0.2574  0.1234
  121fsi    OBT 2235   5.060   6.847   1.370 -0.5162  0.9292  0.4450
  121fsi    SBT 2236   5.216   6.862   1.086 -0.5593  0.0576  0.8193
  121fsi    OBT 2237   5.185   6.981   1.013 -0.3270 -0.1954  0.9804
  121fsi    OBT 2238   5.325   6.792   1.025 -1.0178 -0.3999  0.6240
  121fsi    FSI 2239   5.267   6.917   1.218  0.2166 -1.2605 -0.0126
  122fsi    FSI 2240   5.059   1.858   1.491  0.3237  0.6026 -1.2346
  122fsi    SBT 2241   5.056   1.720   1.561 -0.2496  0.2577 -0.2967
  122fsi    NBT 2242   4.954   1.742   1.682  0.1677 -0.1440 -0.0965
  122fsi    OBT 2243   5.006   1.629   1.462 -0.2281  0.2965  0.1088
  122fsi    OBT 2244   5.193   1.697   1.599 -0.1397  0.4500 -0.5253
  122fsi    SBT 2245   4.921   1.650   1.806  0.0870  0.0205  0.0069
  122fsi    OBT 2246   4.986   1.520   1.810  0.2205 -0.8344 -0.3562
  122fsi    OBT 2247   4.778   1.655   1.834  0.0771  0.4730  0.0580
  122fsi    FSI 2248   4.992   1.732   1.922  0.0396  0.4230 -0.1936
  123fsi    FSI 2249   4.589   0.781   5.325  0.2954 -0.3771 -1.0080
  123fsi    SBT 2250   4.559   0.927   5.376 -0.1916 -0.3612 -0.0364
  123fsi    NBT 2251   4.701   0.983   5.414  0.5068 -0.0826  0.1963
  123fsi    OBT 2252   4.494   0.991   5.262 -0.0051 -0.1439  0.0470
  123fsi    OBT 2253   4.477   0.899   5.490 -0.7223 -0.4693 -0.1111
  123fsi    SBT 2254   4.764   1.119   5.375 -0.4590  0.1948 -0.1657
  123fsi    OBT 2255   4.876   1.149   5.462  0.3346 -0.8874 -0.3375
  123fsi    OBT 2256   4.673   1.225   5.343  0.0862  0.2470 -0.0921
  123fsi    FSI 2257   4.832   1.090   5.241 -0.2802 -0.4484 -0.0119
  124fsi    FSI 2258   4.885   1.020   1.468  0.2697  0.1951 -0.7389
  124fsi    SBT 2259   4.794   0.976   1.351 -0.3268  0.0553 -0.0839
  124fsi    NBT 2260   4.719   1.108   1.323  0.2726  0.0879 -0.4930
  124fsi    OBT 2261   4.893   0.932   1.256 -0.5607  0.1065 -0.6082
  124fsi    OBT 2262   4.713   0.872   1.411  0.3182  0.0261  0.1007
  124fsi    SBT 2263   4.719   1.196   1.188  0.2675 -0.3420  0.0750
  124fsi    OBT 2264   4.840   1.194   1.114 -0.2551 -0.9721 -0.3216
  124fsi    OBT 2265   4.642   1.318   1.206  0.1771  0.0342  0.2099
  124fsi    FSI 2266   4.614   1.110   1.106  0.0613 -0.2646  0.2064
  125fsi    FSI 2267   6.880   3.092   2.647  0.4096 -0.0104  0.2865
  125fsi    SBT 2268   6.906   3.234   2.586  0.0142 -0.3107 -0.5260
  125fsi    NBT 2269   6.797   3.320   2.654 -0.3077 -0.2471  0.0872
  125fsi    OBT 2270   7.039   3.270   2.625  0.4196  0.0954 -0.1801
  125fsi    OBT 2271   6.878   3.217   2.449  0.0463  0.1389 -0.3055
  125fsi    SBT 2272   6.807   3.445   2.748 -0.1705  0.0402  0.2642
  125fsi    OBT 2273   6.706   3.538   2.715  0.6706  0.6403 -0.1668
  125fsi    OBT 2274   6.940   3.489   2.778 -0.1231 -0.5538  0.1431
  125fsi    FSI 2275   6.752   3.388   2.882 -0.2375  0.0713  0.4829
  126fsi    FSI 2276   0.222   2.708   1.749  0.0899  0.4137 -0.6386
  126fsi    SBT 2277   0.369   2.648   1.755 -0.5328 -0.1478  0.0486
  126fsi    NBT 2278   0.451   2.749   1.663  0.7395  0.5024  0.3169
  126fsi    OBT 2279   0.400   2.659   1.894  0.2172 -0.1015 -0.2547
  126fsi    OBT 2280   0.353   2.517   1.697 -0.7269 -0.1738  0.1035
  126fsi    SBT 2281   0.545   2.872   1.710  0.4283  0.1116  0.3069
  126fsi    OBT 2282   0.688   2.841   1.700  0.5306  0.8711  0.8718
  126fsi    OBT 2283   0.495   2.942   1.822  0.1706 -0.5648  0.8843
  126fsi    FSI 2284   0.516   2.973   1.594 -0.0147 -0.8336 -0.6904
  127fsi    FSI 2285   6.949   3.153   5.774  0.1445  0.0691 -0.7426
  127fsi    SBT 2286   6.893   3.022   5.843  0.1166  0.0431  0.0174
  127fsi    NBT 2287   6.746   3.065   5.866  0.2401  0.3996 -0.5297
  127fsi    OBT 2288   6.913   2.923   5.737  0.3281  0.0271  0.0920
  127fsi    OBT 2289   6.970   3.008   5.963  0.8755  0.4809  0.0195
  127fsi    SBT 2290   6.645   3.031   5.983  0.5756  0.1323 -0.2991
  127fsi    OBT 2291   6.583   3.146   6.046  0.1157 -0.5014  0.8317
  127fsi    OBT 2292   6.678   2.926   6.073  0.5556  0.7815 -0.6582
  127fsi    FSI 2293   6.527   2.966   5.901  0.7924 -0.4888 -0.5882
  128fsi    FSI 2294   2.149   1.011   3.197  0.0861 -0.2512  0.5549
  128fsi    SBT 2295   2.288   1.056   3.159  0.0387  0.2379  0.4519
  128fsi    NBT 2296   2.261   1.154   3.042  0.1260  0.3697  0.2642
  128fsi    OBT 2297   2.342   1.107   3.284 -0.1854 -0.6358  0.9540
  128fsi    OBT 2298   2.339   0.936   3.103 -0.0747 -0.0178 -0.0372
  128fsi    SBT 2299   2.180   1.288   3.050  0.1295  0.2413  0.4331
  128fsi    OBT 2300   2.263   1.402   3.034 -0.7537  0.1890 -0.0959
  128fsi    OBT 2301   2.081   1.285   3.154 -0.9715  0.2902  0.1325
  128fsi    FSI 2302   2.099   1.287   2.915  0.3011 -0.5501  0.5364
  129fsi    FSI 2303   0.297   2.331   1.444  0.4759 -0.6851 -0.2955
  129fsi    SBT 2304   0.387   2.396   1.331 -0.2237  0.0653 -0.0935
  129fsi    NBT 2305   0.497   2.284   1.328 -0.6007  0.1496 -0.3338
  129fsi    OBT 2306   0.299   2.397   1.217  0.3258 -0.4237  0.1592
  129fsi    OBT 2307   0.423   2.521   1.389 -0.1509  0.4067 -0.0810
  129fsi    SBT 2308   0.652   2.300   1.361 -0.3018 -0.3088 -0.3286
  129fsi    OBT 2309   0.703   2.434   1.388 -0.3170 -0.2431 -1.1097
  129fsi    OBT 2310   0.723   2.217   1.273 -0.1852 -0.9589 -0.4986
  129fsi    FSI 2311   0.672   2.224   1.502  0.1772 -0.2800  0.3309
  130fsi    FSI 2312   2.636   7.212   1.849  0.0901 -0.2969 -0.3412
  130fsi    SBT 2313   2.620   7.084   1.929  0.1140 -0.5816  0.1293
  130fsi    NBT 2314   2.767   7.038   1.924  1.1130 -0.5162  0.1605
  130fsi    OBT 2315   2.566   7.129   2.053  0.5776 -0.2168 -0.0817
  130fsi    OBT 2316   2.532   7.004   1.850  0.0199 -0.2487  0.1299
  130fsi    SBT 2317   2.867   7.016   2.041  0.0086  0.0266 -0.1176
  130fsi    OBT 2318   2.993   6.959   2.009  0.7944 -0.0729  0.3936
  130fsi    OBT 2319   2.814   6.955   2.159 -0.4252 -0.4747  0.5417
  130fsi    FSI 2320   2.906   7.160   2.080 -0.0437 -0.0683 -1.1181
  131fsi    FSI 2321   6.858   2.848   2.333 -0.1847  0.1095  0.2476
  131fsi    SBT 2322   7.016   2.825   2.337 -0.1712 -1.0323  0.1171
  131fsi    NBT 2323   7.068   2.879   2.474  0.3536 -0.2081  0.0815
  131fsi    OBT 2324   7.032   2.683   2.317  0.0013 -1.3517  0.1821
  131fsi    OBT 2325   7.072   2.909   2.238 -0.1155 -0.2681  0.7253
  131fsi    SBT 2326   7.191   2.825   2.559 -0.1042 -0.1825 -0.0413
  131fsi    OBT 2327   7.236   2.925   2.649 -0.1824 -0.5644  0.0971
  131fsi    OBT 2328   7.283   2.748   2.480  0.0192  0.0502  0.0491
  131fsi    FSI 2329   7.123   2.719   2.665  0.2776 -0.2023 -0.2932
  132fsi    FSI 2330   2.919   2.439   5.511 -0.2397 -0.3662 -0.5301
  132fsi    SBT 2331   2.805   2.455   5.406 -0.5330 -0.1674 -0.0274
  132fsi    NBT 2332   2.797   2.611   5.385 -0.0500 -0.1290  0.0615
  132fsi    OBT 2333   2.850   2.378   5.294  0.2553  0.4168  0.4685
  132fsi    OBT 2334   2.692   2.399   5.474 -0.7798 -0.3268 -0.1342
  132fsi    SBT 2335   2.779   2.686   5.251 -0.4848 -0.2658  0.2732
  132fsi    OBT 2336   2.650   2.748   5.251 -0.1103 -0.0402 -0.0171
  132fsi    OBT 2337   2.820   2.608   5.136 -0.1848 -0.2488  0.3529
  132fsi    FSI 2338   2.888   2.799   5.270  0.0740 -0.5645  0.0330
  133fsi    FSI 2339   4.485   6.596   5.408  0.5579  0.1217 -0.2451
  133fsi    SBT 2340   4.604   6.499   5.426  0.3457 -0.4815  0.1509
  133fsi    NBT 2341   4.531   6.362   5.432  0.1676 -0.4796  0.2279
  133fsi    OBT 2342   4.676   6.515   5.302  0.1785  0.2217  0.2564
  133fsi    OBT 2343   4.671   6.544   5.545  0.1648  0.2958 -0.1655
  133fsi    SBT 2344   4.477   6.279   5.553  0.5667 -0.0477  0.0303
  133fsi    OBT 2345   4.477   6.338   5.682  0.0916 -0.3645 -0.5601
  133fsi    OBT 2346   4.523   6.142   5.545  0.4447 -0.0339 -0.2494
  133fsi    FSI 2347   4.324   6.266   5.516 -0.3184 -0.8469 -0.0182
  134fsi    FSI 2348   5.206   6.702   4.857 -0.5220  0.0652 -0.3585
  134fsi    SBT 2349   5.239   6.852   4.813  0.4726 -0.0477  0.0798
  134fsi    NBT 2350   5.099   6.893   4.746  0.2724 -0.6529 -0.0095
  134fsi    OBT 2351   5.267   6.923   4.937  0.5302  0.2141  0.1800
  134fsi    OBT 2352   5.348   6.829   4.726 -0.0665  0.0448 -0.1603
  134fsi    SBT 2353   5.037   6.857   4.607 -0.0487 -0.2517 -0.1680
  134fsi    OBT 2354   4.989   6.721   4.588  0.1975 -0.1078  0.4910
  134fsi    OBT 2355   5.110   6.914   4.500 -0.5323 -0.0032  0.1439
  134fsi    FSI 2356   4.909   6.945   4.615  0.1427  0.4174  0.0519
  135fsi    FSI 2357   3.656   1.541   4.300  0.7966 -0.0829  0.4183
  135fsi    SBT 2358   3.631   1.680   4.234 -0.5611  0.4611 -0.2241
  135fsi    NBT 2359   3.539   1.751   4.343  0.4772 -0.3381  0.6387
  135fsi    OBT 2360   3.765   1.726   4.215  0.3077  0.9040 -1.0528
  135fsi    OBT 2361   3.557   1.642   4.116 -0.1262 -1.3293  0.0422
  135fsi    SBT 2362   3.591   1.853   4.457  0.3351  0.4153  0.2342
  135fsi    OBT 2363   3.729   1.832   4.495  0.2270 -0.3322  0.3037
  135fsi    OBT 2364   3.491   1.876   4.556  0.7532  0.7405 -0.0118
  135fsi    FSI 2365   3.594   1.984   4.381  0.6024  0.4588  0.1133
  136fsi    FSI 2366   2.715   4.501   1.617  0.4981 -0.1674 -0.3085
  136fsi    SBT 2367   2.697   4.421   1.471  0.1683 -0.4590  0.0280
  136fsi    NBT 2368   2.559   4.471   1.415  0.0764  0.2724 -0.0833
  136fsi    OBT 2369   2.807   4.454   1.390  0.0943 -0.5417 -0.8596
  136fsi    OBT 2370   2.692   4.282   1.504  1.0135  0.0428 -0.5231
  136fsi    SBT 2371   2.508   4.617   1.391 -0.2540  0.2202 -0.0291
  136fsi    OBT 2372   2.558   4.714   1.484 -0.0006  0.1591  0.6226
  136fsi    OBT 2373   2.369   4.617   1.370  0.1419 -0.1151 -0.5188
  136fsi    FSI 2374   2.570   4.650   1.249 -0.4225  0.3996 -0.1429
  137fsi    FSI 2375   5.556   5.978   4.760 -0.2139 -0.2694 -0.0426
  137fsi    SBT 2376   5.433   6.060   4.824 -0.1797  0.0134  0.1105
  137fsi    NBT 2377   5.342   5.944   4.884 -0.3385 -0.0355  0.2258
  137fsi    OBT 2378   5.489   6.148   4.921 -0.7878  0.2809 -0.1817
  137fsi    OBT 2379   5.372   6.124   4.709 -0.6375 -0.1199  0.2467
  137fsi    SBT 2380   5.329   5.901   5.036 -0.4915  0.1689  0.1057
  137fsi    OBT 2381   5.249   5.988   5.120 -0.4959  0.5971  0.0630
  137fsi    OBT 2382   5.453   5.848   5.088 -0.1570  0.0580  0.1237
  137fsi    FSI 2383   5.237   5.778   5.015 -0.6059  0.2377 -0.1974
  138fsi    FSI 2384   1.755   7.194   6.343 -0.7880 -0.2164 -0.3381
  138fsi    SBT 2385   1.710   7.108   6.220 -0.1509  0.4077 -0.0156
  138fsi    NBT 2386   1.555   7.147   6.207 -0.1408  0.3587  0.1998
  138fsi    OBT 2387   1.804   7.160   6.114  0.4731 -1.1061  0.3553
  138fsi    OBT 2388   1.726   6.974   6.278  0.6927 -0.0239 -0.5933
  138fsi    SBT 2389   1.487   7.188   6.079  0.5718 -0.2630  0.6997
  138fsi    OBT 2390   1.569   7.197   5.951 -0.7069  0.4031  0.0864
  138fsi    OBT 2391   1.403   7.297   6.104  1.0308 -0.0181 -0.2082
  138fsi    FSI 2392   1.387   7.074   6.068 -0.0084 -0.4918 -0.8074
  139fsi    FSI 2393   0.688   0.406   4.127  0.1801  0.2787 -0.3996
  139fsi    SBT 2394   0.614   0.474   4.249  0.5041  0.3580 -0.2121
  139fsi    NBT 2395   0.504   0.550   4.174 -0.2394  0.5947 -0.0117
  139fsi    OBT 2396   0.562   0.364   4.329  0.4096 -0.0503 -0.5751
  139fsi    OBT 2397   0.716   0.555   4.314  0.4590 -0.0923  0.3266
  139fsi    SBT 2398   0.504   0.680   4.089 -0.3724  0.2375 -0.0392
  139fsi    OBT 2399   0.634   0.731   4.065 -0.1860  0.8048  0.7633
  139fsi    OBT 2400   0.401   0.772   4.125 -0.4996  0.0998 -0.3957
  139fsi    FSI 2401   0.458   0.623   3.949 -0.0089  0.5996 -0.0618
  140fsi    FSI 2402   4.349   0.081   5.311  0.5110  0.5216 -0.0951
  140fsi    SBT 2403   4.431   0.117   5.186  0.7617  0.1720 -0.0947
  140fsi    NBT 2404   4.579   0.126   5.251  0.4325  0.5131 -0.0243
  140fsi    OBT 2405   4.417   0.001   5.102  0.5638  0.0440  0.2071
  140fsi    OBT 2406   4.378   0.242   5.140  0.4705  0.8879  0.4253
  140fsi    SBT 2407   4.700   0.221   5.225  0.3327  0.5266  0.0791
  140fsi    OBT 2408   4.691   0.309   5.114  0.3151  0.6528 -0.1857
  140fsi    OBT 2409   4.832   0.158   5.241 -0.0217  0.2032 -0.1486
  140fsi    FSI 2410   4.687   0.310   5.346  0.9602  0.6970  0.2315
  141fsi    FSI 2411   4.997   0.993   0.661 -0.3624  0.7054  0.0266
  141fsi    SBT 2412   5.106   1.066   0.745  0.0734  0.1376  0.0053
  141fsi    NBT 2413   5.247   1.027   0.679 -0.4417  0.6267 -0.6304
  141fsi    OBT 2414   5.062   1.202   0.731  0.4499  0.0632  1.0074
  141fsi    OBT 2415   5.084   1.005   0.872  0.1160  0.0526  0.1685
  141fsi    SBT 2416   5.352   0.916   0.739  0.0777  0.0308 -0.1714
  141fsi    OBT 2417   5.365   0.912   0.886  0.3132 -0.0114  0.0368
  141fsi    OBT 2418   5.477   0.919   0.672 -0.4865  1.2268 -0.2166
  141fsi    FSI 2419   5.287   0.778   0.705  0.7886 -0.3230  0.2665
  142fsi    FSI 2420   4.608   1.414   4.900  1.0232 -0.0815  0.6310
  142fsi    SBT 2421   4.530   1.486   5.018  0.0689 -0.1317 -0.1073
  142fsi    NBT 2422   4.381   1.472   4.966  0.9715  0.0624 -0.2493
  142fsi    OBT 2423   4.560   1.398   5.126 -0.5074  0.1964 -0.1480
  142fsi    OBT 2424   4.586   1.621   5.017  0.0943  0.1336  0.4365
  142fsi    SBT 2425   4.287   1.350   4.965  0.2439 -0.3548  0.0871
  142fsi    OBT 2426   4.310   1.266   5.081 -0.3593  0.7079 -0.1558
  142fsi    OBT 2427   4.261   1.277   4.842 -0.4024 -0.4676  0.4556
  142fsi    FSI 2428   4.144   1.421   4.994  0.7994  0.2091 -0.3273
  143fsi    FSI 2429   1.057   2.016   3.865 -0.1820 -0.0707 -0.2066
  143fsi    SBT 2430   0.990   1.878   3.902 -0.5461 -0.1795 -0.0458
  143fsi    NBT 2431   0.863   1.943   3.973 -0.0665  0.0851 -0.1788
  143fsi    OBT 2432   0.970   1.817   3.773  0.7368 -0.2128  0.0149
  143fsi    OBT 2433   1.081   1.809   3.994 -0.5320  0.3504  0.0630
  143fsi    SBT 2434   0.713   1.901   3.957 -0.0474  0.1386  0.2514
  143fsi    OBT 2435   0.630   1.960   4.058  0.2799  0.8559  0.2295
  143fsi    OBT 2436   0.699   1.761   3.942  0.3262  0.1428  0.6349
  143fsi    FSI 2437   0.664   1.963   3.819  0.2878 -0.1593  0.2346
  144fsi    FSI 2438   0.262   2.986   0.988 -0.0938  0.3012 -0.4684
  144fsi    SBT 2439   0.323   2.876   0.893  0.6699 -0.2352 -0.0436
  144fsi    NBT 2440   0.405   2.954   0.783  1.2206 -0.1316  0.0401
  144fsi    OBT 2441   0.402   2.798   0.983  0.4566  0.3908  0.0258
  144fsi    OBT 2442   0.214   2.813   0.824 -0.0523 -0.4036  0.0412
  144fsi    SBT 2443   0.555   3.002   0.782 -0.0571 -0.1109 -0.6006
  144fsi    OBT 2444   0.613   2.979   0.652 -0.0712 -0.3680 -0.5578
  144fsi    OBT 2445   0.632   2.966   0.900  0.6632  0.3542 -0.1660
  144fsi    FSI 2446   0.532   3.159   0.781  0.7412  0.5835  0.1758
  145fsi    FSI 2447   2.130   2.466   4.848  0.8154 -0.3964  0.0860
  145fsi    SBT 2448   2.076   2.336   4.775 -0.2922 -0.1886  0.0471
  145fsi    NBT 2449   2.120   2.218   4.862 -0.2397 -0.0777 -0.4127
  145fsi    OBT 2450   1.935   2.353   4.767 -0.1073  0.5432 -0.0035
  145fsi    OBT 2451   2.148   2.337   4.652 -0.6429  0.2444  0.0804
  145fsi    SBT 2452   2.045   2.151   4.981 -0.3323  0.3192  0.1386
  145fsi    OBT 2453   1.953   2.237   5.046  0.1698  0.3736 -0.0348
  145fsi    OBT 2454   2.137   2.076   5.063  0.0429  0.3952 -0.6896
  145fsi    FSI 2455   1.956   2.037   4.921 -0.1502  0.2801  0.1974
  146fsi    FSI 2456   4.331   4.902   6.187  0.4794 -0.2120 -0.5756
  146fsi    SBT 2457   4.349   4.745   6.237 -0.2319 -0.0002 -0.0461
  146fsi    NBT 2458   4.503   4.720   6.228 -0.2932 -0.3323  0.0448
  146fsi    OBT 2459   4.289   4.751   6.369  0.0487 -0.0109  0.0231
  146fsi    OBT 2460   4.280   4.667   6.139 -0.4352  0.1294 -0.1599
  146fsi    SBT 2461   4.598   4.701   6.349  0.1795  0.6280  0.1795
  146fsi    OBT 2462   4.728   4.653   6.308  0.2217  0.2857 -0.4988
  146fsi    OBT 2463   4.539   4.634   6.465  0.0508  0.4890  0.2444
  146fsi    FSI 2464   4.626   4.854   6.394 -0.0027  0.5604 -0.4649
  147fsi    FSI 2465   4.940   0.133   2.493  0.1121  0.0602  0.1098
  147fsi    SBT 2466   4.945  -0.010   2.424 -0.0524 -0.3674 -0.3197
  147fsi    NBT 2467   4.801  -0.036   2.372 -0.4249 -0.0450 -0.5823
  147fsi    OBT 2468   5.038   0.005   2.316  0.3122  0.0947  0.0293
  147fsi    OBT 2469   4.989  -0.101   2.525  0.5102  0.3887 -0.2343
  147fsi    SBT 2470   4.690  -0.139   2.419 -0.0783 -0.3125  0.0769
  147fsi    OBT 2471   4.727  -0.232   2.522 -0.3665 -0.2166  0.4473
  147fsi    OBT 2472   4.627  -0.201   2.307  0.1597  0.0775 -0.2902
  147fsi    FSI 2473   4.581  -0.054   2.489 -0.4185 -0.3732 -0.2359
  148fsi    FSI 2474   1.638   1.336   4.572  0.6269 -0.5093  0.1077
  148fsi    SBT 2475   1.685   1.479   4.618 -0.2873  0.4590  0.3171
  148fsi    NBT 2476   1.567   1.572   4.576 -0.1094  0.2174  0.6234
  148fsi    OBT 2477   1.691   1.467   4.758  0.5850 -0.0612  0.0192
  148fsi    OBT 2478   1.805   1.505   4.544 -0.5806  0.0045 -0.1992
  148fsi    SBT 2479   1.569   1.680   4.463 -0.0618  0.1622 -0.1024
  148fsi    OBT 2480   1.548   1.629   4.329 -0.0128 -0.1689  0.2448
  148fsi    OBT 2481   1.661   1.791   4.485 -0.1323  0.2021 -0.8348
  148fsi    FSI 2482   1.431   1.743   4.494 -1.0280  0.3819  0.4971
  149fsi    FSI 2483   4.839   5.806   5.711  0.7287  0.4044 -0.2020
  149fsi    SBT 2484   4.764   5.667   5.713  0.6848 -0.2342  0.2716
  149fsi    NBT 2485   4.852   5.584   5.608  0.4537 -0.1048 -0.0718
  149fsi    OBT 2486   4.783   5.619   5.847  0.7378  0.4268  0.4121
  149fsi    OBT 2487   4.632   5.699   5.670  0.5833  0.9092  0.7265
  149fsi    SBT 2488   4.822   5.510   5.472  0.1018  0.2490 -0.1734
  149fsi    OBT 2489   4.714   5.566   5.398 -0.1792  0.5404  0.7335
  149fsi    OBT 2490   4.828   5.370   5.483  0.3474  0.1118 -0.5219
  149fsi    FSI 2491   4.940   5.542   5.375 -0.2966  0.5207 -0.0853
  150fsi    FSI 2492   2.292   1.466   3.953  0.1310  0.1384  0.0437
  150fsi    SBT 2493   2.192   1.573   3.970  0.0528  0.1841  0.0345
  150fsi    NBT 2494   2.084   1.500   4.063  0.0211 -0.0503 -0.2233
  150fsi    OBT 2495   2.257   1.676   4.044 -0.0032  0.2045 -0.2818
  150fsi    OBT 2496   2.163   1.601   3.835 -0.3769  0.2885  0.1520
  150fsi    SBT 2497   1.935   1.466   4.032 -0.0061 -0.5380 -0.3862
  150fsi    OBT 2498   1.882   1.353   4.108  0.1422  0.2092 -0.1790
  150fsi    OBT 2499   1.896   1.465   3.895 -0.0230 -0.0665 -0.3074
  150fsi    FSI 2500   1.857   1.594   4.086 -0.3638 -0.0226 -0.0941
  151fsi    FSI 2501   6.765   3.452   5.743  0.0823  0.3109 -0.2530
  151fsi    SBT 2502   6.736   3.586   5.680 -0.1389  0.6367  0.4422
  151fsi    NBT 2503   6.626   3.636   5.782 -0.3420 -0.0318  0.5778
  151fsi    OBT 2504   6.867   3.650   5.675 -0.2865  0.3863  0.2636
  151fsi    OBT 2505   6.682   3.544   5.553  0.6169  0.4543  0.0439
  151fsi    SBT 2506   6.637   3.712   5.921  0.2334  0.3437 -0.2933
  151fsi    OBT 2507   6.770   3.745   5.963  0.1131 -0.4436  0.2368
  151fsi    OBT 2508   6.554   3.650   6.022  0.1808 -0.7350  0.4168
  151fsi    FSI 2509   6.569   3.848   5.894 -0.1469 -0.0100  0.1523
  152fsi    FSI 2510   3.165   4.247   7.229 -0.0103 -0.2970  0.4819
  152fsi    SBT 2511   3.157   4.162   7.354  0.5189 -0.1920  0.2296
  152fsi    NBT 2512   3.213   4.264   7.470 -0.0760  0.3081 -0.3762
  152fsi    OBT 2513   3.020   4.137   7.375 -0.3251 -1.5922  0.0201
  152fsi    OBT 2514   3.246   4.053   7.325  0.2727 -0.6503  0.0959
  152fsi    SBT 2515   3.346   4.351   7.489 -0.3914 -0.0906 -0.0317
  152fsi    OBT 2516   3.470   4.295   7.427 -0.6237  0.3119 -0.5908
  152fsi    OBT 2517   3.365   4.408   7.625  0.7219 -0.6989 -0.0463
  152fsi    FSI 2518   3.318   4.480   7.395  0.3959  0.1742  0.4561
  153fsi    FSI 2519   4.951   1.398   4.748  0.7271  0.4612  0.0006
  153fsi    SBT 2520   4.890   1.252   4.716 -0.1294 -0.0578 -0.0210
  153fsi    NBT 2521   4.744   1.282   4.667 -1.5774  0.0273  0.5486
  153fsi    OBT 2522   4.968   1.210   4.601 -0.0314  0.1176  0.5823
  153fsi    OBT 2523   4.904   1.174   4.835 -0.0521  0.1036 -0.4817
  153fsi    SBT 2524   4.699   1.350   4.537 -0.4524 -0.1143 -0.0264
  153fsi    OBT 2525   4.589   1.288   4.469  0.4351 -0.0748 -0.0493
  153fsi    OBT 2526   4.818   1.395   4.467  0.3274 -0.0158  0.1224
  153fsi    FSI 2527   4.637   1.485   4.591 -0.2587  0.3317  0.5533
  154fsi    FSI 2528   2.450   2.348   4.198  1.0613 -0.5996 -0.3276
  154fsi    SBT 2529   2.383   2.288   4.325 -0.2097 -0.8418 -0.1813
  154fsi    NBT 2530   2.475   2.178   4.379 -0.1335  0.1598 -0.1349
  154fsi    OBT 2531   2.365   2.407   4.406  0.1301 -0.0641 -0.3136
  154fsi    OBT 2532   2.261   2.230   4.271  0.3082 -0.3142 -0.0975
  154fsi    SBT 2533   2.593   2.184   4.481 -0.1870  0.3461 -0.0304
  154fsi    OBT 2534   2.604   2.064   4.563 -0.0320  0.5016 -0.1563
  154fsi    OBT 2535   2.621   2.314   4.534 -0.4372  0.4542 -0.0861
  154fsi    FSI 2536   2.715   2.163   4.389  0.4219 -0.1625  0.5322
  155fsi    FSI 2537   7.162   4.251   5.198  0.0324  0.3622 -0.1887
  155fsi    SBT 2538   7.060   4.349   5.269  0.0468  0.1901  0.1169
  155fsi    NBT 2539   6.944   4.361   5.166  0.0127 -0.2251 -0.0700
  155fsi    OBT 2540   7.029   4.276   5.388 -0.3725 -0.2387  0.1755
  155fsi    OBT 2541   7.140   4.467   5.286 -0.2339  0.3485  0.1200
  155fsi    SBT 2542   6.791   4.333   5.179  0.2028 -0.0636  0.1671
  155fsi    OBT 2543   6.733   4.296   5.306 -0.1538  0.4393  0.3247
  155fsi    OBT 2544   6.737   4.261   5.068 -0.2680 -0.4569  0.1532
  155fsi    FSI 2545   6.737   4.476   5.157  0.6244 -0.0633  0.1983
  156fsi    FSI 2546   1.974   4.830   1.109 -0.1484 -0.8709  0.2134
  156fsi    SBT 2547   1.925   4.884   1.254 -0.2087  0.2872 -0.7176
  156fsi    NBT 2548   1.854   5.025   1.237  1.1330  0.0094  0.0901
  156fsi    OBT 2549   1.846   4.785   1.306 -0.1534  0.1082 -0.1669
  156fsi    OBT 2550   2.053   4.908   1.319  0.5942 -0.6596  0.2101
  156fsi    SBT 2551   1.704   5.056   1.205 -0.1921  0.7355  0.1586
  156fsi    OBT 2552   1.678   5.196   1.210  0.4887  0.0518  0.4019
  156fsi    OBT 2553   1.605   4.972   1.272  1.1206 -0.4180 -0.0377
  156fsi    FSI 2554   1.686   5.014   1.051  0.3429 -0.4150  0.2631
  157fsi    FSI 2555   0.426   3.315   2.546 -0.1275  0.1326  0.1194
  157fsi    SBT 2556   0.501   3.442   2.499  0.2868  0.0426 -0.3060
  157fsi    NBT 2557   0.395   3.553   2.550  0.3578  0.1157  0.2826
  157fsi    OBT 2558   0.622   3.429   2.578 -0.3532  0.0333  0.3974
  157fsi    OBT 2559   0.501   3.416   2.357  0.1242  0.0816  0.2041
  157fsi    SBT 2560   0.340   3.684   2.476 -0.1606 -0.1282  0.0908
  157fsi    OBT 2561   0.211   3.725   2.529 -0.4236 -0.2465  0.1563
  157fsi    OBT 2562   0.356   3.680   2.334  0.2911  0.4566  0.2981
  157fsi    FSI 2563   0.433   3.795   2.527  0.4473 -0.5428  0.0373
  158fsi    FSI 2564   2.682   6.519   1.465  0.4312  0.4751  0.1121
  158fsi    SBT 2565   2.623   6.464   1.608 -0.1043  0.1778 -0.0335
  158fsi    NBT 2566   2.753   6.448   1.696 -0.1030 -0.1511  0.6267
  158fsi    OBT 2567   2.548   6.577   1.656 -0.2901 -0.1283  0.5855
  158fsi    OBT 2568   2.549   6.337   1.585  0.0305  0.1356 -0.1915
  158fsi    SBT 2569   2.841   6.549   1.777  0.1827  0.2465  0.2191
  158fsi    OBT 2570   2.773   6.670   1.789 -0.5328  0.2061  0.3799
  158fsi    OBT 2571   2.982   6.562   1.741 -0.2920 -0.0584  0.7475
  158fsi    FSI 2572   2.853   6.477   1.918 -0.5204 -0.0010  0.1955
  159fsi    FSI 2573   1.255   0.772   5.486  0.5515  0.4379 -0.4589
  159fsi    SBT 2574   1.411   0.755   5.532  0.2876  0.1124 -0.6095
  159fsi    NBT 2575   1.483   0.688   5.414 -1.1095  0.6110 -0.9356
  159fsi    OBT 2576   1.439   0.897   5.546 -0.0499  0.3518  0.9789
  159fsi    OBT 2577   1.404   0.672   5.646  0.4910  0.4616  0.3506
  159fsi    SBT 2578   1.495   0.742   5.266  0.1480  1.0494  0.4569
  159fsi    OBT 2579   1.374   0.785   5.201  0.3180  0.7840  1.6458
  159fsi    OBT 2580   1.569   0.653   5.183 -0.0313  0.9762  0.2692
  159fsi    FSI 2581   1.594   0.862   5.280 -0.4372 -0.4686 -0.9934
  160fsi    FSI 2582   5.386   1.535   1.361  0.6305 -0.0114  0.1838
  160fsi    SBT 2583   5.423   1.520   1.208 -0.1237 -0.6704  0.0840
  160fsi    NBT 2584   5.310   1.429   1.153 -0.2590 -0.0052 -0.2984
  160fsi    OBT 2585   5.412   1.654   1.156 -0.0378 -0.2271  0.0583
  160fsi    OBT 2586   5.552   1.461   1.201  0.3102 -0.3322  0.1917
  160fsi    SBT 2587   5.293   1.274   1.158  0.0243 -0.1950  0.0344
  160fsi    OBT 2588   5.159   1.236   1.118  0.1225  0.0353 -0.6583
  160fsi    OBT 2589   5.355   1.218   1.275 -0.1640 -0.5660 -0.3098
  160fsi    FSI 2590   5.373   1.222   1.036 -0.0281 -0.2991 -0.0186
  161fsi    FSI 2591   2.458   3.680   1.000 -0.2106 -0.2627 -0.3325
  161fsi    SBT 2592   2.587   3.756   1.039  0.0391 -0.2673 -0.2076
  161fsi    NBT 2593   2.672   3.735   0.916  0.3889  0.3167  0.0631
  161fsi    OBT 2594   2.539   3.890   1.062 -0.6163  0.1385 -0.4675
  161fsi    OBT 2595   2.623   3.678   1.154  0.1519  0.2641  0.3961
  161fsi    SBT 2596   2.774   3.616   0.883 -0.2191 -0.4329 -0.2360
  161fsi    OBT 2597   2.854   3.571   0.992  0.1361  0.0723 -0.1527
  161fsi    OBT 2598   2.845   3.639   0.759 -0.3787 -0.0248  0.0992
  161fsi    FSI 2599   2.686   3.484   0.847  0.1448 -0.6992 -0.6478
  162fsi    FSI 2600   2.902   1.771   4.491 -0.3677  0.2441  0.3053
  162fsi    SBT 2601   2.962   1.626   4.509 -0.6681  0.4136 -0.0348
  162fsi    NBT 2602   2.835   1.544   4.541  0.1755  0.2704  0.6528
  162fsi    OBT 2603   3.025   1.584   4.386  1.0030 -0.4589  0.1642
  162fsi    OBT 2604   3.040   1.648   4.627 -0.7182  0.3963  0.5624
  162fsi    SBT 2605   2.740   1.455   4.457 -0.1030 -0.5422 -0.0083
  162fsi    OBT 2606   2.649   1.372   4.531 -0.7983  0.0868  0.1865
  162fsi    OBT 2607   2.820   1.392   4.358  0.3388 -0.3191 -0.9225
  162fsi    FSI 2608   2.644   1.544   4.368 -0.3414 -1.1503  0.4973
  163fsi    FSI 2609   4.745   3.877   1.074  0.0266 -0.0288  0.0307
  163fsi    SBT 2610   4.620   3.949   1.150  0.1616 -0.1216  0.0764
  163fsi    NBT 2611   4.690   4.073   1.219  0.1808 -0.2582  0.0841
  163fsi    OBT 2612   4.524   3.988   1.048 -0.0104 -0.2555  0.3217
  163fsi    OBT 2613   4.581   3.845   1.241 -0.1672  0.2804  0.6011
  163fsi    SBT 2614   4.710   4.099   1.366 -0.1861 -0.0699 -0.0094
  163fsi    OBT 2615   4.579   4.098   1.424 -0.4001  0.4742  0.4579
  163fsi    OBT 2616   4.806   4.200   1.407 -0.6308 -0.2554 -0.3178
  163fsi    FSI 2617   4.780   3.963   1.416 -0.0348 -0.3881  0.5047
  164fsi    FSI 2618   0.383   4.291   1.176 -0.0280 -0.2798 -0.0167
  164fsi    SBT 2619   0.541   4.279   1.205 -0.0114  0.1875  0.0372
  164fsi    NBT 2620   0.597   4.265   1.058 -0.1853  0.0191 -0.0166
  164fsi    OBT 2621   0.573   4.408   1.259  0.4372 -0.0108 -0.4857
  164fsi    OBT 2622   0.556   4.165   1.291  0.6227  0.2954 -0.4033
  164fsi    SBT 2623   0.668   4.144   0.984  0.0381 -0.2846  0.3675
  164fsi    OBT 2624   0.647   4.018   1.048  0.1169 -0.0586 -0.3175
  164fsi    OBT 2625   0.797   4.177   0.927 -0.1563  0.1093  0.2444
  164fsi    FSI 2626   0.577   4.129   0.856 -0.4139 -0.5167  0.2543
  165fsi    FSI 2627   6.057   1.551   2.748 -0.0764 -0.0040  0.0285
  165fsi    SBT 2628   6.082   1.535   2.594 -0.3119 -0.0655  0.1881
  165fsi    NBT 2629   5.934   1.518   2.536 -0.2692  0.4646 -0.1900
  165fsi    OBT 2630   6.141   1.658   2.552  0.0129  0.0234  0.4227
  165fsi    OBT 2631   6.165   1.418   2.588 -0.4284 -0.5026  0.2056
  165fsi    SBT 2632   5.846   1.393   2.511 -0.3614  0.1953  0.1072
  165fsi    OBT 2633   5.877   1.281   2.593 -0.5958  0.1235 -0.2910
  165fsi    OBT 2634   5.827   1.366   2.369 -0.1813  0.0280  0.0170
  165fsi    FSI 2635   5.703   1.438   2.562 -0.2976 -0.2766  0.2738
  166fsi    FSI 2636   5.684   3.616   3.464 -0.3768 -1.6093 -0.1459
  166fsi    SBT 2637   5.704   3.629   3.618  0.2340 -0.2843  0.1633
  166fsi    NBT 2638   5.861   3.611   3.625  0.4814 -0.2254  0.5477
  166fsi    OBT 2639   5.651   3.759   3.645 -0.3274 -0.2088  0.5126
  166fsi    OBT 2640   5.628   3.518   3.670  0.6577 -0.4549 -0.1315
  166fsi    SBT 2641   5.973   3.713   3.676  0.4533  0.1225  0.4345
  166fsi    OBT 2642   6.073   3.645   3.753  0.5345 -0.1987  0.4808
  166fsi    OBT 2643   5.926   3.837   3.731  0.1622 -0.3531  0.7663
  166fsi    FSI 2644   6.052   3.758   3.548  0.0976  0.8363  0.5608
  167fsi    FSI 2645   6.686   2.630   4.574 -0.0499 -0.3043  0.3699
  167fsi    SBT 2646   6.567   2.634   4.470  0.0156  0.2909  0.0083
  167fsi    NBT 2647   6.534   2.787   4.467 -0.3314  0.0527  0.2426
  167fsi    OBT 2648   6.626   2.589   4.348 -0.2433 -0.2833 -0.2954
  167fsi    OBT 2649   6.469   2.552   4.537  0.2405 -0.3618 -0.0987
  167fsi    SBT 2650   6.620   2.903   4.407  0.4046  0.0144 -0.1102
  167fsi    OBT 2651   6.761   2.879   4.416  0.4324  0.2190  0.5569
  167fsi    OBT 2652   6.574   3.031   4.452  0.5308 -0.1428 -0.1750
  167fsi    FSI 2653   6.582   2.900   4.253  0.5088  0.1177  0.0001
  168fsi    FSI 2654   1.980   0.943   6.523 -0.2988 -0.6218  0.3640
  168fsi    SBT 2655   1.849   0.864   6.557 -0.1848  0.0489 -0.3833
  168fsi    NBT 2656   1.899   0.711   6.561  0.4881 -0.6855 -0.2635
  168fsi    OBT 2657   1.818   0.914   6.688  0.4146 -0.1799 -0.7747
  168fsi    OBT 2658   1.762   0.909   6.455 -0.5592  0.8510 -0.2057
  168fsi    SBT 2659   1.977   0.642   6.673 -0.3533  0.2922 -0.2173
  168fsi    OBT 2660   2.009   0.738   6.774 -0.8681 -0.0547 -0.0115
  168fsi    OBT 2661   2.082   0.561   6.619  0.8006  0.1453 -0.1768
  168fsi    FSI 2662   1.867   0.542   6.731 -0.7421  0.4393 -0.6145
  169fsi    FSI 2663   1.618   1.112   2.414  0.2857  0.7770 -0.1735
  169fsi    SBT 2664   1.563   1.214   2.518  0.0818  0.0635 -0.1357
  169fsi    NBT 2665   1.680   1.225   2.620 -0.3362 -0.3131 -0.0027
  169fsi    OBT 2666   1.537   1.336   2.445  0.3494 -0.1436  0.0638
  169fsi    OBT 2667   1.454   1.144   2.574 -0.2777  0.3087 -0.2404
  169fsi    SBT 2668   1.791   1.333   2.629 -0.2696  0.4679 -0.0701
  169fsi    OBT 2669   1.790   1.392   2.762 -0.9118 -0.0449  0.0584
  169fsi    OBT 2670   1.803   1.430   2.523 -0.4058  0.7317  0.2710
  169fsi    FSI 2671   1.919   1.243   2.626 -0.2104  0.3844  0.4987
  170fsi    FSI 2672   5.193   0.843   1.626 -0.0373  0.4533  0.1925
  170fsi    SBT 2673   5.311   0.772   1.547 -0.5834  0.2028 -0.1869
  170fsi    NBT 2674   5.339   0.855   1.414  0.2146  0.1602  0.2281
  170fsi    OBT 2675   5.438   0.775   1.628 -0.5569 -1.3293 -0.4370
  170fsi    OBT 2676   5.249   0.641   1.532 -0.3571  0.4270  0.2107
  170fsi    SBT 2677   5.304   0.822   1.263 -0.0699 -0.0379  0.2189
  170fsi    OBT 2678   5.245   0.927   1.186 -0.4250 -0.4270 -0.0981
  170fsi    OBT 2679   5.247   0.696   1.237  1.3362 -0.1337  0.5333
  170fsi    FSI 2680   5.449   0.822   1.194  0.7684 -0.8995  0.3759
  171fsi    FSI 2681   6.285   0.915   1.479 -0.0830 -1.2410 -0.2484
  171fsi    SBT 2682   6.251   0.998   1.352  0.0548 -0.1556 -0.0282
  171fsi    NBT 2683   6.290   1.138   1.405  0.0382 -0.5330  0.6361
  171fsi    OBT 2684   6.340   0.944   1.252  0.9772  0.3266  0.2328
  171fsi    OBT 2685   6.110   0.981   1.330  0.4217 -0.3951 -0.6166
  171fsi    SBT 2686   6.207   1.222   1.508 -0.0382  0.0022  0.5865
  171fsi    OBT 2687   6.129   1.146   1.600 -0.0533 -0.1995  0.5469
  171fsi    OBT 2688   6.142   1.335   1.449 -0.2401 -0.3047  0.5906
  171fsi    FSI 2689   6.314   1.284   1.598  0.4633  0.8505 -0.3105
  172fsi    FSI 2690   2.910   1.750   4.098 -0.2342  0.1568  0.8021
  172fsi    SBT 2691   3.055   1.774   4.063 -0.0532 -0.1741  0.4508
  172fsi    NBT 2692   3.077   1.910   4.143 -0.0750  0.3269  0.0424
  172fsi    OBT 2693   3.123   1.661   4.121 -0.4731  0.6958 -0.3875
  172fsi    OBT 2694   3.049   1.792   3.923  0.2171 -0.0690  0.2718
  172fsi    SBT 2695   3.198   1.918   4.234 -0.1967 -0.9617  0.7121
  172fsi    OBT 2696   3.316   1.876   4.165 -0.1491  0.9225  0.3566
  172fsi    OBT 2697   3.171   1.874   4.372 -0.1374  0.0582  0.0423
  172fsi    FSI 2698   3.226   2.073   4.265 -0.0011 -0.4372  0.2489
  173fsi    FSI 2699   5.114   5.931   2.778 -0.2637  0.1395 -0.0743
  173fsi    SBT 2700   5.107   5.967   2.632  0.3200  0.5807  0.6641
  173fsi    NBT 2701   5.009   6.092   2.624 -0.5248  0.0997 -0.0012
  173fsi    OBT 2702   5.243   6.002   2.612  0.8626  0.8633 -0.7382
  173fsi    OBT 2703   5.072   5.845   2.561  0.9462  0.2846 -0.4841
  173fsi    SBT 2704   5.040   6.245   2.587 -0.3481 -0.1677 -0.0726
  173fsi    OBT 2705   4.945   6.308   2.500 -0.0712 -0.6631 -0.1748
  173fsi    OBT 2706   5.184   6.264   2.565  0.4001 -0.7106 -0.0493
  173fsi    FSI 2707   5.004   6.318   2.726  0.0335 -0.4861  0.7473
  174fsi    FSI 2708   1.745   2.136   5.279 -0.3678  0.3436  0.1053
  174fsi    SBT 2709   1.702   2.271   5.337  0.2699  0.0472  0.1134
  174fsi    NBT 2710   1.701   2.241   5.492  0.5818  0.6437 -0.0301
  174fsi    OBT 2711   1.805   2.362   5.296  0.3603 -0.0312 -0.8284
  174fsi    OBT 2712   1.574   2.286   5.277  0.5163  0.2240  0.0491
  174fsi    SBT 2713   1.597   2.276   5.605  0.1947  0.4641  0.1300
  174fsi    OBT 2714   1.507   2.386   5.581 -0.3559  0.1710  0.2685
  174fsi    OBT 2715   1.656   2.271   5.737  0.5677 -0.4006  0.3963
  174fsi    FSI 2716   1.497   2.154   5.608  0.7768  0.4963  0.0997
  175fsi    FSI 2717   0.949   1.206   4.663 -0.0935  0.0947  0.5423
  175fsi    SBT 2718   0.902   1.340   4.731 -0.2591 -0.0807 -0.2312
  175fsi    NBT 2719   0.761   1.361   4.669  0.2133 -0.5091  0.2216
  175fsi    OBT 2720   0.904   1.318   4.874  0.4132  0.7891 -0.4625
  175fsi    OBT 2721   0.997   1.437   4.677  0.3453 -0.4089 -0.9692
  175fsi    SBT 2722   0.618   1.321   4.716 -0.0115  0.4147  0.1723
  175fsi    OBT 2723   0.611   1.211   4.809  0.0095  0.2672  0.7410
  175fsi    OBT 2724   0.533   1.328   4.602 -0.4478  0.0335  0.1264
  175fsi    FSI 2725   0.570   1.444   4.796  0.0979  0.4510  0.1132
  176fsi    FSI 2726   5.312   1.500   6.280  0.9943 -0.0828  0.2274
  176fsi    SBT 2727   5.444   1.581   6.317 -0.0422  0.1975 -0.3252
  176fsi    NBT 2728   5.545   1.455   6.334 -1.8633 -0.6973  0.3296
  176fsi    OBT 2729   5.474   1.669   6.207  0.7902 -0.6443  0.6958
  176fsi    OBT 2730   5.419   1.650   6.440  0.1195 -0.7258  0.1377
  176fsi    SBT 2731   5.584   1.364   6.450 -0.4430 -0.7191  0.0043
  176fsi    OBT 2732   5.518   1.405   6.568 -0.2128 -0.2417 -0.5840
  176fsi    OBT 2733   5.726   1.335   6.453  0.6914  0.5517 -1.0746
  176fsi    FSI 2734   5.526   1.235   6.400  0.2038  0.1341 -1.3831
  177fsi    FSI 2735   4.562   6.364   1.509  0.0481 -0.2709 -0.6183
  177fsi    SBT 2736   4.660   6.271   1.429  0.2859  0.1510  0.1665
  177fsi    NBT 2737   4.803   6.276   1.507 -0.2060  0.1210  0.3002
  177fsi    OBT 2738   4.596   6.141   1.429  0.1655  0.0073  0.0047
  177fsi    OBT 2739   4.665   6.336   1.301  0.2625 -0.9257 -0.1211
  177fsi    SBT 2740   4.849   6.208   1.642  0.0299  0.4550 -0.2737
  177fsi    OBT 2741   4.940   6.102   1.629 -0.1441  1.2415  0.1150
  177fsi    OBT 2742   4.741   6.196   1.733 -0.4081 -0.2664 -0.4829
  177fsi    FSI 2743   4.940   6.317   1.702 -0.2162  0.4764  0.2054
  178fsi    FSI 2744   6.267   3.220   3.931 -0.4076 -0.1796  0.0611
  178fsi    SBT 2745   6.330   3.125   4.036  0.0909 -0.3831  0.2015
  178fsi    NBT 2746   6.207   3.049   4.099 -0.2827 -0.7440  0.6201
  178fsi    OBT 2747   6.406   3.036   3.954  0.1239 -0.1402  0.0705
  178fsi    OBT 2748   6.400   3.212   4.126 -0.3247 -0.0406 -0.0328
  178fsi    SBT 2749   6.126   3.095   4.229 -0.0409 -0.2198  0.0277
  178fsi    OBT 2750   5.994   3.035   4.241 -0.2456  0.2546  0.4772
  178fsi    OBT 2751   6.132   3.236   4.256  0.6564 -0.4666  0.8864
  178fsi    FSI 2752   6.205   3.028   4.348 -0.1667  0.4107  0.3934
  179fsi    FSI 2753   2.602   4.898   4.094 -0.0092 -0.0014 -0.0017
  179fsi    SBT 2754   2.453   4.859   4.054  0.1600  0.0728 -0.0101
  179fsi    NBT 2755   2.413   4.752   4.163  0.1807  0.1468 -0.4659
  179fsi    OBT 2756   2.368   4.975   4.067 -0.1320 -0.1155  0.4348
  179fsi    OBT 2757   2.464   4.804   3.923  0.2739 -0.1845 -0.0119
  179fsi    SBT 2758   2.341   4.780   4.301  0.2064 -0.4284 -0.0692
  179fsi    OBT 2759   2.369   4.909   4.360 -0.6488 -0.4427  0.1004
  179fsi    OBT 2760   2.350   4.674   4.397 -0.6316  0.2408 -0.5625
  179fsi    FSI 2761   2.183   4.790   4.270  0.5509 -0.4790 -0.2301
  180fsi    FSI 2762   1.244   1.242   3.444 -0.2173 -1.0268 -0.2316
  180fsi    SBT 2763   1.340   1.260   3.327  0.1635 -0.2706  0.1507
  180fsi    NBT 2764   1.467   1.183   3.379 -0.5792 -0.4950  0.4431
  180fsi    OBT 2765   1.274   1.187   3.223  0.1020 -0.8920  0.7140
  180fsi    OBT 2766   1.355   1.405   3.325  0.6608  0.3623 -0.1909
  180fsi    SBT 2767   1.604   1.238   3.437  0.1785 -0.3371 -0.1868
  180fsi    OBT 2768   1.698   1.135   3.481  0.6658 -0.9595  1.0769
  180fsi    OBT 2769   1.589   1.351   3.525 -0.1960 -0.2377 -0.2116
  180fsi    FSI 2770   1.683   1.296   3.313 -0.2483  0.0665 -0.0699
  181fsi    FSI 2771   1.840   0.426   5.831  0.6786 -0.7133  0.3602
  181fsi    SBT 2772   1.699   0.380   5.846  0.1666 -0.3682 -0.3641
  181fsi    NBT 2773   1.653   0.335   5.696 -0.4922 -0.5768 -0.5218
  181fsi    OBT 2774   1.717   0.277   5.951 -0.2422  0.0857 -1.1084
  181fsi    OBT 2775   1.621   0.496   5.879 -0.1363 -0.6152  0.0604
  181fsi    SBT 2776   1.638   0.183   5.659  0.2341 -0.0475  0.6864
  181fsi    OBT 2777   1.737   0.090   5.707 -0.1205  0.6800  0.3489
  181fsi    OBT 2778   1.584   0.167   5.526 -0.6582  0.4664 -0.0002
  181fsi    FSI 2779   1.513   0.161   5.741  0.2192  0.2590  0.3067
  182fsi    FSI 2780   2.519   5.802   1.364 -0.0585 -0.0615  0.1191
  182fsi    SBT 2781   2.396   5.711   1.330 -0.3381  0.2238 -0.4293
  182fsi    NBT 2782   2.359   5.649   1.475 -0.2809  0.1640 -0.0271
  182fsi    OBT 2783   2.294   5.805   1.292 -0.1048  0.1603 -0.3950
  182fsi    OBT 2784   2.435   5.619   1.227  0.2045 -0.9996  0.4361
  182fsi    SBT 2785   2.432   5.574   1.592 -0.0810 -0.0546  0.2181
  182fsi    OBT 2786   2.341   5.508   1.682 -0.4708  0.4621  0.2467
  182fsi    OBT 2787   2.537   5.644   1.653 -0.4830  0.3198  0.4846
  182fsi    FSI 2788   2.508   5.456   1.526  0.2692  0.2226  0.9685
  183fsi    FSI 2789   4.360   4.073   6.934 -0.6756 -0.2898  0.0942
  183fsi    SBT 2790   4.410   4.063   6.784 -0.2191  0.2424  0.2021
  183fsi    NBT 2791   4.275   4.089   6.710 -0.3915 -0.0110 -0.4871
  183fsi    OBT 2792   4.504   4.169   6.768 -0.1165 -0.1864  0.3714
  183fsi    OBT 2793   4.464   3.929   6.774  0.1701  0.1842  0.6043
  183fsi    SBT 2794   4.186   4.220   6.697 -0.1548  0.1034 -0.1145
  183fsi    OBT 2795   4.068   4.193   6.621  0.1939 -0.7838  0.0917
  183fsi    OBT 2796   4.264   4.336   6.668  0.1871 -0.0634 -0.6213
  183fsi    FSI 2797   4.132   4.245   6.845  0.1489  0.0120  0.3395
  184fsi    FSI 2798   5.988   6.834   0.709 -0.8024  0.8799 -0.2264
  184fsi    SBT 2799   6.107   6.769   0.788 -0.0407 -0.8377  0.6009
  184fsi    NBT 2800   6.042   6.741   0.928 -0.4811 -0.3054 -0.4685
  184fsi    OBT 2801   6.118   6.641   0.716  0.5035 -0.2421  0.0845
  184fsi    OBT 2802   6.215   6.860   0.793 -0.2922 -0.2448 -0.6095
  184fsi    SBT 2803   6.037   6.619   1.034 -0.2853 -0.7554  0.0285
  184fsi    OBT 2804   6.146   6.520   1.017 -0.5139 -0.4418  0.1266
  184fsi    OBT 2805   5.913   6.553   1.057  0.4608 -0.5514  0.1259
  184fsi    FSI 2806   6.069   6.701   1.166 -0.6628  0.2072 -0.5376
  185fsi    FSI 2807   6.375   3.455   5.048  0.1335  0.0390  0.3254
  185fsi    SBT 2808   6.470   3.556   4.977 -0.5049  0.1947  0.0436
  185fsi    NBT 2809   6.543   3.473   4.865 -0.3772 -0.8282  0.3349
  185fsi    OBT 2810   6.378   3.650   4.921 -0.6357  0.0747 -0.5805
  185fsi    OBT 2811   6.554   3.598   5.085 -0.1228  0.2881 -0.0391
  185fsi    SBT 2812   6.699   3.464   4.840  0.0384 -0.2016  0.4365
  185fsi    OBT 2813   6.740   3.357   4.755  0.4253  0.1610  0.0521
  185fsi    OBT 2814   6.782   3.481   4.952  0.2849  0.0220  0.4115
  185fsi    FSI 2815   6.730   3.589   4.754 -1.1864  0.1966  0.4314
  186fsi    FSI 2816   5.577   2.944   3.901  0.0410  0.2437  0.3085
  186fsi    SBT 2817   5.635   2.821   3.977 -0.3492 -0.5868 -0.0284
  186fsi    NBT 2818   5.731   2.754   3.871 -0.4977  0.2371  0.4943
  186fsi    OBT 2819   5.702   2.885   4.085 -0.4457 -0.0008 -0.0398
  186fsi    OBT 2820   5.519   2.743   4.009  0.1302 -0.3873 -0.0770
  186fsi    SBT 2821   5.734   2.603   3.838 -0.2916  0.0985  0.0038
  186fsi    OBT 2822   5.649   2.571   3.727 -0.4750  0.0324  0.2947
  186fsi    OBT 2823   5.736   2.520   3.953 -0.0126 -0.5242  0.0245
  186fsi    FSI 2824   5.871   2.583   3.777 -0.3020  0.1678 -0.2442
  187fsi    FSI 2825   4.797   6.844   0.720  0.3906 -0.3481  0.5913
  187fsi    SBT 2826   4.756   6.717   0.792 -0.0608  0.1349  0.4739
  187fsi    NBT 2827   4.890   6.643   0.809  0.4383  0.6146 -1.9311
  187fsi    OBT 2828   4.714   6.755   0.921  1.4155  0.5901  0.2052
  187fsi    OBT 2829   4.673   6.656   0.701  0.2173  0.1513 -0.2319
  187fsi    SBT 2830   4.971   6.524   0.735  0.1024 -1.2487  0.0697
  187fsi    OBT 2831   4.876   6.453   0.654 -0.0413  0.1315 -0.2121
  187fsi    OBT 2832   5.069   6.459   0.817 -0.9301 -0.2835  1.0767
  187fsi    FSI 2833   5.045   6.590   0.634  0.3298 -0.1279 -0.5746
  188fsi    FSI 2834   1.000   2.221   2.907 -0.4694  0.0425 -0.0300
  188fsi    SBT 2835   1.027   2.322   2.784  0.1529  0.0041  0.1214
  188fsi    NBT 2836   1.118   2.242   2.687 -0.2862 -0.6479  0.3084
  188fsi    OBT 2837   0.897   2.350   2.734  0.1715  0.2974 -0.2562
  188fsi    OBT 2838   1.105   2.427   2.839 -0.2053 -0.0365  0.7948
  188fsi    SBT 2839   1.078   2.181   2.546 -0.0871 -0.2414  0.3300
  188fsi    OBT 2840   0.959   2.103   2.553  0.1276 -0.0811 -0.2576
  188fsi    OBT 2841   1.192   2.133   2.473  0.0800  0.2520  0.4441
  188fsi    FSI 2842   1.043   2.306   2.459 -0.4040 -0.2655  0.2349
  189fsi    FSI 2843   5.732   6.253   1.180 -0.4630 -0.0644 -0.1602
  189fsi    SBT 2844   5.584   6.227   1.140  0.7012  0.0575 -0.5182
  189fsi    NBT 2845   5.587   6.300   0.999  0.4695  0.5963 -0.0606
  189fsi    OBT 2846   5.573   6.089   1.126 -0.5961 -1.1856  0.0945
  189fsi    OBT 2847   5.515   6.298   1.244 -0.4170  1.0843  0.1959
  189fsi    SBT 2848   5.478   6.367   0.908  0.2809 -0.2758 -0.4561
  189fsi    OBT 2849   5.525   6.501   0.886  1.0810  0.1637 -0.5203
  189fsi    OBT 2850   5.343   6.327   0.947  0.3504  0.0442 -0.5303
  189fsi    FSI 2851   5.491   6.311   0.767  0.7914  0.8231 -0.6711
  190fsi    FSI 2852   3.284   1.385   4.060 -0.5878 -0.4980 -0.4541
  190fsi    SBT 2853   3.292   1.278   4.187  0.6208  0.0741 -0.0236
  190fsi    NBT 2854   3.349   1.365   4.301  0.5662 -0.0004 -0.1742
  190fsi    OBT 2855   3.158   1.229   4.216  0.1084 -0.8095 -0.3597
  190fsi    OBT 2856   3.394   1.194   4.139  0.6052  1.0011  0.2624
  190fsi    SBT 2857   3.298   1.383   4.450 -0.5742 -0.0503 -0.1544
  190fsi    OBT 2858   3.167   1.337   4.494 -0.5456  0.9297 -0.1599
  190fsi    OBT 2859   3.327   1.521   4.490 -0.1270 -0.3072  0.4522
  190fsi    FSI 2860   3.392   1.284   4.532 -0.3660  0.5537  0.1302
  191fsi    FSI 2861   4.952   3.841   6.402  0.3068  0.0865 -0.2112
  191fsi    SBT 2862   4.796   3.835   6.426  0.1106  0.2185 -0.2724
  191fsi    NBT 2863   4.762   3.690   6.386  0.1173  0.1754  0.0001
  191fsi    OBT 2864   4.778   3.874   6.563 -0.1830  0.3038 -0.7471
  191fsi    OBT 2865   4.745   3.926   6.327  0.2913 -0.0674  0.0953
  191fsi    SBT 2866   4.736   3.563   6.473 -0.2191 -0.0510 -0.2037
  191fsi    OBT 2867   4.776   3.573   6.612 -0.2686  0.1236  0.0107
  191fsi    OBT 2868   4.783   3.448   6.395  0.4122  0.0419 -0.0126
  191fsi    FSI 2869   4.583   3.548   6.488  0.0146 -0.3607 -0.6144
  192fsi    FSI 2870   0.870   2.827   5.442  0.0720 -0.3650  0.0609
  192fsi    SBT 2871   1.014   2.787   5.397  0.2710  0.4594 -0.4947
  192fsi    NBT 2872   1.090   2.776   5.532 -0.0568 -0.0432  0.3189
  192fsi    OBT 2873   0.994   2.660   5.328  0.2584  0.4233 -0.3349
  192fsi    OBT 2874   1.048   2.905   5.323  0.2198  0.5101  0.0442
  192fsi    SBT 2875   1.128   2.661   5.629  0.4221 -0.0607 -0.0886
  192fsi    OBT 2876   1.214   2.702   5.737  0.3917 -0.3463 -0.1595
  192fsi    OBT 2877   1.158   2.532   5.579  0.3716  0.2516  0.1476
  192fsi    FSI 2878   0.992   2.639   5.696  0.2253 -0.3830  0.4720
  193fsi    FSI 2879   5.849   6.351   6.039 -0.1511 -0.0999 -0.2043
  193fsi    SBT 2880   5.824   6.317   5.892 -0.0646  0.2110 -0.0184
  193fsi    NBT 2881   5.783   6.455   5.838 -0.7397  0.0923 -0.1214
  193fsi    OBT 2882   5.951   6.276   5.842  0.2047  0.0184 -0.4756
  193fsi    OBT 2883   5.715   6.225   5.896 -0.1404  0.0679  0.1143
  193fsi    SBT 2884   5.843   6.545   5.727  0.0830 -0.0634  0.1034
  193fsi    OBT 2885   5.752   6.662   5.734 -0.2773 -0.6028 -0.4321
  193fsi    OBT 2886   5.871   6.478   5.603  0.3179 -0.0218  0.5570
  193fsi    FSI 2887   5.984   6.596   5.784 -0.4532 -0.2790  0.4200
  194fsi    FSI 2888   2.341   5.003   2.147  0.0124  0.6353  0.0625
  194fsi    SBT 2889   2.207   5.002   2.222 -0.0540  0.1925  0.1188
  194fsi    NBT 2890   2.115   5.090   2.128  0.3402  0.3487  0.4538
  194fsi    OBT 2891   2.163   4.864   2.228 -0.0565  0.7154  0.5660
  194fsi    OBT 2892   2.243   5.069   2.344 -0.0326 -0.4224  0.0083
  194fsi    SBT 2893   1.973   5.055   2.064  0.2095  0.3844 -0.4682
  194fsi    OBT 2894   1.914   4.929   2.096  1.0392 -0.1423  0.1550
  194fsi    OBT 2895   1.971   5.094   1.924  0.2211  0.3244 -0.2523
  194fsi    FSI 2896   1.877   5.159   2.143  0.4102  0.2963  0.2829
  195fsi    FSI 2897   4.865   2.453   3.625  0.4858  0.7469 -0.2896
  195fsi    SBT 2898   4.769   2.354   3.695  0.0560 -0.2541 -0.2312
  195fsi    NBT 2899   4.749   2.429   3.832  0.1484 -0.5069 -0.1302
  195fsi    OBT 2900   4.651   2.357   3.613 -0.7318 -0.0386  0.1249
  195fsi    OBT 2901   4.842   2.230   3.703  0.5452 -0.1364 -0.7280
  195fsi    SBT 2902   4.625   2.517   3.884  0.1016 -0.2110 -0.1901
  195fsi    OBT 2903   4.663   2.592   4.002 -0.0681 -0.4784 -0.0191
  195fsi    OBT 2904   4.498   2.448   3.889  0.0499  0.3939 -0.0987
  195fsi    FSI 2905   4.597   2.625   3.776 -0.1339 -0.3935 -0.6410
  196fsi    FSI 2906   2.449   5.990   4.409  0.2969 -0.2302 -0.4328
  196fsi    SBT 2907   2.473   5.831   4.420 -0.0380 -0.0012  0.2009
  196fsi    NBT 2908   2.614   5.815   4.364 -0.3600 -0.4623 -0.2941
  196fsi    OBT 2909   2.463   5.811   4.561  0.1995  0.3717  0.3253
  196fsi    OBT 2910   2.375   5.766   4.333  0.1259 -0.6955  0.0877
  196fsi    SBT 2911   2.742   5.761   4.437  0.0280  0.0225 -0.0643
  196fsi    OBT 2912   2.838   5.720   4.336  0.2846 -0.6162  0.9368
  196fsi    OBT 2913   2.726   5.667   4.546  0.3023  0.5607  0.2159
  196fsi    FSI 2914   2.800   5.885   4.503 -0.8013 -0.1038 -0.1111
  197fsi    FSI 2915   0.686   2.173   6.393 -0.3040  0.0330  0.1938
  197fsi    SBT 2916   0.723   2.317   6.340 -0.3799 -0.4009 -0.3002
  197fsi    NBT 2917   0.876   2.327   6.361 -0.1026 -0.0762 -0.3314
  197fsi    OBT 2918   0.689   2.305   6.200 -0.0792  0.0214 -0.2539
  197fsi    OBT 2919   0.640   2.400   6.424 -0.8407  0.0530 -0.3063
  197fsi    SBT 2920   0.959   2.316   6.497  0.1267 -0.1424 -0.1668
  197fsi    OBT 2921   0.884   2.332   6.618  0.2763 -0.0408  0.0731
  197fsi    OBT 2922   1.085   2.382   6.481 -0.2283 -0.1129 -0.4981
  197fsi    FSI 2923   1.002   2.169   6.491 -0.0152 -0.1711 -0.6851
  198fsi    FSI 2924   5.932   6.137   0.666  0.3657  0.3825  0.8249
  198fsi    SBT 2925   5.957   6.241   0.777  0.0224  0.3658 -0.0512
  198fsi    NBT 2926   6.107   6.277   0.741 -0.6374 -0.5499 -0.0107
  198fsi    OBT 2927   5.871   6.355   0.758 -0.1743  0.2953  0.2966
  198fsi    OBT 2928   5.927   6.175   0.897 -0.2284  0.6410  0.2089
  198fsi    SBT 2929   6.225   6.228   0.828 -0.8296 -0.3093  0.3433
  198fsi    OBT 2930   6.211   6.234   0.975  0.2678  0.5160  0.3785
  198fsi    OBT 2931   6.351   6.264   0.783 -1.4536  0.0452 -0.4848
  198fsi    FSI 2932   6.226   6.083   0.807 -0.3289  0.3479  0.9440
  199fsi    FSI 2933   2.826   2.584   0.837 -0.3519  0.3656  0.3389
  199fsi    SBT 2934   2.865   2.741   0.844 -0.3792  0.1758  0.2606
  199fsi    NBT 2935   2.949   2.775   0.712 -0.1934 -0.4139  0.0367
  199fsi    OBT 2936   2.741   2.815   0.846 -0.1316  0.2581 -0.2052
  199fsi    OBT 2937   2.956   2.747   0.954 -0.3520  0.7940  0.5936
  199fsi    SBT 2938   2.935   2.897   0.613 -0.0087  0.2140 -0.2583
  199fsi    OBT 2939   3.012   2.869   0.495 -0.1415  0.1225  0.3068
  199fsi    OBT 2940   2.965   3.020   0.681  0.8624 -0.0623 -0.0288
  199fsi    FSI 2941   2.783   2.903   0.575  0.0656  0.6582 -0.8702
  200fsi    FSI 2942   0.128   3.077   4.049  0.2117 -0.3258 -0.8896
  200fsi    SBT 2943   0.076   2.956   4.133  0.3622  0.1001  0.3567
  200fsi    NBT 2944   0.095   3.003   4.281  0.5487  0.7012 -0.1850
  200fsi    OBT 2945  -0.060   2.951   4.095  0.9368  0.1132 -0.1135
  200fsi    OBT 2946   0.162   2.846   4.100 -0.0910 -0.2100 -0.0922
  200fsi    SBT 2947  -0.005   3.077   4.378 -0.1523  0.4468 -0.2941
  200fsi    OBT 2948   0.043   3.065   4.514 -0.1518  0.0191 -0.2610
  200fsi    OBT 2949  -0.143   3.049   4.356  0.1283  0.2215  0.8854
  200fsi    FSI 2950   0.013   3.236   4.338 -0.1002  0.5376 -0.2908
   7.23840   7.23840   7.23840
