simbox
 2300
    1Li      Li    1   2.415   2.420   2.973
    2Li      Li    2   0.568   2.811   3.025
    3Li      Li    3   2.132   0.743   0.725
    4Li      Li    4   2.016   0.703   0.348
    5Li      Li    5   2.157   0.423   3.053
    6Li      Li    6   1.287   1.032   1.283
    7Li      Li    7   1.781   3.236   0.088
    8Li      Li    8   1.847   3.368   0.653
    9Li      Li    9   1.097   2.305   2.348
   10Li      Li   10   3.110   2.636   2.836
   11Li      Li   11   3.205   1.349   2.372
   12Li      Li   12   2.522   1.485   2.870
   13Li      Li   13   1.205   3.338   1.715
   14Li      Li   14   2.028   1.224   1.144
   15Li      Li   15   1.033   0.017   2.509
   16Li      Li   16   2.117   3.258   2.382
   17Li      Li   17   0.617   1.061   2.513
   18Li      Li   18   2.773   2.943   2.519
   19Li      Li   19   0.838   2.387   1.022
   20Li      Li   20   2.516   1.276   0.480
   21Li      Li   21   0.844   0.704   0.476
   22Li      Li   22   3.068   3.259   2.597
   23Li      Li   23   1.967   0.693   2.013
   24Li      Li   24   2.685   3.120   3.088
   25Li      Li   25   1.310   2.574   1.842
   26Li      Li   26   2.565   0.286   0.854
   27Li      Li   27   2.356   2.987   1.414
   28Li      Li   28   0.868   2.095   0.195
   29Li      Li   29   0.958   0.827   2.445
   30Li      Li   30   2.743   1.688   0.635
   31Li      Li   31   3.140   1.838   3.043
   32Li      Li   32   0.781   1.213   0.604
   33Li      Li   33   0.755   1.336   1.877
   34Li      Li   34   0.804   3.320   2.934
   35Li      Li   35   2.905   2.138   0.900
   36Li      Li   36   2.800   1.010   2.593
   37Li      Li   37   0.983   3.026   1.245
   38Li      Li   38   0.776   2.830   0.705
   39Li      Li   39   0.721   1.157   3.075
   40Li      Li   40   0.282   0.658   0.290
   41Li      Li   41   1.791   3.051   2.783
   42Li      Li   42   0.028   0.928   2.995
   43Li      Li   43   0.729   0.881   1.512
   44Li      Li   44   1.717   2.613   1.054
   45Li      Li   45   2.297   2.232   1.518
   46Li      Li   46   2.712   3.453   0.397
   47Li      Li   47   0.252   0.404   1.488
   48Li      Li   48   1.249   1.238   1.616
   49Li      Li   49   2.383   2.745   2.262
   50Li      Li   50   2.582   2.990   1.871
   51c3c      N   51   2.208   2.724   3.149
   51c3c     C1   52   2.204   2.718   3.002
   51c3c     C2   53   2.208   2.867   3.181
   51c3c     C3   54   2.265   2.847   2.946
   51c3c     C4   55   2.281   2.937   3.067
   51c3c     C5   56   2.086   2.663   3.203
   51c3c     C6   57   2.323   2.652   3.208
   51c3c     H1   58   2.102   2.711   2.963
   51c3c     H2   59   2.256   2.630   2.965
   51c3c     H3   60   2.106   2.907   3.182
   51c3c     H4   61   2.250   2.890   3.279
   51c3c     H5   62   2.199   2.894   2.873
   51c3c     H6   63   2.361   2.831   2.897
   51c3c     H7   64   2.238   3.035   3.050
   51c3c     H8   65   2.387   2.950   3.090
   51c3c     H9   66   2.076   2.558   3.176
   51c3c    H10   67   2.083   2.668   3.312
   51c3c    H11   68   1.995   2.711   3.166
   51c3c    H12   69   2.323   2.667   3.316
   51c3c    H13   70   2.308   2.545   3.196
   51c3c     C7   71   2.465   2.684   3.156
   51c3c    H14   72   2.497   2.783   3.188
   51c3c    H15   73   2.469   2.684   3.047
   51c3c     C8   74   2.568   2.582   3.205
   51c3c    H16   75   2.538   2.479   3.183
   51c3c    H17   76   2.583   2.590   3.312
   51c3c    H18   77   2.665   2.598   3.157
   52c3c      N   78   1.597   0.298   1.247
   52c3c     C1   79   1.514   0.178   1.259
   52c3c     C2   80   1.509   0.411   1.278
   52c3c     C3   81   1.372   0.218   1.219
   52c3c     C4   82   1.366   0.369   1.241
   52c3c     C5   83   1.705   0.291   1.346
   52c3c     C6   84   1.663   0.313   1.116
   52c3c     H1   85   1.508   0.146   1.363
   52c3c     H2   86   1.552   0.093   1.203
   52c3c     H3   87   1.510   0.435   1.385
   52c3c     H4   88   1.540   0.503   1.229
   52c3c     H5   89   1.297   0.167   1.279
   52c3c     H6   90   1.351   0.195   1.114
   52c3c     H7   91   1.297   0.394   1.321
   52c3c     H8   92   1.331   0.419   1.151
   52c3c     H9   93   1.773   0.208   1.328
   52c3c    H10   94   1.762   0.384   1.347
   52c3c    H11   95   1.667   0.279   1.448
   52c3c    H12   96   1.729   0.400   1.119
   52c3c    H13   97   1.729   0.228   1.098
   52c3c     C7   98   1.574   0.331   0.991
   52c3c    H14   99   1.507   0.416   1.002
   52c3c    H15  100   1.513   0.242   0.974
   52c3c     C8  101   1.660   0.354   0.868
   52c3c    H16  102   1.726   0.270   0.850
   52c3c    H17  103   1.723   0.442   0.882
   52c3c    H18  104   1.600   0.369   0.778
   53c3c      N  105   3.109   1.282   1.261
   53c3c     C1  106   3.031   1.218   1.154
   53c3c     C2  107   3.241   1.321   1.206
   53c3c     C3  108   3.131   1.171   1.050
   53c3c     C4  109   3.254   1.258   1.067
   53c3c     C5  110   3.038   1.403   1.301
   53c3c     C6  111   3.123   1.194   1.378
   53c3c     H1  112   2.961   1.287   1.106
   53c3c     H2  113   2.968   1.137   1.191
   53c3c     H3  114   3.250   1.429   1.194
   53c3c     H4  115   3.323   1.291   1.270
   53c3c     H5  116   3.093   1.185   0.949
   53c3c     H6  117   3.157   1.066   1.064
   53c3c     H7  118   3.255   1.335   0.990
   53c3c     H8  119   3.345   1.199   1.056
   53c3c     H9  120   2.935   1.383   1.332
   53c3c    H10  121   3.088   1.454   1.383
   53c3c    H11  122   3.032   1.473   1.218
   53c3c    H12  123   3.180   1.245   1.455
   53c3c    H13  124   3.024   1.178   1.422
   53c3c     C7  125   3.183   1.054   1.353
   53c3c    H14  126   3.281   1.061   1.306
   53c3c    H15  127   3.120   0.997   1.284
   53c3c     C8  128   3.195   0.973   1.482
   53c3c    H16  129   3.099   0.968   1.534
   53c3c    H17  130   3.267   1.018   1.550
   53c3c    H18  131   3.227   0.871   1.462
   54c3c      N  132   0.308   1.970   1.354
   54c3c     C1  133   0.205   1.867   1.375
   54c3c     C2  134   0.435   1.898   1.341
   54c3c     C3  135   0.275   1.746   1.439
   54c3c     C4  136   0.425   1.771   1.426
   54c3c     C5  137   0.279   2.042   1.230
   54c3c     C6  138   0.309   2.072   1.462
   54c3c     H1  139   0.163   1.834   1.280
   54c3c     H2  140   0.121   1.902   1.434
   54c3c     H3  141   0.452   1.867   1.237
   54c3c     H4  142   0.522   1.958   1.366
   54c3c     H5  143   0.247   1.654   1.387
   54c3c     H6  144   0.247   1.734   1.544
   54c3c     H7  145   0.476   1.687   1.378
   54c3c     H8  146   0.470   1.784   1.524
   54c3c     H9  147   0.184   2.094   1.233
   54c3c    H10  148   0.356   2.117   1.207
   54c3c    H11  149   0.275   1.976   1.143
   54c3c    H12  150   0.385   2.146   1.439
   54c3c    H13  151   0.215   2.126   1.461
   54c3c     C7  152   0.334   2.025   1.607
   54c3c    H14  153   0.432   1.978   1.616
   54c3c    H15  154   0.259   1.953   1.638
   54c3c     C8  155   0.330   2.144   1.704
   54c3c    H16  156   0.235   2.197   1.699
   54c3c    H17  157   0.409   2.215   1.680
   54c3c    H18  158   0.345   2.112   1.807
   55c3c      N  159   1.453   2.739   0.310
   55c3c     C1  160   1.462   2.831   0.194
   55c3c     C2  161   1.331   2.777   0.382
   55c3c     C3  162   1.372   2.952   0.223
   55c3c     C4  163   1.307   2.924   0.357
   55c3c     C5  164   1.439   2.601   0.262
   55c3c     C6  165   1.574   2.741   0.394
   55c3c     H1  166   1.426   2.783   0.103
   55c3c     H2  167   1.565   2.861   0.174
   55c3c     H3  168   1.244   2.724   0.344
   55c3c     H4  169   1.338   2.756   0.489
   55c3c     H5  170   1.294   2.960   0.146
   55c3c     H6  171   1.426   3.046   0.225
   55c3c     H7  172   1.200   2.945   0.355
   55c3c     H8  173   1.352   2.985   0.436
   55c3c     H9  174   1.524   2.569   0.203
   55c3c    H10  175   1.430   2.532   0.346
   55c3c    H11  176   1.350   2.587   0.201
   55c3c    H12  177   1.564   2.666   0.472
   55c3c    H13  178   1.659   2.709   0.335
   55c3c     C7  179   1.611   2.873   0.463
   55c3c    H14  180   1.536   2.899   0.537
   55c3c    H15  181   1.617   2.955   0.391
   55c3c     C8  182   1.747   2.860   0.533
   55c3c    H16  183   1.828   2.850   0.460
   55c3c    H17  184   1.749   2.770   0.594
   55c3c    H18  185   1.769   2.946   0.597
   56c3c      N  186   1.739   1.773   1.258
   56c3c     C1  187   1.711   1.775   1.113
   56c3c     C2  188   1.689   1.898   1.315
   56c3c     C3  189   1.677   1.918   1.073
   56c3c     C4  190   1.677   1.998   1.201
   56c3c     C5  191   1.663   1.662   1.316
   56c3c     C6  192   1.882   1.750   1.287
   56c3c     H1  193   1.628   1.711   1.084
   56c3c     H2  194   1.795   1.739   1.054
   56c3c     H3  195   1.590   1.887   1.359
   56c3c     H4  196   1.752   1.938   1.395
   56c3c     H5  197   1.580   1.923   1.025
   56c3c     H6  198   1.750   1.959   1.002
   56c3c     H7  199   1.581   2.050   1.209
   56c3c     H8  200   1.758   2.071   1.201
   56c3c     H9  201   1.699   1.565   1.280
   56c3c    H10  202   1.670   1.663   1.425
   56c3c    H11  203   1.557   1.668   1.293
   56c3c    H12  204   1.897   1.736   1.394
   56c3c    H13  205   1.914   1.656   1.240
   56c3c     C7  206   1.980   1.860   1.242
   56c3c    H14  207   1.964   1.951   1.301
   56c3c    H15  208   1.960   1.890   1.139
   56c3c     C8  209   2.127   1.817   1.255
   56c3c    H16  210   2.150   1.730   1.194
   56c3c    H17  211   2.152   1.790   1.358
   56c3c    H18  212   2.194   1.897   1.224
   57c3c      N  213   0.601   0.295   1.977
   57c3c     C1  214   0.662   0.419   1.928
   57c3c     C2  215   0.647   0.190   1.885
   57c3c     C3  216   0.680   0.405   1.777
   57c3c     C4  217   0.676   0.256   1.749
   57c3c     C5  218   0.650   0.267   2.113
   57c3c     C6  219   0.453   0.305   1.989
   57c3c     H1  220   0.762   0.432   1.971
   57c3c     H2  221   0.605   0.509   1.954
   57c3c     H3  222   0.741   0.148   1.920
   57c3c     H4  223   0.578   0.106   1.877
   57c3c     H5  224   0.775   0.448   1.744
   57c3c     H6  225   0.601   0.455   1.722
   57c3c     H7  226   0.771   0.221   1.709
   57c3c     H8  227   0.599   0.232   1.676
   57c3c     H9  228   0.618   0.341   2.185
   57c3c    H10  229   0.616   0.169   2.149
   57c3c    H11  230   0.759   0.265   2.117
   57c3c    H12  231   0.416   0.211   2.030
   57c3c    H13  232   0.429   0.381   2.063
   57c3c     C7  233   0.372   0.336   1.863
   57c3c    H14  234   0.387   0.259   1.787
   57c3c    H15  235   0.403   0.431   1.820
   57c3c     C8  236   0.222   0.346   1.894
   57c3c    H16  237   0.201   0.425   1.966
   57c3c    H17  238   0.184   0.253   1.937
   57c3c    H18  239   0.163   0.366   1.804
   58c3c      N  240   1.505   2.128   0.604
   58c3c     C1  241   1.393   2.043   0.646
   58c3c     C2  242   1.499   2.249   0.689
   58c3c     C3  243   1.289   2.133   0.713
   58c3c     C4  244   1.371   2.245   0.773
   58c3c     C5  245   1.630   2.054   0.627
   58c3c     C6  246   1.502   2.161   0.460
   58c3c     H1  247   1.424   1.970   0.721
   58c3c     H2  248   1.352   1.986   0.563
   58c3c     H3  249   1.584   2.257   0.757
   58c3c     H4  250   1.506   2.342   0.631
   58c3c     H5  251   1.233   2.079   0.790
   58c3c     H6  252   1.217   2.174   0.643
   58c3c     H7  253   1.395   2.222   0.877
   58c3c     H8  254   1.316   2.339   0.771
   58c3c     H9  255   1.631   1.959   0.575
   58c3c    H10  256   1.716   2.109   0.591
   58c3c    H11  257   1.648   2.033   0.733
   58c3c    H12  258   1.590   2.221   0.437
   58c3c    H13  259   1.512   2.069   0.402
   58c3c     C7  260   1.378   2.238   0.410
   58c3c    H14  261   1.377   2.337   0.455
   58c3c    H15  262   1.286   2.189   0.441
   58c3c     C8  263   1.374   2.255   0.258
   58c3c    H16  264   1.379   2.159   0.207
   58c3c    H17  265   1.456   2.317   0.223
   58c3c    H18  266   1.281   2.305   0.228
   59c3c      N  267   1.410   3.019   2.324
   59c3c     C1  268   1.503   2.907   2.306
   59c3c     C2  269   1.417   3.097   2.199
   59c3c     C3  270   1.611   2.951   2.205
   59c3c     C4  271   1.557   3.078   2.140
   59c3c     C5  272   1.274   2.967   2.342
   59c3c     C6  273   1.440   3.099   2.445
   59c3c     H1  274   1.452   2.821   2.262
   59c3c     H2  275   1.546   2.872   2.400
   59c3c     H3  276   1.346   3.059   2.126
   59c3c     H4  277   1.391   3.202   2.213
   59c3c     H5  278   1.628   2.875   2.130
   59c3c     H6  279   1.707   2.971   2.253
   59c3c     H7  280   1.553   3.069   2.032
   59c3c     H8  281   1.623   3.163   2.163
   59c3c     H9  282   1.266   2.904   2.431
   59c3c    H10  283   1.201   3.047   2.353
   59c3c    H11  284   1.241   2.906   2.258
   59c3c    H12  285   1.365   3.178   2.455
   59c3c    H13  286   1.427   3.037   2.534
   59c3c     C7  287   1.578   3.166   2.456
   59c3c    H14  288   1.597   3.232   2.371
   59c3c    H15  289   1.657   3.091   2.456
   59c3c     C8  290   1.590   3.252   2.583
   59c3c    H16  291   1.571   3.193   2.673
   59c3c    H17  292   1.518   3.334   2.582
   59c3c    H18  293   1.690   3.296   2.592
   60c3c      N  294   2.205   0.473   1.275
   60c3c     C1  295   2.188   0.383   1.160
   60c3c     C2  296   2.193   0.386   1.392
   60c3c     C3  297   2.090   0.273   1.203
   60c3c     C4  298   2.099   0.270   1.356
   60c3c     C5  299   2.339   0.531   1.272
   60c3c     C6  300   2.110   0.588   1.272
   60c3c     H1  301   2.282   0.334   1.136
   60c3c     H2  302   2.156   0.434   1.069
   60c3c     H3  303   2.289   0.339   1.415
   60c3c     H4  304   2.163   0.438   1.483
   60c3c     H5  305   2.117   0.177   1.160
   60c3c     H6  306   1.988   0.295   1.171
   60c3c     H7  307   2.139   0.175   1.390
   60c3c     H8  308   2.000   0.282   1.401
   60c3c     H9  309   2.354   0.593   1.183
   60c3c    H10  310   2.359   0.593   1.360
   60c3c    H11  311   2.417   0.455   1.269
   60c3c    H12  312   2.133   0.655   1.354
   60c3c    H13  313   2.128   0.646   1.181
   60c3c     C7  314   1.960   0.557   1.275
   60c3c    H14  315   1.942   0.489   1.358
   60c3c    H15  316   1.930   0.508   1.182
   60c3c     C8  317   1.868   0.678   1.297
   60c3c    H16  318   1.853   0.736   1.206
   60c3c    H17  319   1.908   0.747   1.371
   60c3c    H18  320   1.769   0.647   1.331
   61c3c      N  321   3.018   1.804   2.291
   61c3c     C1  322   3.160   1.838   2.310
   61c3c     C2  323   2.955   1.818   2.422
   61c3c     C3  324   3.196   1.803   2.454
   61c3c     C4  325   3.063   1.789   2.527
   61c3c     C5  326   2.959   1.903   2.202
   61c3c     C6  327   2.997   1.671   2.231
   61c3c     H1  328   3.177   1.945   2.297
   61c3c     H2  329   3.224   1.789   2.236
   61c3c     H3  330   2.918   1.918   2.441
   61c3c     H4  331   2.867   1.753   2.429
   61c3c     H5  332   3.256   1.882   2.499
   61c3c     H6  333   3.253   1.711   2.461
   61c3c     H7  334   3.055   1.859   2.609
   61c3c     H8  335   3.053   1.688   2.568
   61c3c     H9  336   3.009   1.909   2.106
   61c3c    H10  337   2.855   1.876   2.184
   61c3c    H11  338   2.960   2.005   2.243
   61c3c    H12  339   2.891   1.658   2.209
   61c3c    H13  340   3.047   1.666   2.135
   61c3c     C7  341   3.036   1.547   2.313
   61c3c    H14  342   2.975   1.540   2.403
   61c3c    H15  343   3.140   1.553   2.344
   61c3c     C8  344   3.013   1.421   2.229
   61c3c    H16  345   3.082   1.418   2.145
   61c3c    H17  346   2.912   1.422   2.189
   61c3c    H18  347   3.022   1.328   2.285
   62c3c      N  348   1.917   1.166   1.752
   62c3c     C1  349   1.782   1.113   1.778
   62c3c     C2  350   1.969   1.222   1.877
   62c3c     C3  351   1.750   1.126   1.926
   62c3c     C4  352   1.864   1.205   1.985
   62c3c     C5  353   2.004   1.054   1.711
   62c3c     C6  354   1.917   1.266   1.644
   62c3c     H1  355   1.769   1.010   1.745
   62c3c     H2  356   1.705   1.170   1.725
   62c3c     H3  357   2.060   1.170   1.907
   62c3c     H4  358   2.000   1.326   1.871
   62c3c     H5  359   1.743   1.028   1.973
   62c3c     H6  360   1.655   1.177   1.941
   62c3c     H7  361   1.907   1.149   2.068
   62c3c     H8  362   1.829   1.302   2.022
   62c3c     H9  363   1.969   1.005   1.620
   62c3c    H10  364   2.106   1.087   1.692
   62c3c    H11  365   2.010   0.977   1.788
   62c3c    H12  366   2.020   1.293   1.620
   62c3c    H13  367   1.876   1.222   1.553
   62c3c     C7  368   1.839   1.397   1.673
   62c3c    H14  369   1.881   1.451   1.758
   62c3c    H15  370   1.735   1.378   1.699
   62c3c     C8  371   1.843   1.491   1.554
   62c3c    H16  372   1.791   1.447   1.468
   62c3c    H17  373   1.945   1.514   1.524
   62c3c    H18  374   1.794   1.584   1.580
   63c3c      N  375   1.760   2.518   2.299
   63c3c     C1  376   1.755   2.535   2.153
   63c3c     C2  377   1.902   2.523   2.340
   63c3c     C3  378   1.899   2.532   2.105
   63c3c     C4  379   1.980   2.478   2.218
   63c3c     C5  380   1.689   2.629   2.362
   63c3c     C6  381   1.694   2.394   2.342
   63c3c     H1  382   1.709   2.628   2.121
   63c3c     H2  383   1.697   2.457   2.103
   63c3c     H3  384   1.934   2.624   2.362
   63c3c     H4  385   1.924   2.464   2.429
   63c3c     H5  386   1.933   2.634   2.084
   63c3c     H6  387   1.910   2.472   2.015
   63c3c     H7  388   2.080   2.522   2.215
   63c3c     H8  389   1.990   2.370   2.211
   63c3c     H9  390   1.584   2.630   2.333
   63c3c    H10  391   1.694   2.623   2.470
   63c3c    H11  392   1.733   2.725   2.332
   63c3c    H12  393   1.693   2.388   2.451
   63c3c    H13  394   1.589   2.397   2.312
   63c3c     C7  395   1.755   2.263   2.289
   63c3c    H14  396   1.852   2.244   2.335
   63c3c    H15  397   1.769   2.267   2.181
   63c3c     C8  398   1.663   2.146   2.318
   63c3c    H16  399   1.563   2.162   2.277
   63c3c    H17  400   1.652   2.133   2.426
   63c3c    H18  401   1.702   2.054   2.275
   64c3c      N  402   2.667   2.236   2.174
   64c3c     C1  403   2.664   2.092   2.205
   64c3c     C2  404   2.529   2.283   2.157
   64c3c     C3  405   2.524   2.043   2.173
   64c3c     C4  406   2.436   2.165   2.185
   64c3c     C5  407   2.728   2.305   2.289
   64c3c     C6  408   2.747   2.263   2.054
   64c3c     H1  409   2.688   2.069   2.308
   64c3c     H2  410   2.735   2.037   2.143
   64c3c     H3  411   2.504   2.368   2.221
   64c3c     H4  412   2.510   2.320   2.057
   64c3c     H5  413   2.495   1.963   2.242
   64c3c     H6  414   2.517   2.006   2.071
   64c3c     H7  415   2.396   2.170   2.286
   64c3c     H8  416   2.354   2.163   2.114
   64c3c     H9  417   2.833   2.281   2.301
   64c3c    H10  418   2.720   2.413   2.278
   64c3c    H11  419   2.676   2.281   2.382
   64c3c    H12  420   2.743   2.370   2.032
   64c3c    H13  421   2.852   2.240   2.072
   64c3c     C7  422   2.705   2.187   1.926
   64c3c    H14  423   2.599   2.200   1.904
   64c3c    H15  424   2.719   2.079   1.935
   64c3c     C8  425   2.784   2.233   1.805
   64c3c    H16  426   2.880   2.181   1.798
   64c3c    H17  427   2.803   2.340   1.807
   64c3c    H18  428   2.725   2.212   1.716
   65c3c      N  429   3.005   2.263   1.450
   65c3c     C1  430   3.039   2.361   1.554
   65c3c     C2  431   3.099   2.152   1.470
   65c3c     C3  432   3.188   2.346   1.581
   65c3c     C4  433   3.226   2.207   1.535
   65c3c     C5  434   2.870   2.209   1.469
   65c3c     C6  435   3.004   2.322   1.315
   65c3c     H1  436   2.984   2.343   1.646
   65c3c     H2  437   3.017   2.464   1.525
   65c3c     H3  438   3.059   2.079   1.540
   65c3c     H4  439   3.120   2.099   1.377
   65c3c     H5  440   3.211   2.363   1.687
   65c3c     H6  441   3.245   2.418   1.522
   65c3c     H7  442   3.256   2.145   1.619
   65c3c     H8  443   3.308   2.212   1.464
   65c3c     H9  444   2.794   2.287   1.466
   65c3c    H10  445   2.845   2.134   1.395
   65c3c    H11  446   2.860   2.158   1.565
   65c3c    H12  447   2.960   2.250   1.245
   65c3c    H13  448   2.933   2.405   1.313
   65c3c     C7  449   3.137   2.368   1.254
   65c3c    H14  450   3.213   2.290   1.262
   65c3c    H15  451   3.175   2.455   1.308
   65c3c     C8  452   3.120   2.404   1.106
   65c3c    H16  453   3.046   2.483   1.092
   65c3c    H17  454   3.086   2.318   1.048
   65c3c    H18  455   3.214   2.438   1.062
   66c3c      N  456   1.417   3.071   0.888
   66c3c     C1  457   1.336   3.193   0.900
   66c3c     C2  458   1.323   2.967   0.845
   66c3c     C3  459   1.195   3.149   0.940
   66c3c     C4  460   1.182   3.008   0.884
   66c3c     C5  461   1.519   3.088   0.784
   66c3c     C6  462   1.490   3.037   1.012
   66c3c     H1  463   1.327   3.243   0.803
   66c3c     H2  464   1.379   3.266   0.969
   66c3c     H3  465   1.326   2.946   0.738
   66c3c     H4  466   1.348   2.873   0.896
   66c3c     H5  467   1.118   3.214   0.900
   66c3c     H6  468   1.182   3.147   1.049
   66c3c     H7  469   1.116   3.006   0.797
   66c3c     H8  470   1.142   2.939   0.958
   66c3c     H9  471   1.588   3.168   0.808
   66c3c    H10  472   1.577   2.996   0.771
   66c3c    H11  473   1.473   3.110   0.688
   66c3c    H12  474   1.559   2.955   0.991
   66c3c    H13  475   1.553   3.121   1.039
   66c3c     C7  476   1.412   2.997   1.138
   66c3c    H14  477   1.343   2.915   1.118
   66c3c    H15  478   1.352   3.080   1.175
   66c3c     C8  479   1.507   2.951   1.249
   66c3c    H16  480   1.577   3.031   1.277
   66c3c    H17  481   1.567   2.866   1.216
   66c3c    H18  482   1.453   2.921   1.338
   67c3c      N  483   0.386   0.581   2.498
   67c3c     C1  484   0.421   0.722   2.470
   67c3c     C2  485   0.241   0.564   2.477
   67c3c     C3  486   0.293   0.798   2.436
   67c3c     C4  487   0.178   0.702   2.461
   67c3c     C5  488   0.454   0.495   2.401
   67c3c     C6  489   0.430   0.540   2.633
   67c3c     H1  490   0.491   0.731   2.388
   67c3c     H2  491   0.473   0.769   2.554
   67c3c     H3  492   0.218   0.507   2.387
   67c3c     H4  493   0.192   0.507   2.557
   67c3c     H5  494   0.295   0.828   2.331
   67c3c     H6  495   0.282   0.888   2.497
   67c3c     H7  496   0.108   0.704   2.378
   67c3c     H8  497   0.124   0.730   2.551
   67c3c     H9  498   0.562   0.505   2.410
   67c3c    H10  499   0.430   0.390   2.415
   67c3c    H11  500   0.429   0.521   2.298
   67c3c    H12  501   0.412   0.433   2.646
   67c3c    H13  502   0.538   0.551   2.640
   67c3c     C7  503   0.365   0.614   2.751
   67c3c    H14  504   0.258   0.594   2.755
   67c3c    H15  505   0.375   0.722   2.742
   67c3c     C8  506   0.428   0.573   2.885
   67c3c    H16  507   0.535   0.591   2.886
   67c3c    H17  508   0.412   0.467   2.905
   67c3c    H18  509   0.384   0.629   2.968
   68c3c      N  510   0.678   2.942   1.918
   68c3c     C1  511   0.537   2.949   1.874
   68c3c     C2  512   0.677   3.004   2.051
   68c3c     C3  513   0.478   3.078   1.931
   68c3c     C4  514   0.565   3.109   2.053
   68c3c     C5  515   0.716   2.801   1.929
   68c3c     C6  516   0.774   3.004   1.824
   68c3c     H1  517   0.480   2.867   1.917
   68c3c     H2  518   0.525   2.940   1.766
   68c3c     H3  519   0.651   2.929   2.127
   68c3c     H4  520   0.774   3.044   2.081
   68c3c     H5  521   0.373   3.066   1.957
   68c3c     H6  522   0.482   3.160   1.859
   68c3c     H7  523   0.506   3.100   2.144
   68c3c     H8  524   0.603   3.210   2.047
   68c3c     H9  525   0.712   2.751   1.832
   68c3c    H10  526   0.818   2.789   1.967
   68c3c    H11  527   0.651   2.745   1.996
   68c3c    H12  528   0.875   2.981   1.856
   68c3c    H13  529   0.763   2.955   1.727
   68c3c     C7  530   0.767   3.156   1.802
   68c3c    H14  531   0.784   3.210   1.896
   68c3c    H15  532   0.669   3.186   1.766
   68c3c     C8  533   0.869   3.205   1.699
   68c3c    H16  534   0.858   3.151   1.605
   68c3c    H17  535   0.970   3.189   1.736
   68c3c    H18  536   0.856   3.311   1.678
   69c3c      N  537   2.459   2.429   0.735
   69c3c     C1  538   2.336   2.364   0.684
   69c3c     C2  539   2.574   2.367   0.666
   69c3c     C3  540   2.377   2.227   0.631
   69c3c     C4  541   2.526   2.238   0.600
   69c3c     C5  542   2.455   2.571   0.700
   69c3c     C6  543   2.472   2.421   0.882
   69c3c     H1  544   2.293   2.419   0.600
   69c3c     H2  545   2.257   2.358   0.758
   69c3c     H3  546   2.615   2.430   0.588
   69c3c     H4  547   2.657   2.347   0.734
   69c3c     H5  548   2.320   2.200   0.542
   69c3c     H6  549   2.362   2.148   0.704
   69c3c     H7  550   2.542   2.244   0.492
   69c3c     H8  551   2.579   2.150   0.637
   69c3c     H9  552   2.371   2.621   0.747
   69c3c    H10  553   2.547   2.620   0.732
   69c3c    H11  554   2.446   2.586   0.593
   69c3c    H12  555   2.565   2.469   0.912
   69c3c    H13  556   2.394   2.480   0.929
   69c3c     C7  557   2.467   2.280   0.943
   69c3c    H14  558   2.521   2.208   0.882
   69c3c    H15  559   2.364   2.245   0.947
   69c3c     C8  560   2.526   2.277   1.084
   69c3c    H16  561   2.478   2.350   1.150
   69c3c    H17  562   2.633   2.298   1.084
   69c3c    H18  563   2.512   2.178   1.128
   70c3c      N  564   0.648   2.279   1.931
   70c3c     C1  565   0.767   2.328   2.003
   70c3c     C2  566   0.659   2.320   1.790
   70c3c     C3  567   0.843   2.424   1.911
   70c3c     C4  568   0.767   2.427   1.780
   70c3c     C5  569   0.647   2.133   1.936
   70c3c     C6  570   0.523   2.325   1.995
   70c3c     H1  571   0.835   2.248   2.033
   70c3c     H2  572   0.740   2.379   2.094
   70c3c     H3  573   0.690   2.239   1.724
   70c3c     H4  574   0.566   2.358   1.749
   70c3c     H5  575   0.945   2.390   1.895
   70c3c     H6  576   0.848   2.524   1.955
   70c3c     H7  577   0.833   2.408   1.696
   70c3c     H8  578   0.721   2.525   1.765
   70c3c     H9  579   0.638   2.096   2.038
   70c3c    H10  580   0.563   2.091   1.879
   70c3c    H11  581   0.738   2.092   1.893
   70c3c    H12  582   0.437   2.283   1.941
   70c3c    H13  583   0.516   2.284   2.096
   70c3c     C7  584   0.501   2.477   2.005
   70c3c    H14  585   0.502   2.523   1.906
   70c3c    H15  586   0.579   2.525   2.063
   70c3c     C8  587   0.366   2.508   2.072
   70c3c    H16  588   0.363   2.470   2.174
   70c3c    H17  589   0.283   2.465   2.017
   70c3c    H18  590   0.350   2.616   2.078
   71c3c      N  591   2.567   0.456   1.763
   71c3c     C1  592   2.606   0.323   1.813
   71c3c     C2  593   2.421   0.453   1.755
   71c3c     C3  594   2.487   0.228   1.801
   71c3c     C4  595   2.376   0.308   1.736
   71c3c     C5  596   2.613   0.560   1.857
   71c3c     C6  597   2.628   0.493   1.635
   71c3c     H1  598   2.635   0.325   1.918
   71c3c     H2  599   2.693   0.283   1.761
   71c3c     H3  600   2.379   0.482   1.851
   71c3c     H4  601   2.378   0.522   1.682
   71c3c     H5  602   2.456   0.195   1.900
   71c3c     H6  603   2.511   0.139   1.743
   71c3c     H7  604   2.280   0.289   1.784
   71c3c     H8  605   2.366   0.281   1.631
   71c3c     H9  606   2.720   0.578   1.853
   71c3c    H10  607   2.565   0.657   1.837
   71c3c    H11  608   2.593   0.535   1.961
   71c3c    H12  609   2.598   0.595   1.609
   71c3c    H13  610   2.736   0.497   1.647
   71c3c     C7  611   2.599   0.402   1.514
   71c3c    H14  612   2.492   0.397   1.495
   71c3c    H15  613   2.634   0.301   1.533
   71c3c     C8  614   2.667   0.457   1.389
   71c3c    H16  615   2.774   0.468   1.408
   71c3c    H17  616   2.629   0.555   1.361
   71c3c    H18  617   2.656   0.390   1.304
   72c3c      N  618   1.487   0.851   0.552
   72c3c     C1  619   1.573   0.877   0.669
   72c3c     C2  620   1.403   0.734   0.585
   72c3c     C3  621   1.540   0.773   0.777
   72c3c     C4  622   1.472   0.661   0.701
   72c3c     C5  623   1.401   0.967   0.531
   72c3c     C6  624   1.562   0.834   0.426
   72c3c     H1  625   1.559   0.976   0.711
   72c3c     H2  626   1.680   0.872   0.645
   72c3c     H3  627   1.304   0.763   0.620
   72c3c     H4  628   1.387   0.668   0.500
   72c3c     H5  629   1.472   0.817   0.849
   72c3c     H6  630   1.629   0.740   0.831
   72c3c     H7  631   1.401   0.607   0.764
   72c3c     H8  632   1.544   0.589   0.662
   72c3c     H9  633   1.460   1.057   0.516
   72c3c    H10  634   1.338   0.957   0.442
   72c3c    H11  635   1.333   0.983   0.615
   72c3c    H12  636   1.493   0.815   0.343
   72c3c    H13  637   1.611   0.928   0.399
   72c3c     C7  638   1.670   0.724   0.420
   72c3c    H14  639   1.626   0.626   0.441
   72c3c    H15  640   1.747   0.742   0.494
   72c3c     C8  641   1.738   0.720   0.283
   72c3c    H16  642   1.795   0.811   0.263
   72c3c    H17  643   1.665   0.709   0.202
   72c3c    H18  644   1.806   0.635   0.275
   73c3c      N  645   2.304   1.795   3.236
   73c3c     C1  646   2.316   1.790   3.090
   73c3c     C2  647   2.305   1.655   3.280
   73c3c     C3  648   2.250   1.659   3.045
   73c3c     C4  649   2.232   1.576   3.172
   73c3c     C5  650   2.422   1.863   3.292
   73c3c     C6  651   2.185   1.868   3.284
   73c3c     H1  652   2.420   1.786   3.058
   73c3c     H2  653   2.273   1.877   3.040
   73c3c     H3  654   2.407   1.616   3.283
   73c3c     H4  655   2.264   1.640   3.379
   73c3c     H5  656   2.314   1.610   2.971
   73c3c     H6  657   2.154   1.676   2.996
   73c3c     H7  658   2.272   1.475   3.167
   73c3c     H8  659   2.126   1.562   3.194
   73c3c     H9  660   2.430   1.966   3.257
   73c3c    H10  661   2.417   1.866   3.401
   73c3c    H11  662   2.515   1.813   3.266
   73c3c    H12  663   2.178   1.859   3.393
   73c3c    H13  664   2.198   1.975   3.267
   73c3c     C7  665   2.048   1.833   3.223
   73c3c    H14  666   2.021   1.730   3.248
   73c3c    H15  667   2.051   1.843   3.114
   73c3c     C8  668   1.935   1.920   3.276
   73c3c    H16  669   1.955   2.026   3.260
   73c3c    H17  670   1.921   1.904   3.383
   73c3c    H18  671   1.840   1.897   3.226
   74c3c      N  672   0.886   1.825   2.135
   74c3c     C1  673   0.801   1.792   2.018
   74c3c     C2  674   1.026   1.800   2.096
   74c3c     C3  675   0.891   1.723   1.917
   74c3c     C4  676   1.026   1.784   1.946
   74c3c     C5  677   0.874   1.968   2.166
   74c3c     C6  678   0.841   1.751   2.254
   74c3c     H1  679   0.761   1.882   1.971
   74c3c     H2  680   0.715   1.730   2.043
   74c3c     H3  681   1.095   1.880   2.123
   74c3c     H4  682   1.070   1.712   2.143
   74c3c     H5  683   0.860   1.739   1.814
   74c3c     H6  684   0.893   1.615   1.935
   74c3c     H7  685   1.033   1.885   1.904
   74c3c     H8  686   1.109   1.725   1.908
   74c3c     H9  687   0.772   1.995   2.191
   74c3c    H10  688   0.936   1.995   2.251
   74c3c    H11  689   0.907   2.030   2.082
   74c3c    H12  690   0.896   1.788   2.341
   74c3c    H13  691   0.737   1.777   2.277
   74c3c     C7  692   0.852   1.597   2.248
   74c3c    H14  693   0.954   1.565   2.225
   74c3c    H15  694   0.789   1.553   2.171
   74c3c     C8  695   0.820   1.533   2.383
   74c3c    H16  696   0.713   1.527   2.402
   74c3c    H17  697   0.867   1.591   2.462
   74c3c    H18  698   0.865   1.434   2.388
   75c3c      N  699   2.423   0.741   2.813
   75c3c     C1  700   2.376   0.871   2.862
   75c3c     C2  701   2.508   0.686   2.920
   75c3c     C3  702   2.483   0.925   2.956
   75c3c     C4  703   2.565   0.804   2.999
   75c3c     C5  704   2.305   0.657   2.792
   75c3c     C6  705   2.492   0.747   2.683
   75c3c     H1  706   2.285   0.860   2.921
   75c3c     H2  707   2.349   0.939   2.781
   75c3c     H3  708   2.448   0.627   2.990
   75c3c     H4  709   2.585   0.618   2.883
   75c3c     H5  710   2.436   0.971   3.043
   75c3c     H6  711   2.544   1.000   2.906
   75c3c     H7  712   2.555   0.788   3.106
   75c3c     H8  713   2.671   0.820   2.977
   75c3c     H9  714   2.239   0.706   2.721
   75c3c    H10  715   2.329   0.559   2.752
   75c3c    H11  716   2.247   0.642   2.883
   75c3c    H12  717   2.509   0.645   2.648
   75c3c    H13  718   2.424   0.791   2.610
   75c3c     C7  719   2.627   0.820   2.671
   75c3c    H14  720   2.698   0.779   2.743
   75c3c    H15  721   2.614   0.926   2.696
   75c3c     C8  722   2.683   0.803   2.529
   75c3c    H16  723   2.625   0.859   2.455
   75c3c    H17  724   2.677   0.699   2.498
   75c3c    H18  725   2.788   0.831   2.519
   76c3c      N  726   2.443   2.085   2.661
   76c3c     C1  727   2.462   1.996   2.777
   76c3c     C2  728   2.466   2.004   2.540
   76c3c     C3  729   2.549   1.880   2.731
   76c3c     C4  730   2.550   1.883   2.579
   76c3c     C5  731   2.305   2.133   2.655
   76c3c     C6  732   2.533   2.202   2.668
   76c3c     H1  733   2.367   1.957   2.814
   76c3c     H2  734   2.506   2.046   2.863
   76c3c     H3  735   2.372   1.965   2.500
   76c3c     H4  736   2.510   2.062   2.460
   76c3c     H5  737   2.513   1.784   2.770
   76c3c     H6  738   2.652   1.893   2.766
   76c3c     H7  739   2.507   1.792   2.537
   76c3c     H8  740   2.652   1.892   2.541
   76c3c     H9  741   2.277   2.196   2.739
   76c3c    H10  742   2.287   2.190   2.564
   76c3c    H11  743   2.233   2.051   2.653
   76c3c    H12  744   2.515   2.265   2.581
   76c3c    H13  745   2.505   2.262   2.754
   76c3c     C7  746   2.685   2.175   2.677
   76c3c    H14  747   2.718   2.112   2.594
   76c3c    H15  748   2.710   2.121   2.768
   76c3c     C8  749   2.765   2.306   2.674
   76c3c    H16  750   2.734   2.373   2.754
   76c3c    H17  751   2.752   2.360   2.580
   76c3c    H18  752   2.872   2.286   2.686
   77c3c      N  753   2.209   1.679   2.143
   77c3c     C1  754   2.075   1.738   2.146
   77c3c     C2  755   2.296   1.764   2.224
   77c3c     C3  756   2.087   1.879   2.205
   77c3c     C4  757   2.235   1.904   2.217
   77c3c     C5  758   2.203   1.546   2.203
   77c3c     C6  759   2.256   1.662   2.005
   77c3c     H1  760   2.005   1.678   2.205
   77c3c     H2  761   2.030   1.742   2.046
   77c3c     H3  762   2.293   1.733   2.328
   77c3c     H4  763   2.400   1.759   2.192
   77c3c     H5  764   2.040   1.884   2.304
   77c3c     H6  765   2.042   1.956   2.143
   77c3c     H7  766   2.257   1.965   2.304
   77c3c     H8  767   2.267   1.958   2.128
   77c3c     H9  768   2.134   1.482   2.148
   77c3c    H10  769   2.301   1.497   2.205
   77c3c    H11  770   2.168   1.550   2.306
   77c3c    H12  771   2.352   1.611   2.006
   77c3c    H13  772   2.186   1.597   1.953
   77c3c     C7  773   2.273   1.787   1.918
   77c3c    H14  774   2.347   1.855   1.959
   77c3c    H15  775   2.179   1.842   1.910
   77c3c     C8  776   2.320   1.746   1.779
   77c3c    H16  777   2.247   1.686   1.725
   77c3c    H17  778   2.412   1.688   1.787
   77c3c    H18  779   2.342   1.835   1.720
   78c3c      N  780   2.647   0.985   1.016
   78c3c     C1  781   2.504   0.964   1.046
   78c3c     C2  782   2.686   0.883   0.918
   78c3c     C3  783   2.466   0.826   0.992
   78c3c     C4  784   2.590   0.766   0.931
   78c3c     C5  785   2.664   1.119   0.957
   78c3c     C6  786   2.728   0.981   1.138
   78c3c     H1  787   2.440   1.037   0.998
   78c3c     H2  788   2.480   0.975   1.152
   78c3c     H3  789   2.680   0.920   0.816
   78c3c     H4  790   2.789   0.848   0.930
   78c3c     H5  791   2.389   0.836   0.916
   78c3c     H6  792   2.431   0.760   1.071
   78c3c     H7  793   2.570   0.720   0.834
   78c3c     H8  794   2.629   0.690   0.998
   78c3c     H9  795   2.621   1.197   1.019
   78c3c    H10  796   2.769   1.144   0.942
   78c3c    H11  797   2.617   1.127   0.859
   78c3c    H12  798   2.833   0.992   1.108
   78c3c    H13  799   2.704   1.067   1.200
   78c3c     C7  800   2.718   0.854   1.224
   78c3c    H14  801   2.756   0.769   1.167
   78c3c    H15  802   2.615   0.831   1.251
   78c3c     C8  803   2.799   0.867   1.354
   78c3c    H16  804   2.761   0.948   1.417
   78c3c    H17  805   2.904   0.887   1.334
   78c3c    H18  806   2.793   0.775   1.413
   79c3c      N  807   1.877   1.263   2.415
   79c3c     C1  808   1.737   1.308   2.399
   79c3c     C2  809   1.889   1.128   2.357
   79c3c     C3  810   1.652   1.185   2.366
   79c3c     C4  811   1.748   1.073   2.333
   79c3c     C5  812   1.962   1.357   2.341
   79c3c     C6  813   1.926   1.262   2.554
   79c3c     H1  814   1.726   1.378   2.316
   79c3c     H2  815   1.700   1.361   2.487
   79c3c     H3  816   1.947   1.127   2.265
   79c3c     H4  817   1.944   1.060   2.422
   79c3c     H5  818   1.586   1.205   2.282
   79c3c     H6  819   1.589   1.157   2.451
   79c3c     H7  820   1.736   1.040   2.229
   79c3c     H8  821   1.730   0.986   2.397
   79c3c     H9  822   1.948   1.458   2.379
   79c3c    H10  823   2.068   1.335   2.354
   79c3c    H11  824   1.940   1.358   2.235
   79c3c    H12  825   2.028   1.225   2.556
   79c3c    H13  826   1.933   1.363   2.594
   79c3c     C7  827   1.840   1.178   2.650
   79c3c    H14  828   1.808   1.085   2.604
   79c3c    H15  829   1.750   1.234   2.672
   79c3c     C8  830   1.911   1.141   2.780
   79c3c    H16  831   1.919   1.227   2.847
   79c3c    H17  832   2.011   1.102   2.760
   79c3c    H18  833   1.857   1.063   2.833
   80c3c      N  834   0.527   1.629   0.858
   80c3c     C1  835   0.450   1.750   0.889
   80c3c     C2  836   0.436   1.542   0.784
   80c3c     C3  837   0.301   1.714   0.889
   80c3c     C4  838   0.293   1.573   0.832
   80c3c     C5  839   0.642   1.664   0.772
   80c3c     C6  840   0.582   1.564   0.979
   80c3c     H1  841   0.464   1.825   0.811
   80c3c     H2  842   0.483   1.798   0.981
   80c3c     H3  843   0.440   1.568   0.679
   80c3c     H4  844   0.461   1.436   0.791
   80c3c     H5  845   0.245   1.784   0.827
   80c3c     H6  846   0.259   1.718   0.990
   80c3c     H7  847   0.222   1.569   0.750
   80c3c     H8  848   0.259   1.503   0.908
   80c3c     H9  849   0.710   1.735   0.819
   80c3c    H10  850   0.701   1.577   0.745
   80c3c    H11  851   0.611   1.714   0.680
   80c3c    H12  852   0.640   1.476   0.952
   80c3c    H13  853   0.657   1.631   1.023
   80c3c     C7  854   0.486   1.527   1.093
   80c3c    H14  855   0.410   1.458   1.057
   80c3c    H15  856   0.434   1.616   1.130
   80c3c     C8  857   0.562   1.462   1.209
   80c3c    H16  858   0.646   1.523   1.241
   80c3c    H17  859   0.602   1.365   1.181
   80c3c    H18  860   0.498   1.449   1.297
   81c3c      N  861   1.330   0.697   1.879
   81c3c     C1  862   1.401   0.819   1.844
   81c3c     C2  863   1.431   0.590   1.878
   81c3c     C3  864   1.516   0.780   1.753
   81c3c     C4  865   1.542   0.634   1.782
   81c3c     C5  866   1.275   0.711   2.014
   81c3c     C6  867   1.217   0.667   1.788
   81c3c     H1  868   1.445   0.867   1.931
   81c3c     H2  869   1.335   0.892   1.797
   81c3c     H3  870   1.476   0.578   1.977
   81c3c     H4  871   1.389   0.493   1.852
   81c3c     H5  872   1.604   0.842   1.773
   81c3c     H6  873   1.491   0.792   1.647
   81c3c     H7  874   1.640   0.620   1.829
   81c3c     H8  875   1.541   0.577   1.689
   81c3c     H9  876   1.206   0.795   2.020
   81c3c    H10  877   1.223   0.621   2.047
   81c3c    H11  878   1.353   0.732   2.088
   81c3c    H12  879   1.166   0.578   1.824
   81c3c    H13  880   1.145   0.748   1.796
   81c3c     C7  881   1.247   0.648   1.638
   81c3c    H14  882   1.321   0.570   1.622
   81c3c    H15  883   1.285   0.740   1.594
   81c3c     C8  884   1.120   0.608   1.563
   81c3c    H16  885   1.041   0.682   1.578
   81c3c    H17  886   1.082   0.512   1.596
   81c3c    H18  887   1.139   0.601   1.456
   82c3c      N  888   0.301   1.105   1.268
   82c3c     C1  889   0.210   1.000   1.219
   82c3c     C2  890   0.437   1.049   1.262
   82c3c     C3  891   0.276   0.866   1.250
   82c3c     C4  892   0.423   0.897   1.275
   82c3c     C5  893   0.292   1.220   1.177
   82c3c     C6  894   0.267   1.156   1.403
   82c3c     H1  895   0.200   1.005   1.111
   82c3c     H2  896   0.109   1.008   1.259
   82c3c     H3  897   0.484   1.068   1.165
   82c3c     H4  898   0.506   1.091   1.335
   82c3c     H5  899   0.265   0.797   1.166
   82c3c     H6  900   0.232   0.818   1.337
   82c3c     H7  901   0.486   0.846   1.202
   82c3c     H8  902   0.451   0.863   1.374
   82c3c     H9  903   0.191   1.261   1.173
   82c3c    H10  904   0.360   1.299   1.208
   82c3c    H11  905   0.319   1.193   1.075
   82c3c    H12  906   0.338   1.234   1.430
   82c3c    H13  907   0.170   1.204   1.400
   82c3c     C7  908   0.265   1.054   1.519
   82c3c    H14  909   0.360   1.002   1.526
   82c3c    H15  910   0.189   0.978   1.502
   82c3c     C8  911   0.238   1.121   1.654
   82c3c    H16  912   0.139   1.167   1.657
   82c3c    H17  913   0.312   1.200   1.674
   82c3c    H18  914   0.245   1.049   1.736
   83c3c      N  915   3.099   0.768   2.053
   83c3c     C1  916   3.229   0.699   2.065
   83c3c     C2  917   3.023   0.684   1.960
   83c3c     C3  918   3.257   0.631   1.931
   83c3c     C4  919   3.123   0.627   1.860
   83c3c     C5  920   3.033   0.770   2.184
   83c3c     C6  921   3.112   0.909   2.007
   83c3c     H1  922   3.222   0.620   2.140
   83c3c     H2  923   3.309   0.765   2.098
   83c3c     H3  924   2.979   0.600   2.014
   83c3c     H4  925   2.939   0.736   1.913
   83c3c     H5  926   3.295   0.529   1.947
   83c3c     H6  927   3.331   0.684   1.871
   83c3c     H7  928   3.098   0.524   1.834
   83c3c     H8  929   3.126   0.682   1.766
   83c3c     H9  930   3.089   0.826   2.259
   83c3c    H10  931   2.933   0.813   2.179
   83c3c    H11  932   3.019   0.670   2.225
   83c3c    H12  933   3.011   0.950   2.004
   83c3c    H13  934   3.164   0.966   2.083
   83c3c     C7  935   3.177   0.936   1.869
   83c3c    H14  936   3.118   0.891   1.789
   83c3c    H15  937   3.277   0.895   1.866
   83c3c     C8  938   3.188   1.085   1.834
   83c3c    H16  939   3.212   1.146   1.921
   83c3c    H17  940   3.095   1.120   1.790
   83c3c    H18  941   3.266   1.102   1.760
   84c3c      N  942   1.179   1.453   2.824
   84c3c     C1  943   1.272   1.534   2.744
   84c3c     C2  944   1.170   1.321   2.760
   84c3c     C3  945   1.291   1.466   2.608
   84c3c     C4  946   1.214   1.336   2.615
   84c3c     C5  947   1.232   1.440   2.960
   84c3c     C6  948   1.047   1.516   2.839
   84c3c     H1  949   1.370   1.542   2.790
   84c3c     H2  950   1.238   1.637   2.734
   84c3c     H3  951   1.237   1.249   2.807
   84c3c     H4  952   1.071   1.274   2.769
   84c3c     H5  953   1.396   1.447   2.588
   84c3c     H6  954   1.254   1.526   2.525
   84c3c     H7  955   1.279   1.253   2.586
   84c3c     H8  956   1.129   1.338   2.546
   84c3c     H9  957   1.241   1.538   3.009
   84c3c    H10  958   1.169   1.377   3.023
   84c3c    H11  959   1.331   1.396   2.962
   84c3c    H12  960   0.986   1.455   2.905
   84c3c    H13  961   1.058   1.612   2.889
   84c3c     C7  962   0.968   1.540   2.709
   84c3c    H14  963   0.954   1.448   2.654
   84c3c    H15  964   1.021   1.609   2.644
   84c3c     C8  965   0.830   1.597   2.743
   84c3c    H16  966   0.840   1.693   2.795
   84c3c    H17  967   0.774   1.530   2.807
   84c3c    H18  968   0.770   1.614   2.654
   85c3c      N  969   1.220   0.531   2.538
   85c3c     C1  970   1.355   0.517   2.596
   85c3c     C2  971   1.235   0.591   2.404
   85c3c     C3  972   1.456   0.562   2.491
   85c3c     C4  973   1.377   0.645   2.392
   85c3c     C5  974   1.161   0.398   2.522
   85c3c     C6  975   1.126   0.605   2.625
   85c3c     H1  976   1.378   0.415   2.628
   85c3c     H2  977   1.371   0.576   2.687
   85c3c     H3  978   1.223   0.516   2.325
   85c3c     H4  979   1.162   0.669   2.382
   85c3c     H5  980   1.498   0.475   2.441
   85c3c     H6  981   1.538   0.620   2.533
   85c3c     H7  982   1.417   0.634   2.292
   85c3c     H8  983   1.381   0.751   2.419
   85c3c     H9  984   1.140   0.352   2.619
   85c3c    H10  985   1.067   0.402   2.467
   85c3c    H11  986   1.227   0.330   2.470
   85c3c    H12  987   1.029   0.612   2.576
   85c3c    H13  988   1.108   0.548   2.717
   85c3c     C7  989   1.173   0.744   2.671
   85c3c    H14  990   1.221   0.797   2.589
   85c3c    H15  991   1.248   0.732   2.749
   85c3c     C8  992   1.061   0.829   2.733
   85c3c    H16  993   1.023   0.778   2.822
   85c3c    H17  994   0.977   0.846   2.667
   85c3c    H18  995   1.100   0.925   2.765
   86c3c      N  996   2.623   1.374   1.582
   86c3c     C1  997   2.754   1.443   1.587
   86c3c     C2  998   2.649   1.230   1.604
   86c3c     C3  999   2.859   1.336   1.613
   86c3c     C4 1000   2.795   1.208   1.564
   86c3c     C5 1001   2.540   1.421   1.692
   86c3c     C6 1002   2.548   1.403   1.459
   86c3c     H1 1003   2.760   1.520   1.663
   86c3c     H2 1004   2.777   1.495   1.494
   86c3c     H3 1005   2.643   1.205   1.709
   86c3c     H4 1006   2.579   1.164   1.553
   86c3c     H5 1007   2.877   1.330   1.720
   86c3c     H6 1008   2.955   1.359   1.566
   86c3c     H7 1009   2.838   1.120   1.609
   86c3c     H8 1010   2.803   1.199   1.455
   86c3c     H9 1011   2.523   1.528   1.686
   86c3c    H10 1012   2.444   1.371   1.695
   86c3c    H11 1013   2.590   1.402   1.788
   86c3c    H12 1014   2.449   1.357   1.465
   86c3c    H13 1015   2.530   1.511   1.454
   86c3c     C7 1016   2.612   1.360   1.325
   86c3c    H14 1017   2.625   1.252   1.322
   86c3c    H15 1018   2.710   1.406   1.312
   86c3c     C8 1019   2.525   1.403   1.206
   86c3c    H16 1020   2.499   1.509   1.213
   86c3c    H17 1021   2.433   1.345   1.201
   86c3c    H18 1022   2.578   1.390   1.112
   87c3c      N 1023   2.450   3.005   0.875
   87c3c     C1 1024   2.572   3.085   0.894
   87c3c     C2 1025   2.478   2.919   0.759
   87c3c     C3 1026   2.635   3.105   0.755
   87c3c     C4 1027   2.585   2.987   0.673
   87c3c     C5 1028   2.428   2.921   0.993
   87c3c     C6 1029   2.327   3.086   0.857
   87c3c     H1 1030   2.645   3.031   0.953
   87c3c     H2 1031   2.555   3.179   0.946
   87c3c     H3 1032   2.522   2.825   0.793
   87c3c     H4 1033   2.389   2.892   0.703
   87c3c     H5 1034   2.744   3.106   0.760
   87c3c     H6 1035   2.604   3.199   0.709
   87c3c     H7 1036   2.667   2.918   0.654
   87c3c     H8 1037   2.546   3.020   0.576
   87c3c     H9 1038   2.413   2.980   1.083
   87c3c    H10 1039   2.342   2.856   0.981
   87c3c    H11 1040   2.513   2.856   1.012
   87c3c    H12 1041   2.243   3.018   0.846
   87c3c    H13 1042   2.307   3.141   0.949
   87c3c     C7 1043   2.323   3.186   0.740
   87c3c    H14 1044   2.343   3.134   0.645
   87c3c    H15 1045   2.400   3.262   0.752
   87c3c     C8 1046   2.188   3.257   0.729
   87c3c    H16 1047   2.166   3.314   0.818
   87c3c    H17 1048   2.108   3.185   0.714
   87c3c    H18 1049   2.187   3.325   0.644
   88c3c      N 1050   0.336   1.734   0.320
   88c3c     C1 1051   0.270   1.692   0.445
   88c3c     C2 1052   0.315   1.625   0.222
   88c3c     C3 1053   0.268   1.539   0.446
   88c3c     C4 1054   0.268   1.500   0.299
   88c3c     C5 1055   0.271   1.857   0.272
   88c3c     C6 1056   0.479   1.768   0.336
   88c3c     H1 1057   0.166   1.725   0.447
   88c3c     H2 1058   0.317   1.735   0.534
   88c3c     H3 1059   0.239   1.650   0.149
   88c3c     H4 1060   0.405   1.604   0.164
   88c3c     H5 1061   0.181   1.500   0.497
   88c3c     H6 1062   0.356   1.495   0.493
   88c3c     H7 1063   0.168   1.472   0.268
   88c3c     H8 1064   0.333   1.414   0.282
   88c3c     H9 1065   0.280   1.938   0.343
   88c3c    H10 1066   0.314   1.892   0.178
   88c3c    H11 1067   0.164   1.843   0.254
   88c3c    H12 1068   0.519   1.802   0.241
   88c3c    H13 1069   0.488   1.854   0.402
   88c3c     C7 1070   0.572   1.658   0.390
   88c3c    H14 1071   0.576   1.573   0.322
   88c3c    H15 1072   0.536   1.621   0.486
   88c3c     C8 1073   0.714   1.711   0.412
   88c3c    H16 1074   0.714   1.797   0.479
   88c3c    H17 1075   0.760   1.743   0.319
   88c3c    H18 1076   0.778   1.635   0.457
   89c3c      N 1077   1.832   2.643   1.680
   89c3c     C1 1078   1.860   2.659   1.823
   89c3c     C2 1079   1.878   2.767   1.615
   89c3c     C3 1080   1.866   2.808   1.854
   89c3c     C4 1081   1.918   2.867   1.725
   89c3c     C5 1082   1.908   2.527   1.632
   89c3c     C6 1083   1.689   2.619   1.653
   89c3c     H1 1084   1.959   2.620   1.845
   89c3c     H2 1085   1.788   2.603   1.882
   89c3c     H3 1086   1.964   2.747   1.552
   89c3c     H4 1087   1.806   2.809   1.545
   89c3c     H5 1088   1.932   2.829   1.938
   89c3c     H6 1089   1.768   2.849   1.879
   89c3c     H7 1090   2.026   2.873   1.730
   89c3c     H8 1091   1.879   2.967   1.707
   89c3c     H9 1092   1.875   2.435   1.681
   89c3c    H10 1093   1.899   2.513   1.525
   89c3c    H11 1094   2.015   2.534   1.652
   89c3c    H12 1095   1.679   2.606   1.546
   89c3c    H13 1096   1.660   2.522   1.694
   89c3c     C7 1097   1.593   2.729   1.705
   89c3c    H14 1098   1.621   2.827   1.667
   89c3c    H15 1099   1.599   2.733   1.814
   89c3c     C8 1100   1.447   2.706   1.671
   89c3c    H16 1101   1.419   2.601   1.686
   89c3c    H17 1102   1.427   2.730   1.567
   89c3c    H18 1103   1.383   2.770   1.732
   90c3c      N 1104   1.689   1.684   2.980
   90c3c     C1 1105   1.685   1.617   2.849
   90c3c     C2 1106   1.828   1.668   3.024
   90c3c     C3 1107   1.792   1.507   2.848
   90c3c     C4 1108   1.880   1.535   2.968
   90c3c     C5 1109   1.659   1.827   2.965
   90c3c     C6 1110   1.590   1.632   3.078
   90c3c     H1 1111   1.713   1.687   2.770
   90c3c     H2 1112   1.586   1.581   2.822
   90c3c     H3 1113   1.890   1.746   2.981
   90c3c     H4 1114   1.838   1.673   3.133
   90c3c     H5 1115   1.849   1.511   2.755
   90c3c     H6 1116   1.750   1.407   2.856
   90c3c     H7 1117   1.984   1.543   2.937
   90c3c     H8 1118   1.873   1.454   3.039
   90c3c     H9 1119   1.559   1.843   2.923
   90c3c    H10 1120   1.664   1.881   3.059
   90c3c    H11 1121   1.728   1.878   2.898
   90c3c    H12 1122   1.598   1.691   3.169
   90c3c    H13 1123   1.490   1.651   3.039
   90c3c     C7 1124   1.596   1.484   3.119
   90c3c    H14 1125   1.693   1.459   3.162
   90c3c    H15 1126   1.583   1.419   3.032
   90c3c     C8 1127   1.489   1.450   3.224
   90c3c    H16 1128   1.389   1.477   3.190
   90c3c    H17 1129   1.508   1.502   3.317
   90c3c    H18 1130   1.489   1.343   3.245
   91c3c      N 1131   1.199   1.958   1.591
   91c3c     C1 1132   1.262   2.037   1.483
   91c3c     C2 1133   1.236   1.820   1.558
   91c3c     C3 1134   1.247   1.956   1.355
   91c3c     C4 1135   1.244   1.811   1.404
   91c3c     C5 1136   1.258   2.003   1.717
   91c3c     C6 1137   1.054   1.979   1.613
   91c3c     H1 1138   1.370   2.045   1.498
   91c3c     H2 1139   1.229   2.141   1.478
   91c3c     H3 1140   1.336   1.797   1.596
   91c3c     H4 1141   1.169   1.745   1.599
   91c3c     H5 1142   1.329   1.974   1.286
   91c3c     H6 1143   1.155   1.979   1.300
   91c3c     H7 1144   1.334   1.759   1.372
   91c3c     H8 1145   1.158   1.759   1.361
   91c3c     H9 1146   1.219   2.100   1.748
   91c3c    H10 1147   1.240   1.932   1.798
   91c3c    H11 1148   1.365   2.020   1.708
   91c3c    H12 1149   1.026   1.928   1.706
   91c3c    H13 1150   1.034   2.085   1.628
   91c3c     C7 1151   0.953   1.925   1.514
   91c3c    H14 1152   0.959   1.817   1.505
   91c3c    H15 1153   0.978   1.963   1.414
   91c3c     C8 1154   0.810   1.968   1.552
   91c3c    H16 1155   0.801   2.076   1.557
   91c3c    H17 1156   0.780   1.926   1.648
   91c3c    H18 1157   0.738   1.934   1.477
   92c3c      N 1158   0.288   2.499   0.945
   92c3c     C1 1159   0.182   2.596   0.913
   92c3c     C2 1160   0.351   2.548   1.068
   92c3c     C3 1161   0.220   2.730   0.978
   92c3c     C4 1162   0.342   2.702   1.063
   92c3c     C5 1163   0.229   2.367   0.973
   92c3c     C6 1164   0.383   2.477   0.835
   92c3c     H1 1165   0.087   2.567   0.956
   92c3c     H2 1166   0.166   2.607   0.806
   92c3c     H3 1167   0.299   2.516   1.157
   92c3c     H4 1168   0.453   2.511   1.076
   92c3c     H5 1169   0.139   2.767   1.042
   92c3c     H6 1170   0.243   2.807   0.905
   92c3c     H7 1171   0.335   2.745   1.163
   92c3c     H8 1172   0.429   2.747   1.015
   92c3c     H9 1173   0.177   2.328   0.886
   92c3c    H10 1174   0.305   2.295   1.002
   92c3c    H11 1175   0.157   2.372   1.055
   92c3c    H12 1176   0.452   2.396   0.861
   92c3c    H13 1177   0.330   2.441   0.747
   92c3c     C7 1178   0.472   2.594   0.791
   92c3c    H14 1179   0.542   2.620   0.870
   92c3c    H15 1180   0.413   2.683   0.768
   92c3c     C8 1181   0.552   2.555   0.667
   92c3c    H16 1182   0.488   2.545   0.579
   92c3c    H17 1183   0.603   2.460   0.680
   92c3c    H18 1184   0.629   2.630   0.644
   93c3c      N 1185   1.877   0.324   2.428
   93c3c     C1 1186   2.014   0.374   2.414
   93c3c     C2 1187   1.878   0.186   2.376
   93c3c     C3 1188   2.076   0.300   2.295
   93c3c     C4 1189   1.995   0.173   2.278
   93c3c     C5 1190   1.842   0.322   2.571
   93c3c     C6 1191   1.775   0.407   2.362
   93c3c     H1 1192   2.076   0.351   2.501
   93c3c     H2 1193   2.020   0.482   2.402
   93c3c     H3 1194   1.896   0.114   2.456
   93c3c     H4 1195   1.784   0.158   2.329
   93c3c     H5 1196   2.182   0.280   2.310
   93c3c     H6 1197   2.066   0.358   2.203
   93c3c     H7 1198   2.057   0.086   2.302
   93c3c     H8 1199   1.962   0.163   2.174
   93c3c     H9 1200   1.849   0.420   2.617
   93c3c    H10 1201   1.742   0.284   2.589
   93c3c    H11 1202   1.910   0.259   2.628
   93c3c    H12 1203   1.678   0.358   2.371
   93c3c    H13 1204   1.764   0.502   2.415
   93c3c     C7 1205   1.797   0.444   2.214
   93c3c    H14 1206   1.808   0.355   2.153
   93c3c    H15 1207   1.888   0.503   2.205
   93c3c     C8 1208   1.682   0.529   2.158
   93c3c    H16 1209   1.673   0.624   2.210
   93c3c    H17 1210   1.587   0.477   2.167
   93c3c    H18 1211   1.698   0.550   2.052
   94c3c      N 1212   1.169   1.455   0.334
   94c3c     C1 1213   1.224   1.320   0.315
   94c3c     C2 1214   1.284   1.544   0.359
   94c3c     C3 1215   1.353   1.315   0.396
   94c3c     C4 1216   1.405   1.457   0.396
   94c3c     C5 1217   1.102   1.495   0.209
   94c3c     C6 1218   1.065   1.462   0.440
   94c3c     H1 1219   1.253   1.304   0.211
   94c3c     H2 1220   1.155   1.240   0.340
   94c3c     H3 1221   1.313   1.601   0.270
   94c3c     H4 1222   1.264   1.620   0.435
   94c3c     H5 1223   1.424   1.244   0.354
   94c3c     H6 1224   1.335   1.282   0.499
   94c3c     H7 1225   1.481   1.468   0.318
   94c3c     H8 1226   1.450   1.485   0.491
   94c3c     H9 1227   1.022   1.427   0.182
   94c3c    H10 1228   1.060   1.595   0.216
   94c3c    H11 1229   1.172   1.496   0.125
   94c3c    H12 1230   1.021   1.561   0.440
   94c3c    H13 1231   0.984   1.394   0.415
   94c3c     C7 1232   1.110   1.433   0.585
   94c3c    H14 1233   1.183   1.507   0.617
   94c3c    H15 1234   1.158   1.335   0.590
   94c3c     C8 1235   0.995   1.429   0.686
   94c3c    H16 1236   0.927   1.347   0.665
   94c3c    H17 1237   0.937   1.522   0.686
   94c3c    H18 1238   1.033   1.416   0.788
   95c3c      N 1239   1.098   2.159   2.657
   95c3c     C1 1240   0.992   2.137   2.558
   95c3c     C2 1241   1.095   2.040   2.745
   95c3c     C3 1242   0.886   2.046   2.620
   95c3c     C4 1243   0.959   1.971   2.730
   95c3c     C5 1244   1.228   2.172   2.590
   95c3c     C6 1245   1.083   2.285   2.732
   95c3c     H1 1246   1.030   2.086   2.469
   95c3c     H2 1247   0.948   2.231   2.526
   95c3c     H3 1248   1.168   1.966   2.713
   95c3c     H4 1249   1.119   2.063   2.848
   95c3c     H5 1250   0.844   1.977   2.547
   95c3c     H6 1251   0.803   2.102   2.663
   95c3c     H7 1252   0.973   1.867   2.701
   95c3c     H8 1253   0.901   1.973   2.823
   95c3c     H9 1254   1.235   2.259   2.526
   95c3c    H10 1255   1.310   2.182   2.662
   95c3c    H11 1256   1.252   2.085   2.528
   95c3c    H12 1257   1.166   2.295   2.802
   95c3c    H13 1258   1.094   2.369   2.664
   95c3c     C7 1259   0.954   2.308   2.811
   95c3c    H14 1260   0.942   2.233   2.889
   95c3c    H15 1261   0.866   2.301   2.746
   95c3c     C8 1262   0.957   2.448   2.872
   95c3c    H16 1263   0.962   2.525   2.795
   95c3c    H17 1264   1.042   2.461   2.938
   95c3c    H18 1265   0.867   2.467   2.930
   96c3c      N 1266   0.289   1.579   1.925
   96c3c     C1 1267   0.430   1.617   1.907
   96c3c     C2 1268   0.212   1.704   1.908
   96c3c     C3 1269   0.443   1.765   1.949
   96c3c     C4 1270   0.301   1.819   1.954
   96c3c     C5 1271   0.250   1.484   1.821
   96c3c     C6 1272   0.263   1.512   2.055
   96c3c     H1 1273   0.459   1.611   1.802
   96c3c     H2 1274   0.498   1.552   1.961
   96c3c     H3 1275   0.190   1.721   1.802
   96c3c     H4 1276   0.115   1.703   1.958
   96c3c     H5 1277   0.503   1.820   1.877
   96c3c     H6 1278   0.490   1.775   2.047
   96c3c     H7 1279   0.289   1.906   1.890
   96c3c     H8 1280   0.277   1.851   2.056
   96c3c     H9 1281   0.308   1.391   1.827
   96c3c    H10 1282   0.145   1.457   1.827
   96c3c    H11 1283   0.266   1.523   1.720
   96c3c    H12 1284   0.157   1.484   2.059
   96c3c    H13 1285   0.318   1.418   2.058
   96c3c     C7 1286   0.295   1.589   2.185
   96c3c    H14 1287   0.238   1.681   2.191
   96c3c    H15 1288   0.401   1.615   2.189
   96c3c     C8 1289   0.263   1.505   2.310
   96c3c    H16 1290   0.320   1.412   2.312
   96c3c    H17 1291   0.157   1.480   2.314
   96c3c    H18 1292   0.287   1.560   2.401
   97c3c      N 1293   2.884   1.124   3.191
   97c3c     C1 1294   3.001   1.086   3.110
   97c3c     C2 1295   2.769   1.131   3.100
   97c3c     C3 1296   2.963   1.092   2.962
   97c3c     C4 1297   2.822   1.145   2.957
   97c3c     C5 1298   2.858   1.020   3.292
   97c3c     C6 1299   2.907   1.250   3.264
   97c3c     H1 1300   3.031   0.984   3.133
   97c3c     H2 1301   3.090   1.146   3.131
   97c3c     H3 1302   2.708   1.041   3.105
   97c3c     H4 1303   2.703   1.212   3.129
   97c3c     H5 1304   2.966   0.992   2.919
   97c3c     H6 1305   3.031   1.155   2.904
   97c3c     H7 1306   2.762   1.088   2.887
   97c3c     H8 1307   2.822   1.250   2.925
   97c3c     H9 1308   2.941   1.008   3.361
   97c3c    H10 1309   2.769   1.043   3.351
   97c3c    H11 1310   2.841   0.923   3.247
   97c3c    H12 1311   2.821   1.272   3.327
   97c3c    H13 1312   2.989   1.235   3.333
   97c3c     C7 1313   2.937   1.376   3.178
   97c3c    H14 1314   2.848   1.406   3.122
   97c3c    H15 1315   3.015   1.357   3.105
   97c3c     C8 1316   2.983   1.492   3.267
   97c3c    H16 1317   3.062   1.461   3.335
   97c3c    H17 1318   2.901   1.530   3.328
   97c3c    H18 1319   3.023   1.574   3.208
   98c3c      N 1320   1.396   1.288   0.882
   98c3c     C1 1321   1.320   1.256   1.003
   98c3c     C2 1322   1.536   1.253   0.906
   98c3c     C3 1323   1.418   1.269   1.119
   98c3c     C4 1324   1.552   1.235   1.057
   98c3c     C5 1325   1.346   1.202   0.775
   98c3c     C6 1326   1.380   1.429   0.840
   98c3c     H1 1327   1.287   1.152   1.002
   98c3c     H2 1328   1.231   1.317   1.016
   98c3c     H3 1329   1.567   1.159   0.859
   98c3c     H4 1330   1.605   1.327   0.866
   98c3c     H5 1331   1.394   1.200   1.199
   98c3c     H6 1332   1.419   1.370   1.161
   98c3c     H7 1333   1.576   1.131   1.077
   98c3c     H8 1334   1.632   1.297   1.099
   98c3c     H9 1335   1.241   1.220   0.754
   98c3c    H10 1336   1.406   1.217   0.685
   98c3c    H11 1337   1.356   1.097   0.802
   98c3c    H12 1338   1.435   1.445   0.747
   98c3c    H13 1339   1.275   1.448   0.817
   98c3c     C7 1340   1.425   1.537   0.940
   98c3c    H14 1341   1.527   1.520   0.973
   98c3c    H15 1342   1.362   1.535   1.029
   98c3c     C8 1343   1.415   1.678   0.880
   98c3c    H16 1344   1.316   1.697   0.839
   98c3c    H17 1345   1.488   1.692   0.800
   98c3c    H18 1346   1.434   1.754   0.955
   99c3c      N 1347   1.756   1.831   1.877
   99c3c     C1 1348   1.729   1.856   1.735
   99c3c     C2 1349   1.629   1.837   1.950
   99c3c     C3 1350   1.596   1.926   1.725
   99c3c     C4 1351   1.525   1.893   1.855
   99c3c     C5 1352   1.813   1.697   1.888
   99c3c     C6 1353   1.852   1.926   1.935
   99c3c     H1 1354   1.724   1.765   1.675
   99c3c     H2 1355   1.806   1.918   1.688
   99c3c     H3 1356   1.595   1.738   1.983
   99c3c     H4 1357   1.633   1.896   2.041
   99c3c     H5 1358   1.541   1.890   1.638
   99c3c     H6 1359   1.608   2.034   1.713
   99c3c     H7 1360   1.447   1.819   1.837
   99c3c     H8 1361   1.477   1.981   1.898
   99c3c     H9 1362   1.908   1.688   1.836
   99c3c    H10 1363   1.829   1.669   1.993
   99c3c    H11 1364   1.746   1.622   1.846
   99c3c    H12 1365   1.860   1.903   2.042
   99c3c    H13 1366   1.951   1.908   1.893
   99c3c     C7 1367   1.820   2.076   1.922
   99c3c    H14 1368   1.726   2.098   1.973
   99c3c    H15 1369   1.808   2.105   1.818
   99c3c     C8 1370   1.929   2.164   1.983
   99c3c    H16 1371   2.027   2.147   1.937
   99c3c    H17 1372   1.940   2.147   2.090
   99c3c    H18 1373   1.904   2.268   1.967
  100c3c      N 1374   0.942   0.297   0.616
  100c3c     C1 1375   1.043   0.191   0.604
  100c3c     C2 1376   1.015   0.424   0.598
  100c3c     C3 1377   1.182   0.253   0.623
  100c3c     C4 1378   1.158   0.401   0.648
  100c3c     C5 1379   0.845   0.282   0.507
  100c3c     C6 1380   0.865   0.294   0.742
  100c3c     H1 1381   1.042   0.146   0.505
  100c3c     H2 1382   1.024   0.108   0.673
  100c3c     H3 1383   1.023   0.445   0.491
  100c3c     H4 1384   0.967   0.510   0.644
  100c3c     H5 1385   1.241   0.239   0.532
  100c3c     H6 1386   1.237   0.207   0.705
  100c3c     H7 1387   1.230   0.463   0.594
  100c3c     H8 1388   1.169   0.424   0.754
  100c3c     H9 1389   0.791   0.187   0.513
  100c3c    H10 1390   0.770   0.361   0.508
  100c3c    H11 1391   0.891   0.284   0.408
  100c3c    H12 1392   0.787   0.370   0.738
  100c3c    H13 1393   0.811   0.199   0.747
  100c3c     C7 1394   0.942   0.312   0.874
  100c3c    H14 1395   0.993   0.408   0.876
  100c3c    H15 1396   1.018   0.235   0.884
  100c3c     C8 1397   0.849   0.309   0.996
  100c3c    H16 1398   0.794   0.215   1.001
  100c3c    H17 1399   0.777   0.390   0.992
  100c3c    H18 1400   0.906   0.319   1.088
  101fsi     F1 1401   2.356   2.770   1.416
  101fsi     S1 1402   2.231   2.769   1.509
  101fsi      N 1403   2.153   2.894   1.454
  101fsi     O1 1404   2.170   2.641   1.488
  101fsi     O2 1405   2.283   2.795   1.640
  101fsi     S2 1406   2.073   2.912   1.320
  101fsi     O3 1407   2.161   2.921   1.207
  101fsi     O4 1408   1.971   3.013   1.333
  101fsi     F2 1409   1.992   2.779   1.301
  102fsi     F1 1410   1.755   0.770   2.911
  102fsi     S1 1411   1.666   0.640   2.909
  102fsi      N 1412   1.769   0.523   2.932
  102fsi     O1 1413   1.571   0.661   3.015
  102fsi     O2 1414   1.616   0.637   2.774
  102fsi     S2 1415   1.822   0.461   3.065
  102fsi     O3 1416   1.812   0.544   3.182
  102fsi     O4 1417   1.948   0.393   3.046
  102fsi     F2 1418   1.722   0.343   3.092
  103fsi     F1 1419   1.027   0.855   1.348
  103fsi     S1 1420   0.966   0.975   1.429
  103fsi      N 1421   1.074   1.087   1.412
  103fsi     O1 1422   0.840   1.001   1.365
  103fsi     O2 1423   0.956   0.925   1.562
  103fsi     S2 1424   1.081   1.197   1.300
  103fsi     O3 1425   1.092   1.135   1.171
  103fsi     O4 1426   1.178   1.297   1.332
  103fsi     F2 1427   0.943   1.271   1.304
  104fsi     F1 1428   0.345   2.121   0.744
  104fsi     S1 1429   0.469   2.119   0.647
  104fsi      N 1430   0.580   2.186   0.734
  104fsi     O1 1431   0.489   1.980   0.619
  104fsi     O2 1432   0.424   2.202   0.538
  104fsi     S2 1433   0.652   2.127   0.860
  104fsi     O3 1434   0.573   2.030   0.930
  104fsi     O4 1435   0.715   2.228   0.941
  104fsi     F2 1436   0.772   2.045   0.798
  105fsi     F1 1437   0.659   2.250   2.916
  105fsi     S1 1438   0.596   2.291   3.055
  105fsi      N 1439   0.674   2.423   3.091
  105fsi     O1 1440   0.457   2.309   3.027
  105fsi     O2 1441   0.633   2.181   3.141
  105fsi     S2 1442   0.630   2.571   3.065
  105fsi     O3 1443   0.559   2.598   2.943
  105fsi     O4 1444   0.732   2.669   3.095
  105fsi     F2 1445   0.523   2.599   3.176
  106fsi     F1 1446   0.581   2.368   2.333
  106fsi     S1 1447   0.695   2.284   2.400
  106fsi      N 1448   0.827   2.329   2.326
  106fsi     O1 1449   0.693   2.319   2.539
  106fsi     O2 1450   0.662   2.148   2.365
  106fsi     S2 1451   0.890   2.473   2.321
  106fsi     O3 1452   0.799   2.580   2.295
  106fsi     O4 1453   1.012   2.469   2.245
  106fsi     F2 1454   0.941   2.495   2.468
  107fsi     F1 1455   1.510   2.495   0.850
  107fsi     S1 1456   1.462   2.642   0.863
  107fsi      N 1457   1.305   2.636   0.855
  107fsi     O1 1458   1.517   2.684   0.989
  107fsi     O2 1459   1.516   2.707   0.747
  107fsi     S2 1460   1.198   2.599   0.964
  107fsi     O3 1461   1.232   2.483   1.040
  107fsi     O4 1462   1.063   2.612   0.916
  107fsi     F2 1463   1.208   2.718   1.065
  108fsi     F1 1464   2.345   0.831   2.141
  108fsi     S1 1465   2.309   0.750   2.014
  108fsi      N 1466   2.381   0.616   2.047
  108fsi     O1 1467   2.165   0.741   2.012
  108fsi     O2 1468   2.371   0.821   1.906
  108fsi     S2 1469   2.348   0.511   2.157
  108fsi     O3 1470   2.232   0.542   2.236
  108fsi     O4 1471   2.466   0.462   2.223
  108fsi     F2 1472   2.301   0.387   2.072
  109fsi     F1 1473   3.013   2.435   2.042
  109fsi     S1 1474   2.996   2.566   2.128
  109fsi      N 1475   3.049   2.678   2.032
  109fsi     O1 1476   2.856   2.573   2.155
  109fsi     O2 1477   3.083   2.541   2.240
  109fsi     S2 1478   2.984   2.724   1.896
  109fsi     O3 1479   2.892   2.629   1.840
  109fsi     O4 1480   3.079   2.787   1.809
  109fsi     F2 1481   2.891   2.844   1.939
  110fsi     F1 1482   0.703   2.938   1.129
  110fsi     S1 1483   0.777   3.008   1.011
  110fsi      N 1484   0.724   3.156   1.022
  110fsi     O1 1485   0.915   2.994   1.046
  110fsi     O2 1486   0.731   2.937   0.894
  110fsi     S2 1487   0.785   3.275   1.105
  110fsi     O3 1488   0.874   3.234   1.211
  110fsi     O4 1489   0.690   3.379   1.134
  110fsi     F2 1490   0.880   3.343   1.000
  111fsi     F1 1491   3.289   1.553   0.777
  111fsi     S1 1492   3.236   1.664   0.875
  111fsi      N 1493   3.084   1.672   0.838
  111fsi     O1 1494   3.266   1.610   1.006
  111fsi     O2 1495   3.311   1.780   0.834
  111fsi     S2 1496   2.967   1.574   0.877
  111fsi     O3 1497   3.012   1.448   0.928
  111fsi     O4 1498   2.861   1.575   0.779
  111fsi     F2 1499   2.902   1.643   1.002
  112fsi     F1 1500   2.031   1.725   0.981
  112fsi     S1 1501   2.008   1.656   0.844
  112fsi      N 1502   2.017   1.505   0.887
  112fsi     O1 1503   1.876   1.699   0.806
  112fsi     O2 1504   2.121   1.702   0.769
  112fsi     S2 1505   1.898   1.411   0.923
  112fsi     O3 1506   1.796   1.472   1.004
  112fsi     O4 1507   1.942   1.281   0.966
  112fsi     F2 1508   1.829   1.383   0.785
  113fsi     F1 1509   2.026   3.169   0.987
  113fsi     S1 1510   1.881   3.143   0.931
  113fsi      N 1511   1.895   3.004   0.860
  113fsi     O1 1512   1.798   3.146   1.048
  113fsi     O2 1513   1.862   3.249   0.836
  113fsi     S2 1514   1.893   2.858   0.918
  113fsi     O3 1515   1.837   2.844   1.050
  113fsi     O4 1516   2.012   2.785   0.886
  113fsi     F2 1517   1.783   2.789   0.832
  114fsi     F1 1518   1.065   1.480   1.759
  114fsi     S1 1519   0.967   1.368   1.713
  114fsi      N 1520   0.834   1.445   1.687
  114fsi     O1 1521   1.033   1.308   1.601
  114fsi     O2 1522   0.948   1.284   1.827
  114fsi     S2 1523   0.804   1.539   1.565
  114fsi     O3 1524   0.920   1.578   1.492
  114fsi     O4 1525   0.706   1.639   1.599
  114fsi     F2 1526   0.727   1.443   1.468
  115fsi     F1 1527   2.056   2.733   0.525
  115fsi     S1 1528   2.158   2.843   0.476
  115fsi      N 1529   2.116   2.866   0.325
  115fsi     O1 1530   2.133   2.955   0.562
  115fsi     O2 1531   2.286   2.779   0.487
  115fsi     S2 1532   2.046   2.990   0.257
  115fsi     O3 1533   1.950   3.061   0.337
  115fsi     O4 1534   2.008   2.965   0.121
  115fsi     F2 1535   2.165   3.092   0.242
  116fsi     F1 1536   2.850   2.396   2.977
  116fsi     S1 1537   3.002   2.433   2.989
  116fsi      N 1538   2.999   2.584   3.033
  116fsi     O1 1539   3.055   2.341   3.086
  116fsi     O2 1540   3.051   2.423   2.855
  116fsi     S2 1541   2.957   2.645   3.173
  116fsi     O3 1542   2.906   2.548   3.266
  116fsi     O4 1543   2.885   2.768   3.158
  116fsi     F2 1544   3.095   2.689   3.234
  117fsi     F1 1545   2.219   0.162   0.897
  117fsi     S1 1546   2.260   0.227   0.759
  117fsi      N 1547   2.233   0.379   0.785
  117fsi     O1 1548   2.399   0.195   0.747
  117fsi     O2 1549   2.168   0.166   0.666
  117fsi     S2 1550   2.330   0.491   0.838
  117fsi     O3 1551   2.432   0.440   0.926
  117fsi     O4 1552   2.261   0.610   0.880
  117fsi     F2 1553   2.407   0.536   0.709
  118fsi     F1 1554   2.206   0.940   3.162
  118fsi     S1 1555   2.097   0.827   3.160
  118fsi      N 1556   2.180   0.696   3.132
  118fsi     O1 1557   2.037   0.832   3.291
  118fsi     O2 1558   2.015   0.863   3.047
  118fsi     S2 1559   2.275   0.620   3.231
  118fsi     O3 1560   2.374   0.703   3.295
  118fsi     O4 1561   2.319   0.497   3.172
  118fsi     F2 1562   2.178   0.572   3.345
  119fsi     F1 1563   1.931   0.237   0.441
  119fsi     S1 1564   1.828   0.262   0.557
  119fsi      N 1565   1.903   0.359   0.654
  119fsi     O1 1566   1.714   0.321   0.493
  119fsi     O2 1567   1.811   0.130   0.614
  119fsi     S2 1568   1.920   0.515   0.642
  119fsi     O3 1569   1.942   0.567   0.509
  119fsi     O4 1570   2.003   0.569   0.745
  119fsi     F2 1571   1.780   0.570   0.680
  120fsi     F1 1572   3.260   0.601   2.796
  120fsi     S1 1573   3.355   0.590   2.920
  120fsi      N 1574   3.359   0.737   2.978
  120fsi     O1 1575   3.293   0.494   3.006
  120fsi     O2 1576   3.482   0.555   2.862
  120fsi     S2 1577   3.257   0.800   3.078
  120fsi     O3 1578   3.119   0.766   3.057
  120fsi     O4 1579   3.290   0.939   3.096
  120fsi     F2 1580   3.295   0.736   3.217
  121fsi     F1 1581   2.542   1.938   0.791
  121fsi     S1 1582   2.688   1.922   0.847
  121fsi      N 1583   2.773   1.889   0.718
  121fsi     O1 1584   2.717   2.050   0.906
  121fsi     O2 1585   2.679   1.810   0.935
  121fsi     S2 1586   2.869   1.980   0.632
  121fsi     O3 1587   2.888   2.114   0.682
  121fsi     O4 1588   2.849   1.963   0.492
  121fsi     F2 1589   3.010   1.914   0.656
  122fsi     F1 1590   3.199   0.940   0.832
  122fsi     S1 1591   3.051   0.888   0.844
  122fsi      N 1592   2.965   1.018   0.824
  122fsi     O1 1593   3.038   0.791   0.739
  122fsi     O2 1594   3.044   0.842   0.980
  122fsi     S2 1595   2.945   1.105   0.696
  122fsi     O3 1596   3.054   1.099   0.602
  122fsi     O4 1597   2.893   1.235   0.728
  122fsi     F2 1598   2.825   1.035   0.624
  123fsi     F1 1599   2.380   1.083   2.154
  123fsi     S1 1600   2.230   1.130   2.154
  123fsi      N 1601   2.237   1.265   2.076
  123fsi     O1 1602   2.155   1.031   2.082
  123fsi     O2 1603   2.200   1.146   2.293
  123fsi     S2 1604   2.327   1.293   1.951
  123fsi     O3 1605   2.345   1.182   1.862
  123fsi     O4 1606   2.438   1.377   1.983
  123fsi     F2 1607   2.235   1.386   1.864
  124fsi     F1 1608   1.564   0.300   1.830
  124fsi     S1 1609   1.505   0.232   1.701
  124fsi      N 1610   1.379   0.153   1.753
  124fsi     O1 1611   1.473   0.343   1.615
  124fsi     O2 1612   1.611   0.145   1.658
  124fsi     S2 1613   1.228   0.187   1.732
  124fsi     O3 1614   1.189   0.320   1.770
  124fsi     O4 1615   1.144   0.078   1.772
  124fsi     F2 1616   1.212   0.186   1.575
  125fsi     F1 1617   0.787   1.037   0.235
  125fsi     S1 1618   0.699   0.994   0.358
  125fsi      N 1619   0.686   1.128   0.439
  125fsi     O1 1620   0.576   0.947   0.301
  125fsi     O2 1621   0.782   0.900   0.428
  125fsi     S2 1622   0.583   1.245   0.422
  125fsi     O3 1623   0.558   1.283   0.286
  125fsi     O4 1624   0.615   1.349   0.516
  125fsi     F2 1625   0.447   1.187   0.475
  126fsi     F1 1626   0.623   3.171   0.654
  126fsi     S1 1627   0.772   3.170   0.603
  126fsi      N 1628   0.798   3.016   0.579
  126fsi     O1 1629   0.769   3.253   0.486
  126fsi     O2 1630   0.847   3.218   0.716
  126fsi     S2 1631   0.781   2.929   0.448
  126fsi     O3 1632   0.724   2.995   0.334
  126fsi     O4 1633   0.730   2.801   0.485
  126fsi     F2 1634   0.930   2.899   0.406
  127fsi     F1 1635   3.351   2.838   1.530
  127fsi     S1 1636   3.295   2.691   1.516
  127fsi      N 1637   3.140   2.712   1.500
  127fsi     O1 1638   3.359   2.638   1.399
  127fsi     O2 1639   3.330   2.630   1.641
  127fsi     S2 1640   3.061   2.779   1.381
  127fsi     O3 1641   3.144   2.845   1.284
  127fsi     O4 1642   2.942   2.846   1.423
  127fsi     F2 1643   3.007   2.654   1.303
  128fsi     F1 1644   1.322   1.736   2.316
  128fsi     S1 1645   1.211   1.795   2.411
  128fsi      N 1646   1.280   1.806   2.550
  128fsi     O1 1647   1.176   1.921   2.353
  128fsi     O2 1648   1.110   1.694   2.411
  128fsi     S2 1649   1.424   1.861   2.579
  128fsi     O3 1650   1.470   1.951   2.478
  128fsi     O4 1651   1.510   1.758   2.630
  128fsi     F2 1652   1.405   1.953   2.704
  129fsi     F1 1653   1.810   2.830   2.559
  129fsi     S1 1654   1.942   2.910   2.584
  129fsi      N 1655   2.029   2.867   2.461
  129fsi     O1 1656   1.895   3.047   2.586
  129fsi     O2 1657   1.987   2.859   2.710
  129fsi     S2 1658   2.045   2.934   2.320
  129fsi     O3 1659   2.018   3.075   2.316
  129fsi     O4 1660   1.988   2.852   2.216
  129fsi     F2 1661   2.200   2.925   2.295
  130fsi     F1 1662   2.312   3.287   1.749
  130fsi     S1 1663   2.296   3.130   1.751
  130fsi      N 1664   2.375   3.086   1.623
  130fsi     O1 1665   2.359   3.090   1.874
  130fsi     O2 1666   2.154   3.112   1.739
  130fsi     S2 1667   2.528   3.055   1.612
  130fsi     O3 1668   2.610   3.130   1.702
  130fsi     O4 1669   2.565   3.043   1.474
  130fsi     F2 1670   2.540   2.909   1.668
  131fsi     F1 1671   2.143   0.532   1.810
  131fsi     S1 1672   2.003   0.471   1.841
  131fsi      N 1673   1.906   0.587   1.801
  131fsi     O1 1674   1.995   0.353   1.760
  131fsi     O2 1675   2.004   0.457   1.984
  131fsi     S2 1676   1.887   0.640   1.655
  131fsi     O3 1677   2.005   0.627   1.576
  131fsi     O4 1678   1.819   0.766   1.652
  131fsi     F2 1679   1.784   0.539   1.592
  132fsi     F1 1680   0.962   2.082   1.021
  132fsi     S1 1681   1.064   2.198   1.035
  132fsi      N 1682   0.993   2.296   1.138
  132fsi     O1 1683   1.182   2.132   1.081
  132fsi     O2 1684   1.064   2.253   0.903
  132fsi     S2 1685   1.019   2.312   1.292
  132fsi     O3 1686   1.025   2.189   1.364
  132fsi     O4 1687   0.939   2.413   1.355
  132fsi     F2 1688   1.163   2.372   1.303
  133fsi     F1 1689   2.821   2.861   2.886
  133fsi     S1 1690   2.840   2.808   2.740
  133fsi      N 1691   2.932   2.917   2.674
  133fsi     O1 1692   2.902   2.679   2.755
  133fsi     O2 1693   2.708   2.812   2.684
  133fsi     S2 1694   3.088   2.929   2.677
  133fsi     O3 1695   3.153   2.837   2.768
  133fsi     O4 1696   3.130   3.067   2.677
  133fsi     F2 1697   3.131   2.878   2.535
  134fsi     F1 1698   0.757   3.224   2.503
  134fsi     S1 1699   0.860   3.167   2.606
  134fsi      N 1700   0.789   3.186   2.746
  134fsi     O1 1701   0.880   3.030   2.567
  134fsi     O2 1702   0.972   3.258   2.591
  134fsi     S2 1703   0.646   3.136   2.790
  134fsi     O3 1704   0.549   3.126   2.685
  134fsi     O4 1705   0.610   3.204   2.911
  134fsi     F2 1706   0.669   2.987   2.838
  135fsi     F1 1707   0.605   2.941   2.383
  135fsi     S1 1708   0.498   2.825   2.390
  135fsi      N 1709   0.363   2.904   2.374
  135fsi     O1 1710   0.533   2.740   2.280
  135fsi     O2 1711   0.516   2.772   2.523
  135fsi     S2 1712   0.268   2.922   2.250
  135fsi     O3 1713   0.319   2.870   2.126
  135fsi     O4 1714   0.208   3.052   2.246
  135fsi     F2 1715   0.148   2.826   2.284
  136fsi     F1 1716   2.071   0.553   0.167
  136fsi     S1 1717   2.218   0.553   0.222
  136fsi      N 1718   2.273   0.690   0.170
  136fsi     O1 1719   2.198   0.549   0.364
  136fsi     O2 1720   2.278   0.438   0.160
  136fsi     S2 1721   2.277   0.829   0.243
  136fsi     O3 1722   2.173   0.844   0.341
  136fsi     O4 1723   2.300   0.939   0.153
  136fsi     F2 1724   2.411   0.820   0.326
  137fsi     F1 1725   2.531   0.182   2.652
  137fsi     S1 1726   2.442   0.310   2.675
  137fsi      N 1727   2.296   0.251   2.676
  137fsi     O1 1728   2.488   0.362   2.801
  137fsi     O2 1729   2.466   0.390   2.558
  137fsi     S2 1730   2.190   0.241   2.792
  137fsi     O3 1731   2.239   0.259   2.927
  137fsi     O4 1732   2.096   0.135   2.769
  137fsi     F2 1733   2.104   0.370   2.770
  138fsi     F1 1734   0.703   0.627   1.557
  138fsi     S1 1735   0.724   0.608   1.403
  138fsi      N 1736   0.634   0.483   1.372
  138fsi     O1 1737   0.679   0.734   1.351
  138fsi     O2 1738   0.864   0.580   1.393
  138fsi     S2 1739   0.481   0.474   1.345
  138fsi     O3 1740   0.404   0.587   1.391
  138fsi     O4 1741   0.426   0.347   1.383
  138fsi     F2 1742   0.468   0.477   1.188
  139fsi     F1 1743   1.031   1.983   0.597
  139fsi     S1 1744   1.048   1.830   0.564
  139fsi      N 1745   1.016   1.817   0.410
  139fsi     O1 1746   1.184   1.798   0.597
  139fsi     O2 1747   0.946   1.767   0.643
  139fsi     S2 1748   1.066   1.904   0.289
  139fsi     O3 1749   1.122   2.031   0.323
  139fsi     O4 1750   0.969   1.904   0.183
  139fsi     F2 1751   1.186   1.822   0.230
  140fsi     F1 1752   1.341   1.012   2.612
  140fsi     S1 1753   1.477   0.966   2.673
  140fsi      N 1754   1.540   1.103   2.711
  140fsi     O1 1755   1.438   0.885   2.784
  140fsi     O2 1756   1.542   0.903   2.561
  140fsi     S2 1757   1.518   1.191   2.839
  140fsi     O3 1758   1.417   1.147   2.931
  140fsi     O4 1759   1.517   1.330   2.803
  140fsi     F2 1760   1.651   1.175   2.921
  141fsi     F1 1761   2.200   2.358   3.094
  141fsi     S1 1762   2.254   2.212   3.086
  141fsi      N 1763   2.127   2.126   3.052
  141fsi     O1 1764   2.351   2.219   2.980
  141fsi     O2 1765   2.308   2.192   3.217
  141fsi     S2 1766   2.009   2.159   2.952
  141fsi     O3 1767   2.008   2.294   2.903
  141fsi     O4 1768   1.884   2.100   2.992
  141fsi     F2 1769   2.048   2.076   2.826
  142fsi     F1 1770   1.104   1.001   2.221
  142fsi     S1 1771   1.116   1.076   2.357
  142fsi      N 1772   0.989   1.169   2.359
  142fsi     O1 1773   1.107   0.969   2.452
  142fsi     O2 1774   1.241   1.146   2.349
  142fsi     S2 1775   0.851   1.143   2.424
  142fsi     O3 1776   0.822   1.005   2.454
  142fsi     O4 1777   0.739   1.216   2.371
  142fsi     F2 1778   0.872   1.212   2.563
  143fsi     F1 1779   1.302   2.663   2.562
  143fsi     S1 1780   1.416   2.598   2.649
  143fsi      N 1781   1.516   2.719   2.671
  143fsi     O1 1782   1.348   2.552   2.766
  143fsi     O2 1783   1.469   2.499   2.559
  143fsi     S2 1784   1.504   2.836   2.774
  143fsi     O3 1785   1.370   2.888   2.789
  143fsi     O4 1786   1.609   2.933   2.759
  143fsi     F2 1787   1.537   2.769   2.912
  144fsi     F1 1788   1.151   1.079   1.871
  144fsi     S1 1789   1.281   1.150   1.923
  144fsi      N 1790   1.234   1.298   1.949
  144fsi     O1 1791   1.320   1.075   2.039
  144fsi     O2 1792   1.367   1.143   1.808
  144fsi     S2 1793   1.140   1.355   2.061
  144fsi     O3 1794   1.033   1.268   2.098
  144fsi     O4 1795   1.101   1.490   2.032
  144fsi     F2 1796   1.230   1.371   2.188
  145fsi     F1 1797   2.777   1.900   2.969
  145fsi     S1 1798   2.888   1.789   2.958
  145fsi      N 1799   2.812   1.661   2.909
  145fsi     O1 1800   2.984   1.842   2.865
  145fsi     O2 1801   2.938   1.777   3.092
  145fsi     S2 1802   2.802   1.602   2.764
  145fsi     O3 1803   2.798   1.701   2.661
  145fsi     O4 1804   2.707   1.495   2.757
  145fsi     F2 1805   2.940   1.530   2.745
  146fsi     F1 1806   1.834   0.663   2.569
  146fsi     S1 1807   1.961   0.722   2.639
  146fsi      N 1808   2.072   0.702   2.530
  146fsi     O1 1809   1.924   0.858   2.663
  146fsi     O2 1810   1.984   0.636   2.751
  146fsi     S2 1811   2.137   0.807   2.434
  146fsi     O3 1812   2.052   0.838   2.321
  146fsi     O4 1813   2.275   0.777   2.408
  146fsi     F2 1814   2.146   0.940   2.518
  147fsi     F1 1815   1.490   1.336   2.077
  147fsi     S1 1816   1.528   1.477   2.020
  147fsi      N 1817   1.527   1.453   1.863
  147fsi     O1 1818   1.425   1.564   2.069
  147fsi     O2 1819   1.660   1.495   2.071
  147fsi     S2 1820   1.436   1.511   1.747
  147fsi     O3 1821   1.354   1.413   1.682
  147fsi     O4 1822   1.510   1.600   1.661
  147fsi     F2 1823   1.331   1.606   1.816
  148fsi     F1 1824   0.295   2.080   2.832
  148fsi     S1 1825   0.363   2.057   2.692
  148fsi      N 1826   0.487   1.968   2.728
  148fsi     O1 1827   0.261   1.992   2.614
  148fsi     O2 1828   0.401   2.189   2.650
  148fsi     S2 1829   0.506   1.812   2.721
  148fsi     O3 1830   0.391   1.735   2.684
  148fsi     O4 1831   0.585   1.762   2.830
  148fsi     F2 1832   0.601   1.797   2.596
  149fsi     F1 1833   0.451   2.382   1.361
  149fsi     S1 1834   0.600   2.336   1.338
  149fsi      N 1835   0.648   2.437   1.228
  149fsi     O1 1836   0.658   2.345   1.469
  149fsi     O2 1837   0.583   2.203   1.285
  149fsi     S2 1838   0.698   2.586   1.242
  149fsi     O3 1839   0.730   2.628   1.375
  149fsi     O4 1840   0.621   2.675   1.162
  149fsi     F2 1841   0.834   2.583   1.164
  150fsi     F1 1842   2.929   1.686   1.279
  150fsi     S1 1843   3.052   1.782   1.298
  150fsi      N 1844   3.080   1.836   1.153
  150fsi     O1 1845   3.004   1.879   1.391
  150fsi     O2 1846   3.157   1.695   1.345
  150fsi     S2 1847   3.036   1.971   1.088
  150fsi     O3 1848   2.919   2.033   1.142
  150fsi     O4 1849   3.046   1.974   0.945
  150fsi     F2 1850   3.152   2.067   1.131
  151fsi     F1 1851   1.510   3.179   0.451
  151fsi     S1 1852   1.440   3.319   0.445
  151fsi      N 1853   1.297   3.284   0.390
  151fsi     O1 1854   1.445   3.365   0.581
  151fsi     O2 1855   1.521   3.388   0.348
  151fsi     S2 1856   1.172   3.228   0.468
  151fsi     O3 1857   1.204   3.155   0.587
  151fsi     O4 1858   1.076   3.170   0.378
  151fsi     F2 1859   1.101   3.357   0.520
  152fsi     F1 1860   0.686   0.816   2.257
  152fsi     S1 1861   0.665   0.699   2.155
  152fsi      N 1862   0.751   0.740   2.032
  152fsi     O1 1863   0.714   0.583   2.224
  152fsi     O2 1864   0.524   0.704   2.127
  152fsi     S2 1865   0.908   0.745   2.023
  152fsi     O3 1866   0.974   0.736   2.151
  152fsi     O4 1867   0.954   0.843   1.929
  152fsi     F2 1868   0.942   0.608   1.953
  153fsi     F1 1869   2.898   0.581   1.205
  153fsi     S1 1870   2.987   0.453   1.194
  153fsi      N 1871   3.105   0.501   1.103
  153fsi     O1 1872   3.025   0.427   1.330
  153fsi     O2 1873   2.899   0.358   1.131
  153fsi     S2 1874   3.239   0.573   1.146
  153fsi     O3 1875   3.233   0.647   1.269
  153fsi     O4 1876   3.307   0.637   1.037
  153fsi     F2 1877   3.333   0.451   1.179
  154fsi     F1 1878   2.188   2.089   0.854
  154fsi     S1 1879   2.061   2.115   0.942
  154fsi      N 1880   2.015   2.259   0.899
  154fsi     O1 1881   1.971   2.010   0.902
  154fsi     O2 1882   2.111   2.110   1.076
  154fsi     S2 1883   1.894   2.298   0.808
  154fsi     O3 1884   1.903   2.245   0.675
  154fsi     O4 1885   1.850   2.434   0.820
  154fsi     F2 1886   1.777   2.218   0.875
  155fsi     F1 1887   1.506   0.736   1.124
  155fsi     S1 1888   1.383   0.788   1.207
  155fsi      N 1889   1.297   0.868   1.102
  155fsi     O1 1890   1.319   0.672   1.261
  155fsi     O2 1891   1.440   0.880   1.301
  155fsi     S2 1892   1.204   0.808   0.990
  155fsi     O3 1893   1.221   0.668   0.965
  155fsi     O4 1894   1.195   0.895   0.876
  155fsi     F2 1895   1.061   0.818   1.055
  156fsi     F1 1896   1.776   2.036   0.286
  156fsi     S1 1897   1.749   2.115   0.153
  156fsi      N 1898   1.706   2.257   0.203
  156fsi     O1 1899   1.874   2.111   0.081
  156fsi     O2 1900   1.638   2.044   0.094
  156fsi     S2 1901   1.793   2.383   0.239
  156fsi     O3 1902   1.935   2.365   0.242
  156fsi     O4 1903   1.733   2.460   0.345
  156fsi     F2 1904   1.771   2.475   0.113
  157fsi     F1 1905   0.407   2.419   0.185
  157fsi     S1 1906   0.536   2.493   0.235
  157fsi      N 1907   0.609   2.381   0.318
  157fsi     O1 1908   0.603   2.530   0.113
  157fsi     O2 1909   0.484   2.599   0.316
  157fsi     S2 1910   0.714   2.275   0.269
  157fsi     O3 1911   0.704   2.235   0.132
  157fsi     O4 1912   0.734   2.166   0.360
  157fsi     F2 1913   0.851   2.352   0.275
  158fsi     F1 1914   0.549   0.445   0.442
  158fsi     S1 1915   0.594   0.593   0.415
  158fsi      N 1916   0.733   0.577   0.346
  158fsi     O1 1917   0.487   0.647   0.336
  158fsi     O2 1918   0.614   0.647   0.547
  158fsi     S2 1919   0.771   0.560   0.194
  158fsi     O3 1920   0.659   0.563   0.104
  158fsi     O4 1921   0.870   0.458   0.177
  158fsi     F2 1922   0.847   0.695   0.164
  159fsi     F1 1923   2.111   2.009   1.750
  159fsi     S1 1924   2.083   1.945   1.610
  159fsi      N 1925   1.968   2.034   1.554
  159fsi     O1 1926   2.208   1.960   1.542
  159fsi     O2 1927   2.038   1.812   1.641
  159fsi     S2 1928   1.977   2.185   1.515
  159fsi     O3 1929   2.085   2.255   1.579
  159fsi     O4 1930   1.846   2.243   1.517
  159fsi     F2 1931   2.017   2.179   1.364
  160fsi     F1 1932   2.595   1.044   1.908
  160fsi     S1 1933   2.736   0.977   1.904
  160fsi      N 1934   2.835   1.098   1.883
  160fsi     O1 1935   2.750   0.912   2.031
  160fsi     O2 1936   2.733   0.893   1.787
  160fsi     S2 1937   2.866   1.218   1.980
  160fsi     O3 1938   2.752   1.298   2.014
  160fsi     O4 1939   2.986   1.288   1.944
  160fsi     F2 1940   2.909   1.148   2.113
  161fsi     F1 1941   1.234   0.481   2.942
  161fsi     S1 1942   1.341   0.374   2.983
  161fsi      N 1943   1.260   0.238   2.979
  161fsi     O1 1944   1.441   0.383   2.880
  161fsi     O2 1945   1.377   0.410   3.117
  161fsi     S2 1946   1.265   0.124   2.871
  161fsi     O3 1947   1.272   0.166   2.734
  161fsi     O4 1948   1.172   0.017   2.899
  161fsi     F2 1949   1.406   0.057   2.898
  162fsi     F1 1950   1.413   3.413   1.531
  162fsi     S1 1951   1.460   3.264   1.533
  162fsi      N 1952   1.379   3.207   1.656
  162fsi     O1 1953   1.417   3.217   1.405
  162fsi     O2 1954   1.600   3.272   1.560
  162fsi     S2 1955   1.261   3.104   1.652
  162fsi     O3 1956   1.157   3.147   1.564
  162fsi     O4 1957   1.223   3.066   1.785
  162fsi     F2 1958   1.326   2.976   1.589
  163fsi     F1 1959   2.199   1.240   0.749
  163fsi     S1 1960   2.352   1.216   0.778
  163fsi      N 1961   2.363   1.060   0.764
  163fsi     O1 1962   2.424   1.288   0.676
  163fsi     O2 1963   2.368   1.260   0.914
  163fsi     S2 1964   2.370   0.973   0.633
  163fsi     O3 1965   2.357   1.049   0.512
  163fsi     O4 1966   2.296   0.851   0.647
  163fsi     F2 1967   2.519   0.926   0.630
  164fsi     F1 1968   2.979   0.958   0.340
  164fsi     S1 1969   2.831   0.919   0.301
  164fsi      N 1970   2.750   1.048   0.341
  164fsi     O1 1971   2.839   0.895   0.159
  164fsi     O2 1972   2.802   0.808   0.386
  164fsi     S2 1973   2.725   1.180   0.260
  164fsi     O3 1974   2.814   1.204   0.149
  164fsi     O4 1975   2.699   1.289   0.350
  164fsi     F2 1976   2.585   1.153   0.193
  165fsi     F1 1977   1.809   0.980   0.908
  165fsi     S1 1978   1.933   0.884   0.891
  165fsi      N 1979   2.053   0.967   0.949
  165fsi     O1 1980   1.897   0.768   0.967
  165fsi     O2 1981   1.945   0.866   0.749
  165fsi     S2 1982   2.110   0.972   1.095
  165fsi     O3 1983   2.016   0.942   1.198
  165fsi     O4 1984   2.193   1.087   1.118
  165fsi     F2 1985   2.209   0.852   1.099
  166fsi     F1 1986   2.657   2.821   1.236
  166fsi     S1 1987   2.646   2.671   1.191
  166fsi      N 1988   2.719   2.592   1.305
  166fsi     O1 1989   2.505   2.647   1.184
  166fsi     O2 1990   2.717   2.668   1.066
  166fsi     S2 1991   2.674   2.573   1.454
  166fsi     O3 1992   2.591   2.677   1.507
  166fsi     O4 1993   2.781   2.527   1.538
  166fsi     F2 1994   2.579   2.448   1.445
  167fsi     F1 1995   0.528   0.867   2.919
  167fsi     S1 1996   0.462   1.000   2.870
  167fsi      N 1997   0.574   1.107   2.902
  167fsi     O1 1998   0.440   0.981   2.729
  167fsi     O2 1999   0.346   1.014   2.954
  167fsi     S2 2000   0.691   1.143   2.806
  167fsi     O3 2001   0.736   1.031   2.727
  167fsi     O4 2002   0.789   1.226   2.870
  167fsi     F2 2003   0.623   1.238   2.701
  168fsi     F1 2004   0.340   3.235   1.483
  168fsi     S1 2005   0.489   3.252   1.530
  168fsi      N 2006   0.534   3.105   1.562
  168fsi     O1 2007   0.556   3.311   1.418
  168fsi     O2 2008   0.478   3.332   1.649
  168fsi     S2 2009   0.569   2.989   1.461
  168fsi     O3 2010   0.489   2.987   1.342
  168fsi     O4 2011   0.589   2.865   1.530
  168fsi     F2 2012   0.713   3.028   1.411
  169fsi     F1 2013   2.377   1.538   0.194
  169fsi     S1 2014   2.394   1.489   0.343
  169fsi      N 2015   2.276   1.558   0.418
  169fsi     O1 2016   2.386   1.346   0.333
  169fsi     O2 2017   2.523   1.539   0.383
  169fsi     S2 2018   2.136   1.500   0.463
  169fsi     O3 2019   2.105   1.372   0.407
  169fsi     O4 2020   2.032   1.598   0.465
  169fsi     F2 2021   2.161   1.468   0.614
  170fsi     F1 2022   2.225   2.602   1.214
  170fsi     S1 2023   2.189   2.449   1.225
  170fsi      N 2024   2.043   2.452   1.282
  170fsi     O1 2025   2.202   2.405   1.089
  170fsi     O2 2026   2.282   2.396   1.322
  170fsi     S2 2027   1.908   2.471   1.206
  170fsi     O3 2028   1.917   2.543   1.082
  170fsi     O4 2029   1.802   2.513   1.292
  170fsi     F2 2030   1.868   2.325   1.165
  171fsi     F1 2031   2.362   2.444   1.625
  171fsi     S1 2032   2.417   2.420   1.770
  171fsi      N 2033   2.356   2.538   1.853
  171fsi     O1 2034   2.367   2.289   1.803
  171fsi     O2 2035   2.559   2.433   1.757
  171fsi     S2 2036   2.235   2.535   1.951
  171fsi     O3 2037   2.137   2.433   1.925
  171fsi     O4 2038   2.187   2.666   1.986
  171fsi     F2 2039   2.303   2.488   2.083
  172fsi     F1 2040   1.400   2.084   2.114
  172fsi     S1 2041   1.279   2.183   2.100
  172fsi      N 2042   1.341   2.317   2.046
  172fsi     O1 2043   1.188   2.120   2.009
  172fsi     O2 2044   1.233   2.200   2.235
  172fsi     S2 2045   1.435   2.341   1.923
  172fsi     O3 2046   1.526   2.235   1.893
  172fsi     O4 2047   1.484   2.476   1.923
  172fsi     F2 2048   1.334   2.342   1.802
  173fsi     F1 2049   0.772   1.115   1.686
  173fsi     S1 2050   0.633   1.086   1.750
  173fsi      N 2051   0.671   1.028   1.891
  173fsi     O1 2052   0.571   1.215   1.752
  173fsi     O2 2053   0.580   0.986   1.660
  173fsi     S2 2054   0.677   1.097   2.033
  173fsi     O3 2055   0.652   1.239   2.032
  173fsi     O4 2056   0.786   1.049   2.113
  173fsi     F2 2057   0.550   1.038   2.105
  174fsi     F1 2058   0.780   0.487   2.543
  174fsi     S1 2059   0.774   0.330   2.525
  174fsi      N 2060   0.873   0.278   2.635
  174fsi     O1 2061   0.637   0.295   2.547
  174fsi     O2 2062   0.825   0.310   2.393
  174fsi     S2 2063   0.847   0.270   2.790
  174fsi     O3 2064   0.725   0.333   2.834
  174fsi     O4 2065   0.966   0.293   2.865
  174fsi     F2 2066   0.820   0.115   2.810
  175fsi     F1 2067   0.888   2.272   0.612
  175fsi     S1 2068   0.906   2.424   0.646
  175fsi      N 2069   1.062   2.442   0.644
  175fsi     O1 2070   0.839   2.492   0.539
  175fsi     O2 2071   0.849   2.438   0.777
  175fsi     S2 2072   1.148   2.522   0.542
  175fsi     O3 2073   1.119   2.497   0.403
  175fsi     O4 2074   1.287   2.525   0.578
  175fsi     F2 2075   1.102   2.671   0.566
  176fsi     F1 2076   2.483   2.012   0.408
  176fsi     S1 2077   2.391   1.886   0.419
  176fsi      N 2078   2.252   1.951   0.454
  176fsi     O1 2079   2.401   1.828   0.288
  176fsi     O2 2080   2.451   1.816   0.530
  176fsi     S2 2081   2.143   2.010   0.356
  176fsi     O3 2082   2.194   2.047   0.226
  176fsi     O4 2083   2.056   2.103   0.421
  176fsi     F2 2084   2.050   1.886   0.326
  177fsi     F1 2085   3.043   2.925   0.396
  177fsi     S1 2086   2.889   2.898   0.378
  177fsi      N 2087   2.828   3.043   0.378
  177fsi     O1 2088   2.879   2.830   0.252
  177fsi     O2 2089   2.854   2.824   0.496
  177fsi     S2 2090   2.816   3.143   0.258
  177fsi     O3 2091   2.922   3.137   0.161
  177fsi     O4 2092   2.775   3.275   0.302
  177fsi     F2 2093   2.689   3.091   0.180
  178fsi     F1 2094   3.137   1.122   2.403
  178fsi     S1 2095   3.151   1.187   2.546
  178fsi      N 2096   3.104   1.074   2.642
  178fsi     O1 2097   3.290   1.222   2.550
  178fsi     O2 2098   3.061   1.299   2.539
  178fsi     S2 2099   3.185   0.946   2.681
  178fsi     O3 2100   3.277   0.901   2.580
  178fsi     O4 2101   3.100   0.849   2.744
  178fsi     F2 2102   3.277   0.997   2.797
  179fsi     F1 2103   2.977   1.775   1.715
  179fsi     S1 2104   2.981   1.727   1.864
  179fsi      N 2105   2.854   1.793   1.930
  179fsi     O1 2106   2.979   1.584   1.855
  179fsi     O2 2107   3.104   1.784   1.913
  179fsi     S2 2108   2.706   1.740   1.942
  179fsi     O3 2109   2.682   1.610   1.889
  179fsi     O4 2110   2.608   1.841   1.916
  179fsi     F2 2111   2.688   1.718   2.097
  180fsi     F1 2112   0.718   1.750   1.235
  180fsi     S1 2113   0.832   1.827   1.159
  180fsi      N 2114   0.957   1.735   1.182
  180fsi     O1 2115   0.787   1.832   1.024
  180fsi     O2 2116   0.833   1.951   1.230
  180fsi     S2 2117   1.010   1.619   1.089
  180fsi     O3 2118   0.907   1.545   1.022
  180fsi     O4 2119   1.116   1.544   1.149
  180fsi     F2 2120   1.083   1.697   0.973
  181fsi     F1 2121   1.724   0.984   1.205
  181fsi     S1 2122   1.753   1.089   1.319
  181fsi      N 2123   1.609   1.143   1.352
  181fsi     O1 2124   1.814   1.011   1.422
  181fsi     O2 2125   1.835   1.188   1.255
  181fsi     S2 2126   1.524   1.129   1.483
  181fsi     O3 2127   1.566   1.026   1.574
  181fsi     O4 2128   1.382   1.137   1.460
  181fsi     F2 2129   1.557   1.262   1.556
  182fsi     F1 2130   2.082   2.550   2.741
  182fsi     S1 2131   2.230   2.529   2.695
  182fsi      N 2132   2.215   2.440   2.567
  182fsi     O1 2133   2.279   2.662   2.670
  182fsi     O2 2134   2.293   2.456   2.802
  182fsi     S2 2135   2.273   2.462   2.424
  182fsi     O3 2136   2.269   2.596   2.373
  182fsi     O4 2137   2.235   2.355   2.337
  182fsi     F2 2138   2.427   2.437   2.446
  183fsi     F1 2139   2.911   0.657   2.660
  183fsi     S1 2140   2.962   0.527   2.587
  183fsi      N 2141   3.001   0.432   2.705
  183fsi     O1 2142   2.848   0.483   2.510
  183fsi     O2 2143   3.076   0.575   2.513
  183fsi     S2 2144   2.907   0.381   2.822
  183fsi     O3 2145   2.801   0.471   2.857
  183fsi     O4 2146   2.982   0.321   2.929
  183fsi     F2 2147   2.835   0.257   2.757
  184fsi     F1 2148   2.508   3.006   2.186
  184fsi     S1 2149   2.621   2.899   2.166
  184fsi      N 2150   2.750   2.988   2.176
  184fsi     O1 2151   2.595   2.807   2.273
  184fsi     O2 2152   2.594   2.853   2.033
  184fsi     S2 2153   2.875   2.980   2.272
  184fsi     O3 2154   2.880   2.861   2.353
  184fsi     O4 2155   2.901   3.102   2.342
  184fsi     F2 2156   2.998   2.966   2.174
  185fsi     F1 2157   1.560   2.654   1.354
  185fsi     S1 2158   1.439   2.556   1.338
  185fsi      N 2159   1.483   2.470   1.215
  185fsi     O1 2160   1.433   2.485   1.463
  185fsi     O2 2161   1.332   2.647   1.309
  185fsi     S2 2162   1.528   2.320   1.214
  185fsi     O3 2163   1.600   2.276   1.330
  185fsi     O4 2164   1.577   2.280   1.085
  185fsi     F2 2165   1.393   2.243   1.226
  186fsi     F1 2166   2.756   1.317   2.387
  186fsi     S1 2167   2.727   1.162   2.382
  186fsi      N 2168   2.645   1.136   2.512
  186fsi     O1 2169   2.658   1.140   2.259
  186fsi     O2 2170   2.857   1.102   2.399
  186fsi     S2 2171   2.490   1.155   2.527
  186fsi     O3 2172   2.437   1.259   2.444
  186fsi     O4 2173   2.454   1.150   2.666
  186fsi     F2 2174   2.432   1.022   2.468
  187fsi     F1 2175   0.949   2.898   1.471
  187fsi     S1 2176   1.073   2.820   1.416
  187fsi      N 2177   1.135   2.759   1.547
  187fsi     O1 2178   1.015   2.725   1.325
  187fsi     O2 2179   1.149   2.926   1.355
  187fsi     S2 2180   1.070   2.654   1.643
  187fsi     O3 2181   0.927   2.653   1.646
  187fsi     O4 2182   1.135   2.651   1.771
  187fsi     F2 2183   1.111   2.515   1.580
  188fsi     F1 2184   0.951   0.773   3.254
  188fsi     S1 2185   0.961   0.825   3.106
  188fsi      N 2186   0.908   0.974   3.116
  188fsi     O1 2187   1.101   0.815   3.073
  188fsi     O2 2188   0.869   0.742   3.033
  188fsi     S2 2189   0.990   1.101   3.155
  188fsi     O3 2190   1.084   1.085   3.262
  188fsi     O4 2191   0.903   1.216   3.161
  188fsi     F2 2192   1.077   1.129   3.027
  189fsi     F1 2193   2.328   3.161   3.260
  189fsi     S1 2194   2.385   3.281   3.176
  189fsi      N 2195   2.486   3.209   3.079
  189fsi     O1 2196   2.267   3.336   3.114
  189fsi     O2 2197   2.454   3.359   3.274
  189fsi     S2 2198   2.478   3.185   2.923
  189fsi     O3 2199   2.346   3.172   2.867
  189fsi     O4 2200   2.575   3.085   2.889
  189fsi     F2 2201   2.537   3.318   2.863
  190fsi     F1 2202   1.967   1.183   0.577
  190fsi     S1 2203   1.820   1.151   0.532
  190fsi      N 2204   1.767   1.284   0.466
  190fsi     O1 2205   1.832   1.038   0.443
  190fsi     O2 2206   1.751   1.127   0.656
  190fsi     S2 2207   1.771   1.332   0.316
  190fsi     O3 2208   1.876   1.277   0.234
  190fsi     O4 2209   1.739   1.471   0.302
  190fsi     F2 2210   1.644   1.262   0.257
  191fsi     F1 2211   3.095   0.421   1.613
  191fsi     S1 2212   3.046   0.274   1.640
  191fsi      N 2213   3.077   0.255   1.793
  191fsi     O1 2214   2.906   0.278   1.607
  191fsi     O2 2215   3.132   0.194   1.557
  191fsi     S2 2216   2.986   0.284   1.917
  191fsi     O3 2217   2.891   0.390   1.897
  191fsi     O4 2218   3.061   0.288   2.039
  191fsi     F2 2219   2.898   0.154   1.930
  192fsi     F1 2220   2.790   0.538   0.668
  192fsi     S1 2221   2.853   0.470   0.795
  192fsi      N 2222   2.765   0.341   0.810
  192fsi     O1 2223   2.990   0.445   0.758
  192fsi     O2 2224   2.827   0.565   0.899
  192fsi     S2 2225   2.798   0.193   0.769
  192fsi     O3 2226   2.849   0.175   0.636
  192fsi     O4 2227   2.689   0.108   0.808
  192fsi     F2 2228   2.914   0.150   0.867
  193fsi     F1 2229   1.938   2.037   2.547
  193fsi     S1 2230   1.816   1.952   2.601
  193fsi      N 2231   1.758   1.890   2.469
  193fsi     O1 2232   1.876   1.858   2.691
  193fsi     O2 2233   1.730   2.051   2.659
  193fsi     S2 2234   1.789   1.757   2.392
  193fsi     O3 2235   1.909   1.691   2.434
  193fsi     O4 2236   1.769   1.772   2.251
  193fsi     F2 2237   1.676   1.657   2.434
  194fsi     F1 2238   0.614   0.850   0.883
  194fsi     S1 2239   0.548   0.991   0.863
  194fsi      N 2240   0.645   1.088   0.939
  194fsi     O1 2241   0.546   1.011   0.720
  194fsi     O2 2242   0.421   0.980   0.929
  194fsi     S2 2243   0.770   1.163   0.882
  194fsi     O3 2244   0.836   1.098   0.771
  194fsi     O4 2245   0.853   1.221   0.983
  194fsi     F2 2246   0.705   1.288   0.813
  195fsi     F1 2247   2.645   3.274   2.406
  195fsi     S1 2248   2.609   3.177   2.524
  195fsi      N 2249   2.471   3.231   2.574
  195fsi     O1 2250   2.600   3.047   2.464
  195fsi     O2 2251   2.718   3.194   2.617
  195fsi     S2 2252   2.330   3.193   2.517
  195fsi     O3 2253   2.324   3.184   2.374
  195fsi     O4 2254   2.219   3.263   2.576
  195fsi     F2 2255   2.308   3.045   2.566
  196fsi     F1 2256   1.440   0.104   2.105
  196fsi     S1 2257   1.345   0.224   2.142
  196fsi      N 2258   1.204   0.171   2.097
  196fsi     O1 2259   1.363   0.237   2.284
  196fsi     O2 2260   1.391   0.332   2.060
  196fsi     S2 2261   1.071   0.160   2.179
  196fsi     O3 2262   1.084   0.113   2.315
  196fsi     O4 2263   0.964   0.103   2.101
  196fsi     F2 2264   1.029   0.311   2.192
  197fsi     F1 2265   2.553   1.254   2.930
  197fsi     S1 2266   2.462   1.314   3.042
  197fsi      N 2267   2.341   1.364   2.959
  197fsi     O1 2268   2.440   1.206   3.133
  197fsi     O2 2269   2.541   1.426   3.087
  197fsi     S2 2270   2.211   1.287   2.917
  197fsi     O3 2271   2.231   1.147   2.893
  197fsi     O4 2272   2.136   1.363   2.822
  197fsi     F2 2273   2.122   1.293   3.047
  198fsi     F1 2274   1.360   0.346   0.181
  198fsi     S1 2275   1.430   0.461   0.263
  198fsi      N 2276   1.362   0.592   0.207
  198fsi     O1 2277   1.398   0.432   0.400
  198fsi     O2 2278   1.568   0.450   0.225
  198fsi     S2 2279   1.218   0.651   0.231
  198fsi     O3 2280   1.140   0.585   0.332
  198fsi     O4 2281   1.151   0.691   0.111
  198fsi     F2 2282   1.249   0.788   0.300
  199fsi     F1 2283   2.563   1.790   1.621
  199fsi     S1 2284   2.683   1.860   1.551
  199fsi      N 2285   2.613   1.931   1.430
  199fsi     O1 2286   2.737   1.947   1.651
  199fsi     O2 2287   2.762   1.747   1.511
  199fsi     S2 2288   2.513   2.053   1.431
  199fsi     O3 2289   2.477   2.103   1.561
  199fsi     O4 2290   2.406   2.038   1.337
  199fsi     F2 2291   2.597   2.169   1.370
  200fsi     F1 2292   2.064   1.643   2.675
  200fsi     S1 2293   2.181   1.747   2.664
  200fsi      N 2294   2.311   1.662   2.668
  200fsi     O1 2295   2.164   1.815   2.539
  200fsi     O2 2296   2.168   1.825   2.784
  200fsi     S2 2297   2.340   1.525   2.599
  200fsi     O3 2298   2.226   1.460   2.539
  200fsi     O4 2299   2.429   1.450   2.682
  200fsi     F2 2300   2.429   1.565   2.476
   3.45200   3.45200   3.45200
