Small SPCE water box
 1530
    1SOL     OW    1   0.237   0.646   0.070
    1SOL    HW1    2   0.169   0.626   0.141
    1SOL    HW2    3   0.229   0.577  -0.003
    2SOL     OW    4   0.216   0.282   0.997
    2SOL    HW1    5   0.261   0.256   1.083
    2SOL    HW2    6   0.134   0.226   0.983
    3SOL     OW    7   2.522   0.367   0.654
    3SOL    HW1    8   2.442   0.423   0.675
    3SOL    HW2    9   2.497   0.299   0.584
    4SOL     OW   10   0.566   1.275   1.170
    4SOL    HW1   11   0.476   1.273   1.127
    4SOL    HW2   12   0.583   1.366   1.208
    5SOL     OW   13   1.553   1.510   0.703
    5SOL    HW1   14   1.504   1.497   0.789
    5SOL    HW2   15   1.486   1.521   0.629
    6SOL     OW   16   1.131   0.702   0.711
    6SOL    HW1   17   1.187   0.783   0.690
    6SOL    HW2   18   1.077   0.720   0.793
    7SOL     OW   19   1.761   0.602   0.232
    7SOL    HW1   20   1.736   0.595   0.135
    7SOL    HW2   21   1.724   0.524   0.281
    8SOL     OW   22   0.763   1.147   1.030
    8SOL    HW1   23   0.688   1.173   1.089
    8SOL    HW2   24   0.799   1.228   0.984
    9SOL     OW   25   0.853   0.793   1.819
    9SOL    HW1   26   0.845   0.866   1.887
    9SOL    HW2   27   0.879   0.832   1.731
   10SOL     OW   28   0.687   1.016   0.657
   10SOL    HW1   29   0.753   0.991   0.728
   10SOL    HW2   30   0.609   1.063   0.699
   11SOL     OW   31   0.693   1.159   1.803
   11SOL    HW1   32   0.751   1.237   1.826
   11SOL    HW2   33   0.606   1.193   1.767
   12SOL     OW   34   0.331   1.433   1.065
   12SOL    HW1   35   0.255   1.399   1.011
   12SOL    HW2   36   0.391   1.488   1.007
   13SOL     OW   37   1.461   1.500   1.343
   13SOL    HW1   38   1.490   1.594   1.358
   13SOL    HW2   39   1.429   1.460   1.429
   14SOL     OW   40   0.438   0.395   1.505
   14SOL    HW1   41   0.524   0.343   1.498
   14SOL    HW2   42   0.361   0.332   1.501
   15SOL     OW   43   1.612   0.452   0.735
   15SOL    HW1   44   1.531   0.483   0.685
   15SOL    HW2   45   1.646   0.527   0.792
   16SOL     OW   46   0.230   1.707   0.480
   16SOL    HW1   47   0.248   1.791   0.531
   16SOL    HW2   48   0.283   1.707   0.395
   17SOL     OW   49   1.133   1.340   1.690
   17SOL    HW1   50   1.176   1.342   1.781
   17SOL    HW2   51   1.076   1.257   1.683
   18SOL     OW   52   0.233   1.435   0.543
   18SOL    HW1   53   0.212   1.533   0.538
   18SOL    HW2   54   0.156   1.387   0.585
   19SOL     OW   55   0.243   1.087   0.886
   19SOL    HW1   56   0.254   1.000   0.935
   19SOL    HW2   57   0.191   1.150   0.943
   20SOL     OW   58   0.618   1.789   1.436
   20SOL    HW1   59   0.529   1.771   1.478
   20SOL    HW2   60   0.647   1.882   1.458
   21SOL     OW   61   0.638   0.965   0.124
   21SOL    HW1   62   0.597   1.047   0.085
   21SOL    HW2   63   0.666   0.982   0.218
   22SOL     OW   64   1.593   0.116   1.482
   22SOL    HW1   65   1.585   0.182   1.407
   22SOL    HW2   66   1.590   0.164   1.569
   23SOL     OW   67   0.155   0.632   0.601
   23SOL    HW1   68   0.095   0.555   0.578
   23SOL    HW2   69   0.107   0.694   0.663
   24SOL     OW   70   1.842   1.766   0.346
   24SOL    HW1   71   1.895   1.733   0.425
   24SOL    HW2   72   1.872   1.858   0.323
   25SOL     OW   73   0.029   1.598   0.118
   25SOL    HW1   74   0.019   1.500   0.132
   25SOL    HW2   75   0.008   1.646   0.203
   26SOL     OW   76   1.692   0.923   0.630
   26SOL    HW1   77   1.783   0.883   0.621
   26SOL    HW2   78   1.669   0.975   0.548
   27SOL     OW   79   1.647   1.107   0.435
   27SOL    HW1   80   1.727   1.121   0.377
   27SOL    HW2   81   1.650   1.169   0.513
   28SOL     OW   82   0.125   0.736   1.600
   28SOL    HW1   83   0.220   0.736   1.632
   28SOL    HW2   84   0.091   0.830   1.597
   29SOL     OW   85   0.610   1.374   0.732
   29SOL    HW1   86   0.564   1.286   0.741
   29SOL    HW2   87   0.594   1.411   0.640
   30SOL     OW   88   1.294   1.236   1.425
   30SOL    HW1   89   1.326   1.165   1.362
   30SOL    HW2   90   1.345   1.231   1.511
   31SOL     OW   91   0.812   0.028   0.565
   31SOL    HW1   92   0.845   0.109   0.517
   31SOL    HW2   93   0.715   0.015   0.544
   32SOL     OW   94   0.190   0.962   1.270
   32SOL    HW1   95   0.283   0.929   1.249
   32SOL    HW2   96   0.124   0.908   1.218
   33SOL     OW   97   1.522   1.001   0.201
   33SOL    HW1   98   1.460   0.923   0.215
   33SOL    HW2   99   1.570   1.022   0.286
   34SOL     OW  100   1.183   1.798   1.615
   34SOL    HW1  101   1.208   1.860   1.541
   34SOL    HW2  102   1.197   1.703   1.586
   35SOL     OW  103   0.316   0.257   1.791
   35SOL    HW1  104   0.386   0.326   1.807
   35SOL    HW2  105   0.229   0.288   1.828
   36SOL     OW  106   1.464   1.419   0.955
   36SOL    HW1  107   1.397   1.432   1.028
   36SOL    HW2  108   1.455   1.326   0.919
   37SOL     OW  109   1.663   1.721   0.576
   37SOL    HW1  110   1.632   1.699   0.484
   37SOL    HW2  111   1.639   1.646   0.638
   38SOL     OW  112   0.597   0.725   0.279
   38SOL    HW1  113   0.617   0.791   0.206
   38SOL    HW2  114   0.521   0.759   0.334
   39SOL     OW  115   1.283   0.343   0.934
   39SOL    HW1  116   1.190   0.307   0.932
   39SOL    HW2  117   1.338   0.292   1.001
   40SOL     OW  118   1.583   1.665   0.310
   40SOL    HW1  119   1.674   1.707   0.311
   40SOL    HW2  120   1.557   1.644   0.216
   41SOL     OW  121   0.799   0.610   1.458
   41SOL    HW1  122   0.765   0.596   1.552
   41SOL    HW2  123   0.751   0.548   1.396
   42SOL     OW  124   1.394   0.470   1.677
   42SOL    HW1  125   1.382   0.517   1.764
   42SOL    HW2  126   1.469   0.404   1.684
   43SOL     OW  127   0.964   0.890   1.576
   43SOL    HW1  128   1.020   0.813   1.546
   43SOL    HW2  129   0.913   0.927   1.498
   44SOL     OW  130   0.993   0.418   1.236
   44SOL    HW1  131   0.915   0.439   1.295
   44SOL    HW2  132   0.963   0.358   1.162
   45SOL     OW  133   1.045   0.700   0.429
   45SOL    HW1  134   1.064   0.694   0.527
   45SOL    HW2  135   0.962   0.649   0.407
   46SOL     OW  136   0.109   0.820   0.799
   46SOL    HW1  137   0.205   0.818   0.825
   46SOL    HW2  138   0.071   0.911   0.817
   47SOL     OW  139   0.140   1.853   1.571
   47SOL    HW1  140   0.134   1.830   1.668
   47SOL    HW2  141   0.049   1.853   1.530
   48SOL     OW  142   0.884   0.348   0.225
   48SOL    HW1  143   0.899   0.410   0.148
   48SOL    HW2  144   0.888   0.253   0.191
   49SOL     OW  145   1.717   0.583   1.829
   49SOL    HW1  146   1.685   0.670   1.792
   49SOL    HW2  147   1.725   0.517   1.754
   50SOL     OW  148   1.370   1.145   0.543
   50SOL    HW1  149   1.450   1.118   0.491
   50SOL    HW2  150   1.315   1.210   0.489
   51SOL     OW  151   0.564   0.198   0.891
   51SOL    HW1  152   0.542   0.209   0.987
   51SOL    HW2  153   0.552   0.285   0.844
   52SOL     OW  154   1.010   1.451   0.475
   52SOL    HW1  155   0.963   1.523   0.423
   52SOL    HW2  156   1.004   1.472   0.573
   53SOL     OW  157   0.352   1.802   0.854
   53SOL    HW1  158   0.401   1.715   0.863
   53SOL    HW2  159   0.418   1.877   0.855
   54SOL     OW  160   1.795   1.065   0.868
   54SOL    HW1  161   1.735   1.050   0.790
   54SOL    HW2  162   1.740   1.070   0.952
   55SOL     OW  163   1.227   1.545   1.509
   55SOL    HW1  164   1.223   1.468   1.573
   55SOL    HW2  165   1.170   1.524   1.429
   56SOL     OW  166   0.329   0.953   0.234
   56SOL    HW1  167   0.420   0.978   0.201
   56SOL    HW2  168   0.312   0.857   0.215
   57SOL     OW  169   1.467   0.734   0.726
   57SOL    HW1  170   1.453   0.678   0.808
   57SOL    HW2  171   1.544   0.796   0.742
   58SOL     OW  172   0.474   1.320   1.739
   58SOL    HW1  173   0.443   1.306   1.645
   58SOL    HW2  174   0.415   1.271   1.802
   59SOL     OW  175   1.111   1.777   0.228
   59SOL    HW1  176   1.050   1.732   0.292
   59SOL    HW2  177   1.139   1.712   0.157
   60SOL     OW  178   0.194   0.273   1.494
   60SOL    HW1  179   0.127   0.346   1.480
   60SOL    HW2  180   0.190   0.243   1.590
   61SOL     OW  181   1.631   1.375   0.082
   61SOL    HW1  182   1.595   1.468   0.074
   61SOL    HW2  183   1.557   1.309   0.067
   62SOL     OW  184   0.466   1.744   0.319
   62SOL    HW1  185   0.498   1.794   0.400
   62SOL    HW2  186   0.543   1.723   0.260
   63SOL     OW  187   1.401   0.111   0.421
   63SOL    HW1  188   1.384   0.080   0.328
   63SOL    HW2  189   1.499   0.121   0.436
   64SOL     OW  190   0.252   1.790   1.238
   64SOL    HW1  191   0.307   1.722   1.287
   64SOL    HW2  192   0.233   1.756   1.145
   65SOL     OW  193   0.939   1.697   0.903
   65SOL    HW1  194   1.020   1.642   0.924
   65SOL    HW2  195   0.887   1.654   0.830
   66SOL     OW  196   0.389   0.699   0.478
   66SOL    HW1  197   0.432   0.608   0.479
   66SOL    HW2  198   0.294   0.691   0.508
   67SOL     OW  199   1.548   0.222   1.731
   67SOL    HW1  200   1.546   0.253   1.826
   67SOL    HW2  201   1.470   0.161   1.714
   68SOL     OW  202   0.622   0.117   0.125
   68SOL    HW1  203   0.721   0.104   0.130
   68SOL    HW2  204   0.591   0.101   0.031
   69SOL     OW  205   0.774   0.265   1.750
   69SOL    HW1  206   0.849   0.207   1.782
   69SOL    HW2  207   0.711   0.283   1.826
   70SOL     OW  208   0.881   1.516   1.193
   70SOL    HW1  209   0.863   1.486   1.100
   70SOL    HW2  210   0.949   1.455   1.235
   71SOL     OW  211   1.346   0.590   1.433
   71SOL    HW1  212   1.375   0.551   1.521
   71SOL    HW2  213   1.379   0.684   1.426
   72SOL     OW  214   0.808   1.403   0.928
   72SOL    HW1  215   0.897   1.403   0.884
   72SOL    HW2  216   0.736   1.395   0.859
   73SOL     OW  217   0.924   0.507   0.902
   73SOL    HW1  218   0.898   0.498   0.806
   73SOL    HW2  219   0.966   0.422   0.933
   74SOL     OW  220   0.555   0.063   0.496
   74SOL    HW1  221   0.480   0.053   0.561
   74SOL    HW2  222   0.544   0.148   0.445
   75SOL     OW  223   1.435   1.198   0.042
   75SOL    HW1  224   1.466   1.117   0.093
   75SOL    HW2  225   1.340   1.218   0.068
   76SOL     OW  226   0.342   0.047   0.146
   76SOL    HW1  227   0.387   0.134   0.168
   76SOL    HW2  228   0.341  -0.011   0.227
   77SOL     OW  229   0.927   0.261   0.477
   77SOL    HW1  230   0.887   0.293   0.392
   77SOL    HW2  231   1.025   0.248   0.465
   78SOL     OW  232   1.080   0.677   1.465
   78SOL    HW1  233   0.999   0.618   1.465
   78SOL    HW2  234   1.161   0.622   1.445
   79SOL     OW  235   1.225   1.570   0.795
   79SOL    HW1  236   1.246   1.640   0.726
   79SOL    HW2  237   1.295   1.571   0.866
   80SOL     OW  238   0.462   1.144   0.743
   80SOL    HW1  239   0.386   1.128   0.806
   80SOL    HW2  240   0.432   1.127   0.649
   81SOL     OW  241   1.273   1.797   0.597
   81SOL    HW1  242   1.317   1.861   0.534
   81SOL    HW2  243   1.211   1.848   0.657
   82SOL     OW  244   1.080   0.579   0.000
   82SOL    HW1  245   0.994   0.629  -0.008
   82SOL    HW2  246   1.106   0.571   0.097
   83SOL     OW  247   0.080   0.554   1.392
   83SOL    HW1  248   0.169   0.552   1.347
   83SOL    HW2  249   0.084   0.617   1.470
   84SOL     OW  250   0.566   0.222   1.160
   84SOL    HW1  251   0.600   0.137   1.200
   84SOL    HW2  252   0.470   0.234   1.186
   85SOL     OW  253   0.869   0.463   0.643
   85SOL    HW1  254   0.824   0.527   0.580
   85SOL    HW2  255   0.890   0.378   0.594
   86SOL     OW  256   1.007   0.043   0.754
   86SOL    HW1  257   0.936   0.042   0.684
   86SOL    HW2  258   0.997  -0.038   0.813
   87SOL     OW  259   1.435   1.166   0.860
   87SOL    HW1  260   1.368   1.091   0.859
   87SOL    HW2  261   1.457   1.192   0.766
   88SOL     OW  262   1.472   0.595   0.989
   88SOL    HW1  263   1.426   0.506   0.993
   88SOL    HW2  264   1.539   0.600   1.063
   89SOL     OW  265   1.850   0.825   0.387
   89SOL    HW1  266   1.900   0.764   0.449
   89SOL    HW2  267   1.816   0.773   0.309
   90SOL     OW  268   0.487   1.426   0.175
   90SOL    HW1  269   0.411   1.381   0.223
   90SOL    HW2  270   0.482   1.404   0.077
   91SOL     OW  271   1.666   1.270   0.659
   91SOL    HW1  272   1.766   1.277   0.663
   91SOL    HW2  273   1.625   1.360   0.678
   92SOL     OW  274   1.398   0.586   0.085
   92SOL    HW1  275   1.331   0.556   0.153
   92SOL    HW2  276   1.476   0.523   0.085
   93SOL     OW  277   0.525   0.264   0.322
   93SOL    HW1  278   0.564   0.203   0.253
   93SOL    HW2  279   0.523   0.357   0.286
   94SOL     OW  280   1.756   1.228   1.582
   94SOL    HW1  281   1.847   1.188   1.574
   94SOL    HW2  282   1.763   1.322   1.614
   95SOL     OW  283   1.066   1.352   1.339
   95SOL    HW1  284   0.983   1.322   1.387
   95SOL    HW2  285   1.146   1.311   1.382
   96SOL     OW  286   1.599   1.628   1.642
   96SOL    HW1  287   1.606   1.660   1.547
   96SOL    HW2  288   1.684   1.581   1.667
   97SOL     OW  289   1.117   1.200   1.107
   97SOL    HW1  290   1.064   1.240   1.182
   97SOL    HW2  291   1.080   1.231   1.020
   98SOL     OW  292   1.636   1.102   1.081
   98SOL    HW1  293   1.635   1.173   1.152
   98SOL    HW2  294   1.551   1.107   1.028
   99SOL     OW  295   0.925   0.152   1.380
   99SOL    HW1  296   0.941   0.089   1.304
   99SOL    HW2  297   1.008   0.159   1.435
  100SOL     OW  298   0.982   1.112   1.720
  100SOL    HW1  299   0.884   1.127   1.735
  100SOL    HW2  300   0.995   1.032   1.661
  101SOL     OW  301   0.706   1.054   0.374
  101SOL    HW1  302   0.692   1.050   0.473
  101SOL    HW2  303   0.788   1.002   0.349
  102SOL     OW  304   0.414   0.813   1.254
  102SOL    HW1  305   0.494   0.824   1.313
  102SOL    HW2  306   0.375   0.722   1.267
  103SOL     OW  307   1.271   0.382   1.268
  103SOL    HW1  308   1.301   0.461   1.321
  103SOL    HW2  309   1.182   0.401   1.228
  104SOL     OW  310   0.060   1.570   1.327
  104SOL    HW1  311   0.027   1.659   1.295
  104SOL    HW2  312   0.158   1.574   1.343
  105SOL     OW  313   0.362   1.104   0.497
  105SOL    HW1  314   0.360   1.185   0.438
  105SOL    HW2  315   0.368   1.021   0.441
  106SOL     OW  316   0.560   0.541   0.867
  106SOL    HW1  317   0.577   0.598   0.786
  106SOL    HW2  318   0.619   0.572   0.941
  107SOL     OW  319   1.248   1.348   0.391
  107SOL    HW1  320   1.304   1.425   0.424
  107SOL    HW2  321   1.154   1.360   0.423
  108SOL     OW  322   1.271   1.452   1.145
  108SOL    HW1  323   1.326   1.458   1.228
  108SOL    HW2  324   1.213   1.371   1.149
  109SOL     OW  325   1.587   0.634   0.476
  109SOL    HW1  326   1.543   0.695   0.542
  109SOL    HW2  327   1.630   0.688   0.404
  110SOL     OW  328   0.353   1.519   1.324
  110SOL    HW1  329   0.330   1.472   1.239
  110SOL    HW2  330   0.451   1.535   1.328
  111SOL     OW  331   0.409   0.749   1.593
  111SOL    HW1  332   0.474   0.798   1.535
  111SOL    HW2  333   0.448   0.661   1.621
  112SOL     OW  334   1.590   0.776   1.672
  112SOL    HW1  335   1.498   0.816   1.669
  112SOL    HW2  336   1.648   0.821   1.604
  113SOL     OW  337   1.004   0.107   1.764
  113SOL    HW1  338   1.030   0.195   1.724
  113SOL    HW2  339   1.040   0.033   1.708
  114SOL     OW  340   0.489   0.065   1.751
  114SOL    HW1  341   0.473   0.002   1.675
  114SOL    HW2  342   0.409   0.124   1.762
  115SOL     OW  343   0.585   0.869   1.037
  115SOL    HW1  344   0.616   0.963   1.019
  115SOL    HW2  345   0.514   0.870   1.107
  116SOL     OW  346   1.363   0.860   1.040
  116SOL    HW1  347   1.283   0.863   0.980
  116SOL    HW2  348   1.397   0.766   1.046
  117SOL     OW  349   1.211   0.529   0.274
  117SOL    HW1  350   1.218   0.443   0.325
  117SOL    HW2  351   1.170   0.600   0.332
  118SOL     OW  352   0.307   0.210   1.240
  118SOL    HW1  353   0.274   0.244   1.328
  118SOL    HW2  354   0.288   0.112   1.232
  119SOL     OW  355   0.051   1.307   1.277
  119SOL    HW1  356   0.078   1.257   1.360
  119SOL    HW2  357   0.048   1.405   1.296
  120SOL     OW  358   0.732   0.635   1.065
  120SOL    HW1  359   0.797   0.606   0.994
  120SOL    HW2  360   0.698   0.727   1.043
  121SOL     OW  361   1.733   0.952   1.850
  121SOL    HW1  362   1.681   0.916   1.772
  121SOL    HW2  363   1.669   0.970   1.926
  122SOL     OW  364   0.357   0.083   0.690
  122SOL    HW1  365   0.316   0.162   0.645
  122SOL    HW2  366   0.306   0.001   0.666
  123SOL     OW  367   1.615   0.373   0.369
  123SOL    HW1  368   1.638   0.298   0.432
  123SOL    HW2  369   1.579   0.450   0.422
  124SOL     OW  370   1.022   0.762   0.966
  124SOL    HW1  371   1.033   0.783   1.063
  124SOL    HW2  372   0.995   0.667   0.955
  125SOL     OW  373   0.983   1.566   1.706
  125SOL    HW1  374   0.963   1.614   1.621
  125SOL    HW2  375   1.026   1.478   1.686
  126SOL     OW  376   1.859   1.516   1.606
  126SOL    HW1  377   1.872   1.540   1.510
  126SOL    HW2  378   1.942   1.537   1.657
  127SOL     OW  379   0.364   0.848   1.834
  127SOL    HW1  380   0.417   0.929   1.858
  127SOL    HW2  381   0.382   0.823   1.739
  128SOL     OW  382   1.536   0.282   0.126
  128SOL    HW1  383   1.473   0.206   0.141
  128SOL    HW2  384   1.569   0.317   0.213
  129SOL     OW  385   1.299   0.832   0.035
  129SOL    HW1  386   1.334   0.739   0.050
  129SOL    HW2  387   1.334   0.866  -0.052
  130SOL     OW  388   1.067   1.333   0.850
  130SOL    HW1  389   1.069   1.253   0.790
  130SOL    HW2  390   1.131   1.402   0.816
  131SOL     OW  391   0.326   0.820   0.963
  131SOL    HW1  392   0.424   0.835   0.949
  131SOL    HW2  393   0.311   0.724   0.988
  132SOL     OW  394   0.339   0.514   1.011
  132SOL    HW1  395   0.292   0.428   0.992
  132SOL    HW2  396   0.415   0.524   0.947
  133SOL     OW  397   1.136   0.381   1.680
  133SOL    HW1  398   1.089   0.440   1.746
  133SOL    HW2  399   1.230   0.413   1.667
  134SOL     OW  400   1.174   0.207   1.480
  134SOL    HW1  401   1.155   0.273   1.553
  134SOL    HW2  402   1.188   0.256   1.394
  135SOL     OW  403   2.500   1.331   0.204
  135SOL    HW1  404   2.409   1.342   0.163
  135SOL    HW2  405   2.516   1.235   0.223
  136SOL     OW  406   0.093   1.790   0.941
  136SOL    HW1  407   0.047   1.716   0.893
  136SOL    HW2  408   0.182   1.807   0.899
  137SOL     OW  409   0.504   1.572   0.906
  137SOL    HW1  410   0.573   1.641   0.927
  137SOL    HW2  411   0.546   1.495   0.858
  138SOL     OW  412   0.997   0.799   1.235
  138SOL    HW1  413   1.044   0.766   1.317
  138SOL    HW2  414   0.904   0.764   1.233
  139SOL     OW  415   0.042   0.549   1.111
  139SOL    HW1  416   0.129   0.516   1.075
  139SOL    HW2  417   0.046   0.550   1.211
  140SOL     OW  418   0.189   0.514   1.716
  140SOL    HW1  419   0.257   0.482   1.651
  140SOL    HW2  420   0.139   0.592   1.677
  141SOL     OW  421   1.375   0.944   1.660
  141SOL    HW1  422   1.398   1.041   1.673
  141SOL    HW2  423   1.375   0.923   1.562
  142SOL     OW  424   0.816   0.574   0.341
  142SOL    HW1  425   0.824   0.487   0.292
  142SOL    HW2  426   0.730   0.619   0.317
  143SOL     OW  427   1.647   0.602   1.196
  143SOL    HW1  428   1.622   0.537   1.268
  143SOL    HW2  429   1.736   0.576   1.157
  144SOL     OW  430   0.274   1.564   1.747
  144SOL    HW1  431   0.223   1.619   1.813
  144SOL    HW2  432   0.255   1.467   1.763
  145SOL     OW  433   0.679   0.463   1.268
  145SOL    HW1  434   0.641   0.376   1.237
  145SOL    HW2  435   0.694   0.523   1.189
  146SOL     OW  436   0.931   1.678   1.464
  146SOL    HW1  437   0.904   1.652   1.372
  146SOL    HW2  438   0.948   1.776   1.467
  147SOL     OW  439   0.471   0.504   0.185
  147SOL    HW1  440   0.543   0.573   0.193
  147SOL    HW2  441   0.384   0.544   0.214
  148SOL     OW  442   0.156   1.136   1.462
  148SOL    HW1  443   0.164   1.079   1.544
  148SOL    HW2  444   0.176   1.082   1.381
  149SOL     OW  445   1.336   1.052   1.230
  149SOL    HW1  446   1.366   0.990   1.157
  149SOL    HW2  447   1.254   1.101   1.200
  150SOL     OW  448   1.303   0.851   0.310
  150SOL    HW1  449   1.217   0.825   0.355
  150SOL    HW2  450   1.291   0.843   0.211
  151SOL     OW  451   1.761   1.748   1.149
  151SOL    HW1  452   1.824   1.779   1.078
  151SOL    HW2  453   1.734   1.653   1.130
  152SOL     OW  454   1.248   1.732   1.125
  152SOL    HW1  455   1.331   1.745   1.070
  152SOL    HW2  456   1.235   1.634   1.142
  153SOL     OW  457   0.083   1.242   1.023
  153SOL    HW1  458   0.074   1.268   1.119
  153SOL    HW2  459  -0.008   1.235   0.982
  154SOL     OW  460   0.684   1.663   1.717
  154SOL    HW1  461   0.628   1.746   1.724
  154SOL    HW2  462   0.743   1.668   1.636
  155SOL     OW  463   0.926   0.110   0.128
  155SOL    HW1  464   0.947   0.071   0.038
  155SOL    HW2  465   0.941   0.041   0.199
  156SOL     OW  466   1.712   0.141   0.509
  156SOL    HW1  467   1.795   0.129   0.454
  156SOL    HW2  468   1.695   0.059   0.563
  157SOL     OW  469   1.391   1.570   0.479
  157SOL    HW1  470   1.456   1.592   0.407
  157SOL    HW2  471   1.343   1.653   0.509
  158SOL     OW  472   0.143   1.802   1.854
  158SOL    HW1  473   0.095   1.726   1.897
  158SOL    HW2  474   0.210   1.840   1.918
  159SOL     OW  475   1.279   0.923   0.670
  159SOL    HW1  476   1.351   0.853   0.675
  159SOL    HW2  477   1.312   1.000   0.616
  160SOL     OW  478   0.825   1.270   1.431
  160SOL    HW1  479   0.810   1.311   1.521
  160SOL    HW2  480   0.747   1.291   1.371
  161SOL     OW  481   0.677   1.610   0.155
  161SOL    HW1  482   0.679   1.623   0.056
  161SOL    HW2  483   0.618   1.532   0.177
  162SOL     OW  484   1.646   1.727   1.394
  162SOL    HW1  485   1.691   1.733   1.304
  162SOL    HW2  486   1.624   1.818   1.426
  163SOL     OW  487   1.825   0.159   0.992
  163SOL    HW1  488   1.869   0.098   0.927
  163SOL    HW2  489   1.735   0.186   0.957
  164SOL     OW  490   0.279   0.347   0.723
  164SOL    HW1  491   0.192   0.379   0.685
  164SOL    HW2  492   0.268   0.327   0.820
  165SOL     OW  493   1.166   1.591   0.051
  165SOL    HW1  494   1.189   1.495   0.068
  165SOL    HW2  495   1.148   1.604  -0.046
  166SOL     OW  496   0.825   1.006   1.373
  166SOL    HW1  497   0.865   0.999   1.282
  166SOL    HW2  498   0.828   1.102   1.403
  167SOL     OW  499   0.919   0.914   0.294
  167SOL    HW1  500   0.978   0.944   0.219
  167SOL    HW2  501   0.956   0.830   0.334
  168SOL     OW  502   1.511   1.630   0.054
  168SOL    HW1  503   1.411   1.631   0.056
  168SOL    HW2  504   1.543   1.618  -0.040
  169SOL     OW  505   0.374   1.292   1.487
  169SOL    HW1  506   0.362   1.383   1.446
  169SOL    HW2  507   0.289   1.241   1.478
  170SOL     OW  508   1.612   1.285   1.287
  170SOL    HW1  509   1.677   1.286   1.363
  170SOL    HW2  510   1.546   1.359   1.299
  171SOL     OW  511   1.043   1.100   0.705
  171SOL    HW1  512   0.968   1.049   0.748
  171SOL    HW2  513   1.103   1.036   0.657
  172SOL     OW  514   1.018   0.241   0.965
  172SOL    HW1  515   1.007   0.198   0.875
  172SOL    HW2  516   1.012   0.170   1.036
  173SOL     OW  517   0.598   1.490   0.486
  173SOL    HW1  518   0.634   1.430   0.415
  173SOL    HW2  519   0.538   1.558   0.445
  174SOL     OW  520   1.716   0.388   1.382
  174SOL    HW1  521   1.784   0.461   1.380
  174SOL    HW2  522   1.744   0.313   1.322
  175SOL     OW  523   0.258   1.338   0.295
  175SOL    HW1  524   0.166   1.346   0.256
  175SOL    HW2  525   0.262   1.390   0.380
  176SOL     OW  526   0.094   0.983   1.723
  176SOL    HW1  527   0.017   0.986   1.786
  176SOL    HW2  528   0.179   0.969   1.774
  177SOL     OW  529   0.670   0.208   1.491
  177SOL    HW1  530   0.754   0.185   1.443
  177SOL    HW2  531   0.689   0.213   1.590
  178SOL     OW  532   0.063   0.341   2.513
  178SOL    HW1  533  -0.033   0.322   2.492
  178SOL    HW2  534   0.093   0.420   2.460
  179SOL     OW  535   1.435   0.857   1.400
  179SOL    HW1  536   1.380   0.914   1.340
  179SOL    HW2  537   1.532   0.863   1.374
  180SOL     OW  538   0.079   0.160   0.282
  180SOL    HW1  539   0.097   0.257   0.266
  180SOL    HW2  540   0.162   0.114   0.312
  181SOL     OW  541   1.184   1.333   0.121
  181SOL    HW1  542   1.086   1.317   0.121
  181SOL    HW2  543   1.217   1.339   0.216
  182SOL     OW  544   0.615   0.838   1.432
  182SOL    HW1  545   0.671   0.919   1.415
  182SOL    HW2  546   0.675   0.757   1.437
  183SOL     OW  547   1.489   1.773   0.968
  183SOL    HW1  548   1.521   1.828   0.891
  183SOL    HW2  549   1.565   1.758   1.031
  184SOL     OW  550   0.714   0.565   1.711
  184SOL    HW1  551   0.742   0.634   1.778
  184SOL    HW2  552   0.770   0.482   1.722
  185SOL     OW  553   1.459   1.212   1.636
  185SOL    HW1  554   1.448   1.219   1.735
  185SOL    HW2  555   1.556   1.216   1.613
  186SOL     OW  556   0.388   1.741   1.562
  186SOL    HW1  557   0.298   1.783   1.551
  186SOL    HW2  558   0.378   1.650   1.601
  187SOL     OW  559   1.677   0.882   1.256
  187SOL    HW1  560   1.657   0.792   1.216
  187SOL    HW2  561   1.668   0.952   1.185
  188SOL     OW  562   1.227   0.321   0.454
  188SOL    HW1  563   1.290   0.244   0.444
  188SOL    HW2  564   1.249   0.372   0.537
  189SOL     OW  565   0.591   0.747   0.663
  189SOL    HW1  566   0.640   0.831   0.639
  189SOL    HW2  567   0.513   0.736   0.601
  190SOL     OW  568   1.771   0.350   1.645
  190SOL    HW1  569   1.755   0.368   1.548
  190SOL    HW2  570   1.694   0.299   1.682
  191SOL     OW  571   1.741   0.932   1.513
  191SOL    HW1  572   1.757   1.029   1.532
  191SOL    HW2  573   1.723   0.920   1.415
  192SOL     OW  574   0.876   1.373   0.023
  192SOL    HW1  575   0.812   1.378   0.100
  192SOL    HW2  576   0.893   1.465  -0.012
  193SOL     OW  577   0.659   1.796   0.957
  193SOL    HW1  578   0.624   1.884   0.928
  193SOL    HW2  579   0.758   1.792   0.941
  194SOL     OW  580   0.862   0.961   0.860
  194SOL    HW1  581   0.916   0.888   0.902
  194SOL    HW2  582   0.830   1.024   0.930
  195SOL     OW  583   1.079   0.982   0.086
  195SOL    HW1  584   1.062   1.040   0.006
  195SOL    HW2  585   1.163   0.930   0.071
  196SOL     OW  586   1.858   1.564   0.850
  196SOL    HW1  587   1.786   1.553   0.782
  196SOL    HW2  588   1.856   1.488   0.914
  197SOL     OW  589   0.220   1.317   1.859
  197SOL    HW1  590   0.145   1.260   1.826
  197SOL    HW2  591   0.217   1.324   1.958
  198SOL     OW  592   0.101   1.199   0.627
  198SOL    HW1  593   0.094   1.187   0.726
  198SOL    HW2  594   0.196   1.187   0.599
  199SOL     OW  595   0.687   1.404   1.618
  199SOL    HW1  596   0.607   1.354   1.653
  199SOL    HW2  597   0.687   1.497   1.654
  200SOL     OW  598   1.832   0.190   1.250
  200SOL    HW1  599   1.803   0.099   1.280
  200SOL    HW2  600   1.828   0.194   1.150
  201SOL     OW  601   0.437   0.428   0.520
  201SOL    HW1  602   0.459   0.352   0.459
  201SOL    HW2  603   0.388   0.394   0.600
  202SOL     OW  604   1.699   1.494   1.109
  202SOL    HW1  605   1.616   1.462   1.064
  202SOL    HW2  606   1.728   1.428   1.178
  203SOL     OW  607   0.323   0.547   1.287
  203SOL    HW1  608   0.378   0.491   1.349
  203SOL    HW2  609   0.348   0.527   1.192
  204SOL     OW  610   0.820   1.579   0.685
  204SOL    HW1  611   0.836   1.608   0.591
  204SOL    HW2  612   0.735   1.526   0.690
  205SOL     OW  613   1.431   0.222   1.119
  205SOL    HW1  614   1.474   0.146   1.167
  205SOL    HW2  615   1.375   0.274   1.183
  206SOL     OW  616   1.010   2.534   1.134
  206SOL    HW1  617   0.940   2.463   1.136
  206SOL    HW2  618   1.099   2.494   1.159
  207SOL     OW  619   0.770   1.331   0.305
  207SOL    HW1  620   0.727   1.241   0.313
  207SOL    HW2  621   0.860   1.329   0.349
  208SOL     OW  622   0.621   1.565   1.285
  208SOL    HW1  623   0.621   1.648   1.340
  208SOL    HW2  624   0.709   1.555   1.239
  209SOL     OW  625   1.353   0.069   0.151
  209SOL    HW1  626   1.395   0.012   0.080
  209SOL    HW2  627   1.283   0.016   0.199
  210SOL     OW  628   1.302   0.460   0.690
  210SOL    HW1  629   1.239   0.538   0.693
  210SOL    HW2  630   1.302   0.414   0.779
  211SOL     OW  631   1.601   0.235   0.887
  211SOL    HW1  632   1.518   0.223   0.942
  211SOL    HW2  633   1.591   0.316   0.829
  212SOL     OW  634   0.047   1.072   0.291
  212SOL    HW1  635   0.146   1.066   0.302
  212SOL    HW2  636   0.003   1.000   0.344
  213SOL     OW  637   0.875   1.647   0.347
  213SOL    HW1  638   0.805   1.621   0.281
  213SOL    HW2  639   0.844   1.727   0.398
  214SOL     OW  640   0.233   0.636   1.959
  214SOL    HW1  641   0.148   0.625   2.010
  214SOL    HW2  642   0.223   0.593   1.869
  215SOL     OW  643   1.763   0.605   2.095
  215SOL    HW1  644   1.744   0.599   1.997
  215SOL    HW2  645   1.724   0.525   2.142
  216SOL     OW  646   0.225   1.713   2.336
  216SOL    HW1  647   0.252   1.781   2.403
  216SOL    HW2  648   0.290   1.713   2.260
  217SOL     OW  649   0.227   1.435   2.398
  217SOL    HW1  650   0.210   1.534   2.404
  217SOL    HW2  651   0.161   1.386   2.455
  218SOL     OW  652   0.597   0.975   1.990
  218SOL    HW1  653   0.627   1.041   1.922
  218SOL    HW2  654   0.645   0.992   2.076
  219SOL     OW  655   1.837   1.766   2.217
  219SOL    HW1  656   1.897   1.730   2.288
  219SOL    HW2  657   1.869   1.857   2.189
  220SOL     OW  658   0.031   1.599   1.986
  220SOL    HW1  659   0.022   1.499   1.991
  220SOL    HW2  660  -0.001   1.639   2.072
  221SOL     OW  661   1.691   0.898   2.465
  221SOL    HW1  662   1.788   0.895   2.488
  221SOL    HW2  663   1.673   0.975   2.404
  222SOL     OW  664   1.651   1.103   2.289
  222SOL    HW1  665   1.738   1.124   2.243
  222SOL    HW2  666   1.640   1.163   2.368
  223SOL     OW  667   0.804   0.014   2.390
  223SOL    HW1  668   0.838   0.108   2.376
  223SOL    HW2  669   0.704   0.014   2.393
  224SOL     OW  670   1.535   0.991   2.056
  224SOL    HW1  671   1.461   0.927   2.073
  224SOL    HW2  672   1.570   1.027   2.142
  225SOL     OW  673   0.595   0.726   2.127
  225SOL    HW1  674   0.613   0.802   2.064
  225SOL    HW2  675   0.526   0.754   2.193
  226SOL     OW  676   1.577   1.665   2.169
  226SOL    HW1  677   1.669   1.704   2.178
  226SOL    HW2  678   1.559   1.643   2.074
  227SOL     OW  679   0.070   0.825   0.194
  227SOL    HW1  680   0.160   0.794   0.163
  227SOL    HW2  681   0.065   0.925   0.187
  228SOL     OW  682   0.868   0.344   2.053
  228SOL    HW1  683   0.926   0.410   2.004
  228SOL    HW2  684   0.896   0.251   2.028
  229SOL     OW  685   0.317   0.948   2.100
  229SOL    HW1  686   0.406   0.981   2.068
  229SOL    HW2  687   0.298   0.859   2.059
  230SOL     OW  688   1.118   1.774   2.097
  230SOL    HW1  689   1.045   1.727   2.147
  230SOL    HW2  690   1.140   1.723   2.014
  231SOL     OW  691   1.631   1.377   1.946
  231SOL    HW1  692   1.593   1.469   1.933
  231SOL    HW2  693   1.559   1.309   1.931
  232SOL     OW  694   0.466   1.743   2.180
  232SOL    HW1  695   0.502   1.789   2.262
  232SOL    HW2  696   0.542   1.719   2.120
  233SOL     OW  697   1.403   0.107   2.289
  233SOL    HW1  698   1.382   0.077   2.196
  233SOL    HW2  699   1.501   0.124   2.297
  234SOL     OW  700   0.386   0.702   2.334
  234SOL    HW1  701   0.426   0.610   2.343
  234SOL    HW2  702   0.289   0.698   2.360
  235SOL     OW  703   0.619   0.129   1.973
  235SOL    HW1  704   0.708   0.087   1.990
  235SOL    HW2  705   0.580   0.092   1.889
  236SOL     OW  706   0.541   0.073   2.376
  236SOL    HW1  707   0.452   0.045   2.411
  236SOL    HW2  708   0.529   0.147   2.310
  237SOL     OW  709   1.429   1.191   1.901
  237SOL    HW1  710   1.466   1.117   1.957
  237SOL    HW2  711   1.340   1.220   1.938
  238SOL     OW  712   0.313   0.047   2.007
  238SOL    HW1  713   0.378   0.123   2.007
  238SOL    HW2  714   0.336  -0.015   2.082
  239SOL     OW  715   0.930   0.254   2.336
  239SOL    HW1  716   0.885   0.295   2.257
  239SOL    HW2  717   1.028   0.251   2.321
  240SOL     OW  718   0.450   1.151   0.097
  240SOL    HW1  719   0.375   1.144   0.162
  240SOL    HW2  720   0.416   1.133   0.005
  241SOL     OW  721   1.284   1.811   2.435
  241SOL    HW1  722   1.321   1.881   2.375
  241SOL    HW2  723   1.220   1.852   2.500
  242SOL     OW  724   1.031   0.549   1.876
  242SOL    HW1  725   0.986   0.634   1.847
  242SOL    HW2  726   1.094   0.568   1.951
  243SOL     OW  727   0.822   0.453   2.485
  243SOL    HW1  728   0.820   0.531   2.423
  243SOL    HW2  729   0.873   0.378   2.442
  244SOL     OW  730   1.858   0.826   2.231
  244SOL    HW1  731   1.893   0.769   2.306
  244SOL    HW2  732   1.815   0.768   2.162
  245SOL     OW  733   0.493   1.398   2.030
  245SOL    HW1  734   0.410   1.373   2.081
  245SOL    HW2  735   0.471   1.406   1.933
  246SOL     OW  736   1.391   0.573   1.936
  246SOL    HW1  737   1.332   0.553   2.015
  246SOL    HW2  738   1.482   0.537   1.953
  247SOL     OW  739   0.528   0.262   2.186
  247SOL    HW1  740   0.562   0.203   2.113
  247SOL    HW2  741   0.521   0.356   2.153
  248SOL     OW  742   0.706   1.054   2.230
  248SOL    HW1  743   0.690   1.056   2.329
  248SOL    HW2  744   0.789   1.001   2.211
  249SOL     OW  745   0.364   1.095   2.355
  249SOL    HW1  746   0.359   1.181   2.304
  249SOL    HW2  747   0.367   1.019   2.291
  250SOL     OW  748   1.240   1.355   2.238
  250SOL    HW1  749   1.304   1.420   2.280
  250SOL    HW2  750   1.160   1.344   2.296
  251SOL     OW  751   1.586   0.636   2.335
  251SOL    HW1  752   1.552   0.696   2.407
  251SOL    HW2  753   1.631   0.691   2.264
  252SOL     OW  754   1.208   0.528   2.136
  252SOL    HW1  755   1.218   0.441   2.185
  252SOL    HW2  756   1.179   0.599   2.200
  253SOL     OW  757   1.612   0.371   2.233
  253SOL    HW1  758   1.639   0.298   2.295
  253SOL    HW2  759   1.579   0.450   2.285
  254SOL     OW  760   1.534   0.278   1.989
  254SOL    HW1  761   1.472   0.203   2.012
  254SOL    HW2  762   1.570   0.319   2.073
  255SOL     OW  763   1.301   0.831   1.901
  255SOL    HW1  764   1.340   0.739   1.908
  255SOL    HW2  765   1.324   0.870   1.812
  256SOL     OW  766   2.498   1.326   2.063
  256SOL    HW1  767   2.405   1.340   2.031
  256SOL    HW2  768   2.511   1.230   2.087
  257SOL     OW  769   0.820   0.575   2.193
  257SOL    HW1  770   0.820   0.487   2.146
  257SOL    HW2  771   0.730   0.619   2.182
  258SOL     OW  772   0.474   0.506   2.043
  258SOL    HW1  773   0.542   0.577   2.060
  258SOL    HW2  774   0.383   0.540   2.069
  259SOL     OW  775   1.305   0.847   2.171
  259SOL    HW1  776   1.217   0.832   2.216
  259SOL    HW2  777   1.293   0.845   2.072
  260SOL     OW  778   1.715   0.138   2.367
  260SOL    HW1  779   1.800   0.128   2.316
  260SOL    HW2  780   1.701   0.057   2.425
  261SOL     OW  781   1.376   1.574   2.322
  261SOL    HW1  782   1.452   1.594   2.259
  261SOL    HW2  783   1.339   1.660   2.357
  262SOL     OW  784   0.667   1.615   2.016
  262SOL    HW1  785   0.682   1.625   1.918
  262SOL    HW2  786   0.624   1.526   2.034
  263SOL     OW  787   1.200   1.611   1.892
  263SOL    HW1  788   1.199   1.518   1.928
  263SOL    HW2  789   1.134   1.618   1.817
  264SOL     OW  790   0.922   0.916   2.158
  264SOL    HW1  791   0.981   0.944   2.082
  264SOL    HW2  792   0.945   0.822   2.185
  265SOL     OW  793   1.505   1.623   1.904
  265SOL    HW1  794   1.405   1.630   1.907
  265SOL    HW2  795   1.535   1.627   1.808
  266SOL     OW  796   0.597   1.496   2.352
  266SOL    HW1  797   0.636   1.430   2.288
  266SOL    HW2  798   0.537   1.559   2.303
  267SOL     OW  799   0.254   1.350   2.148
  267SOL    HW1  800   0.157   1.348   2.124
  267SOL    HW2  801   0.265   1.389   2.240
  268SOL     OW  802   0.069   0.335   1.864
  268SOL    HW1  803  -0.030   0.328   1.872
  268SOL    HW2  804   0.093   0.422   1.822
  269SOL     OW  805   0.096   0.170   2.200
  269SOL    HW1  806   0.090   0.248   2.139
  269SOL    HW2  807   0.180   0.120   2.182
  270SOL     OW  808   1.183   1.342   1.978
  270SOL    HW1  809   1.086   1.319   1.978
  270SOL    HW2  810   1.217   1.345   2.071
  271SOL     OW  811   1.226   0.320   2.312
  271SOL    HW1  812   1.292   0.245   2.309
  271SOL    HW2  813   1.240   0.373   2.395
  272SOL     OW  814   0.609   0.735   2.484
  272SOL    HW1  815   0.635   0.826   2.516
  272SOL    HW2  816   0.514   0.735   2.455
  273SOL     OW  817   0.865   1.371   1.886
  273SOL    HW1  818   0.815   1.389   1.971
  273SOL    HW2  819   0.891   1.457   1.843
  274SOL     OW  820   1.079   0.983   1.949
  274SOL    HW1  821   1.055   1.040   1.870
  274SOL    HW2  822   1.162   0.931   1.929
  275SOL     OW  823   0.412   0.424   2.378
  275SOL    HW1  824   0.458   0.357   2.319
  275SOL    HW2  825   0.408   0.389   2.471
  276SOL     OW  826   0.770   1.330   2.162
  276SOL    HW1  827   0.725   1.242   2.175
  276SOL    HW2  828   0.857   1.331   2.211
  277SOL     OW  829   1.352   0.067   2.010
  277SOL    HW1  830   1.403   0.008   1.947
  277SOL    HW2  831   1.280   0.013   2.055
  278SOL     OW  832   0.042   1.062   2.141
  278SOL    HW1  833   0.142   1.063   2.153
  278SOL    HW2  834   0.001   1.002   2.209
  279SOL     OW  835   0.880   1.645   2.203
  279SOL    HW1  836   0.805   1.618   2.143
  279SOL    HW2  837   0.850   1.719   2.263
  280SOL     OW  838   0.215   2.138   0.992
  280SOL    HW1  839   0.255   2.115   1.080
  280SOL    HW2  840   0.131   2.086   0.978
  281SOL     OW  841   2.521   2.226   0.655
  281SOL    HW1  842   2.438   2.279   0.675
  281SOL    HW2  843   2.499   2.157   0.586
  282SOL     OW  844   1.735   2.465   0.231
  282SOL    HW1  845   1.743   2.448   0.133
  282SOL    HW2  846   1.728   2.378   0.280
  283SOL     OW  847   0.441   2.258   1.506
  283SOL    HW1  848   0.524   2.204   1.497
  283SOL    HW2  849   0.361   2.198   1.501
  284SOL     OW  850   1.613   2.318   0.730
  284SOL    HW1  851   1.525   2.348   0.692
  284SOL    HW2  852   1.645   2.384   0.797
  285SOL     OW  853   1.597   1.977   1.475
  285SOL    HW1  854   1.578   2.049   1.408
  285SOL    HW2  855   1.591   2.016   1.567
  286SOL     OW  856   0.132   2.476   0.598
  286SOL    HW1  857   0.060   2.408   0.581
  286SOL    HW2  858   0.094   2.549   0.655
  287SOL     OW  859   0.806   1.860   0.500
  287SOL    HW1  860   0.854   1.947   0.491
  287SOL    HW2  861   0.709   1.876   0.514
  288SOL     OW  862   0.324   2.112   1.808
  288SOL    HW1  863   0.386   2.189   1.798
  288SOL    HW2  864   0.231   2.145   1.823
  289SOL     OW  865   1.281   2.204   0.935
  289SOL    HW1  866   1.188   2.168   0.935
  289SOL    HW2  867   1.337   2.153   1.001
  290SOL     OW  868   0.805   2.412   1.473
  290SOL    HW1  869   0.754   2.441   1.554
  290SOL    HW2  870   0.741   2.392   1.399
  291SOL     OW  871   1.399   2.337   1.677
  291SOL    HW1  872   1.379   2.369   1.770
  291SOL    HW2  873   1.465   2.262   1.681
  292SOL     OW  874   0.991   2.275   1.235
  292SOL    HW1  875   0.918   2.297   1.300
  292SOL    HW2  876   0.955   2.213   1.165
  293SOL     OW  877   1.060   0.028   0.429
  293SOL    HW1  878   1.071   0.058   0.524
  293SOL    HW2  879   0.965   0.001   0.414
  294SOL     OW  880   0.097   0.144   0.798
  294SOL    HW1  881   0.196   0.148   0.797
  294SOL    HW2  882   0.059   0.234   0.777
  295SOL     OW  883   0.869   2.202   0.198
  295SOL    HW1  884   0.924   2.263   0.140
  295SOL    HW2  885   0.881   2.108   0.166
  296SOL     OW  886   1.710   2.443   1.826
  296SOL    HW1  887   1.695   2.535   1.788
  296SOL    HW2  888   1.724   2.379   1.751
  297SOL     OW  889   0.547   2.052   0.891
  297SOL    HW1  890   0.549   2.068   0.989
  297SOL    HW2  891   0.551   2.140   0.843
  298SOL     OW  892   1.468   0.068   0.723
  298SOL    HW1  893   1.442   0.030   0.811
  298SOL    HW2  894   1.523   0.150   0.736
  299SOL     OW  895   0.201   2.148   1.498
  299SOL    HW1  896   0.120   2.205   1.482
  299SOL    HW2  897   0.184   2.088   1.576
  300SOL     OW  898   1.402   1.969   0.429
  300SOL    HW1  899   1.382   1.942   0.334
  300SOL    HW2  900   1.501   1.981   0.440
  301SOL     OW  901   1.540   2.091   1.727
  301SOL    HW1  902   1.547   2.114   1.824
  301SOL    HW2  903   1.475   2.016   1.715
  302SOL     OW  904   0.619   1.980   0.121
  302SOL    HW1  905   0.717   1.965   0.136
  302SOL    HW2  906   0.597   1.963   0.025
  303SOL     OW  907   0.780   2.132   1.752
  303SOL    HW1  908   0.846   2.061   1.777
  303SOL    HW2  909   0.710   2.140   1.824
  304SOL     OW  910   1.351   2.445   1.429
  304SOL    HW1  911   1.376   2.405   1.517
  304SOL    HW2  912   1.371   2.543   1.430
  305SOL     OW  913   0.546   1.924   0.511
  305SOL    HW1  914   0.462   1.923   0.565
  305SOL    HW2  915   0.548   2.005   0.452
  306SOL     OW  916   0.302   1.907   0.164
  306SOL    HW1  917   0.364   1.985   0.164
  306SOL    HW2  918   0.345   1.832   0.215
  307SOL     OW  919   0.939   2.089   0.468
  307SOL    HW1  920   0.891   2.148   0.403
  307SOL    HW2  921   1.036   2.111   0.466
  308SOL     OW  922   0.080   2.415   1.395
  308SOL    HW1  923   0.169   2.413   1.350
  308SOL    HW2  924   0.070   2.499   1.447
  309SOL     OW  925   0.565   2.087   1.160
  309SOL    HW1  926   0.602   1.999   1.190
  309SOL    HW2  927   0.470   2.094   1.187
  310SOL     OW  928   1.015   1.909   0.755
  310SOL    HW1  929   0.951   1.909   0.679
  310SOL    HW2  930   0.995   1.832   0.816
  311SOL     OW  931   1.476   2.446   0.981
  311SOL    HW1  932   1.427   2.360   0.997
  311SOL    HW2  933   1.537   2.465   1.058
  312SOL     OW  934   0.531   2.118   0.327
  312SOL    HW1  935   0.564   2.063   0.250
  312SOL    HW2  936   0.525   2.214   0.301
  313SOL     OW  937   0.917   1.961   1.402
  313SOL    HW1  938   0.938   1.935   1.308
  313SOL    HW2  939   0.997   2.006   1.443
  314SOL     OW  940   1.272   2.245   1.266
  314SOL    HW1  941   1.300   2.323   1.322
  314SOL    HW2  942   1.180   2.261   1.230
  315SOL     OW  943   0.570   2.392   0.863
  315SOL    HW1  944   0.564   2.459   0.789
  315SOL    HW2  945   0.610   2.436   0.944
  316SOL     OW  946   1.001   1.971   1.762
  316SOL    HW1  947   1.033   2.054   1.716
  316SOL    HW2  948   1.051   1.892   1.727
  317SOL     OW  949   0.499   1.912   1.744
  317SOL    HW1  950   0.466   1.851   1.672
  317SOL    HW2  951   0.430   1.982   1.763
  318SOL     OW  952   1.209   2.385   0.284
  318SOL    HW1  953   1.214   2.300   0.335
  318SOL    HW2  954   1.157   2.453   0.336
  319SOL     OW  955   0.304   2.069   1.240
  319SOL    HW1  956   0.275   2.105   1.328
  319SOL    HW2  957   0.282   1.972   1.234
  320SOL     OW  958   0.732  -0.002   1.059
  320SOL    HW1  959   0.789  -0.030   0.981
  320SOL    HW2  960   0.707   0.094   1.049
  321SOL     OW  961   0.304   1.928   0.624
  321SOL    HW1  962   0.287   2.023   0.649
  321SOL    HW2  963   0.300   1.871   0.706
  322SOL     OW  964   1.614   2.230   0.372
  322SOL    HW1  965   1.639   2.158   0.437
  322SOL    HW2  966   1.572   2.306   0.421
  323SOL     OW  967   1.538   2.138   0.126
  323SOL    HW1  968   1.476   2.062   0.147
  323SOL    HW2  969   1.569   2.180   0.212
  324SOL     OW  970   0.342   2.371   1.013
  324SOL    HW1  971   0.292   2.287   0.989
  324SOL    HW2  972   0.413   2.387   0.944
  325SOL     OW  973   1.140   2.239   1.682
  325SOL    HW1  974   1.090   2.303   1.741
  325SOL    HW2  975   1.231   2.275   1.662
  326SOL     OW  976   1.161   2.068   1.473
  326SOL    HW1  977   1.152   2.130   1.551
  326SOL    HW2  978   1.190   2.118   1.392
  327SOL     OW  979   0.048   2.427   1.114
  327SOL    HW1  980   0.123   2.376   1.072
  327SOL    HW2  981   0.045   2.406   1.212
  328SOL     OW  982   0.185   2.380   1.714
  328SOL    HW1  983   0.252   2.350   1.646
  328SOL    HW2  984   0.136   2.459   1.679
  329SOL     OW  985   0.812   2.433   0.301
  329SOL    HW1  986   0.815   2.337   0.275
  329SOL    HW2  987   0.718   2.460   0.321
  330SOL     OW  988   1.646   2.461   1.198
  330SOL    HW1  989   1.623   2.396   1.270
  330SOL    HW2  990   1.731   2.434   1.154
  331SOL     OW  991   0.671   2.324   1.261
  331SOL    HW1  992   0.636   2.236   1.230
  331SOL    HW2  993   0.689   2.383   1.182
  332SOL     OW  994   0.905   1.950   0.134
  332SOL    HW1  995   0.946   1.942   0.043
  332SOL    HW2  996   0.959   1.898   0.200
  333SOL     OW  997   1.719   1.998   0.517
  333SOL    HW1  998   1.797   1.988   0.455
  333SOL    HW2  999   1.699   1.909   0.559
  334SOL     OW 1000   1.839   2.034   0.967
  334SOL    HW1 1001   1.875   1.947   0.932
  334SOL    HW2 1002   1.747   2.049   0.931
  335SOL     OW 1003   0.273   2.185   0.724
  335SOL    HW1 1004   0.189   2.223   0.684
  335SOL    HW2 1005   0.259   2.170   0.822
  336SOL     OW 1006   1.020   2.098   0.969
  336SOL    HW1 1007   1.006   2.059   0.878
  336SOL    HW2 1008   1.012   2.025   1.038
  337SOL     OW 1009   1.717   2.247   1.382
  337SOL    HW1 1010   1.785   2.321   1.378
  337SOL    HW2 1011   1.744   2.174   1.320
  338SOL     OW 1012   0.671   2.058   1.495
  338SOL    HW1 1013   0.757   2.045   1.446
  338SOL    HW2 1014   0.690   2.079   1.591
  339SOL     OW 1015   0.075   2.207   2.512
  339SOL    HW1 1016  -0.022   2.196   2.492
  339SOL    HW2 1017   0.110   2.288   2.466
  340SOL     OW 1018   0.102   2.023   0.338
  340SOL    HW1 1019   0.088   2.106   0.285
  340SOL    HW2 1020   0.187   1.978   0.308
  341SOL     OW 1021   0.717   2.408   1.727
  341SOL    HW1 1022   0.750   2.483   1.784
  341SOL    HW2 1023   0.786   2.337   1.722
  342SOL     OW 1024   1.226   2.179   0.455
  342SOL    HW1 1025   1.292   2.105   0.444
  342SOL    HW2 1026   1.247   2.232   0.536
  343SOL     OW 1027   1.766   2.221   1.645
  343SOL    HW1 1028   1.753   2.229   1.546
  343SOL    HW2 1029   1.697   2.160   1.683
  344SOL     OW 1030   1.816   2.051   1.234
  344SOL    HW1 1031   1.823   1.957   1.267
  344SOL    HW2 1032   1.827   2.053   1.135
  345SOL     OW 1033   0.442   2.281   0.529
  345SOL    HW1 1034   0.451   2.209   0.460
  345SOL    HW2 1035   0.379   2.251   0.601
  346SOL     OW 1036   0.320   2.409   1.285
  346SOL    HW1 1037   0.376   2.355   1.348
  346SOL    HW2 1038   0.348   2.390   1.191
  347SOL     OW 1039   1.431   2.083   1.118
  347SOL    HW1 1040   1.471   2.006   1.167
  347SOL    HW2 1041   1.374   2.136   1.180
  348SOL     OW 1042   1.004   1.888   1.152
  348SOL    HW1 1043   0.942   1.819   1.116
  348SOL    HW2 1044   1.098   1.853   1.152
  349SOL     OW 1045   1.352   1.918   0.175
  349SOL    HW1 1046   1.385   1.872   0.093
  349SOL    HW2 1047   1.265   1.876   0.203
  350SOL     OW 1048   1.298   2.313   0.688
  350SOL    HW1 1049   1.249   2.401   0.690
  350SOL    HW2 1050   1.304   2.276   0.780
  351SOL     OW 1051   1.591   2.079   0.881
  351SOL    HW1 1052   1.512   2.082   0.942
  351SOL    HW2 1053   1.592   2.159   0.821
  352SOL     OW 1054   1.736   2.465   2.098
  352SOL    HW1 1055   1.744   2.456   1.998
  352SOL    HW2 1056   1.726   2.375   2.139
  353SOL     OW 1057   0.136   2.475   2.469
  353SOL    HW1 1058   0.050   2.456   2.421
  353SOL    HW2 1059   0.130   2.565   2.513
  354SOL     OW 1060   0.804   1.860   2.354
  354SOL    HW1 1061   0.853   1.947   2.353
  354SOL    HW2 1062   0.707   1.877   2.372
  355SOL     OW 1063   1.065   0.020   2.290
  355SOL    HW1 1064   1.075   0.061   2.381
  355SOL    HW2 1065   0.969   0.004   2.271
  356SOL     OW 1066   0.869   2.195   2.056
  356SOL    HW1 1067   0.926   2.265   2.013
  356SOL    HW2 1068   0.898   2.104   2.025
  357SOL     OW 1069   1.405   1.982   2.281
  357SOL    HW1 1070   1.385   1.941   2.192
  357SOL    HW2 1071   1.505   1.984   2.295
  358SOL     OW 1072   0.619   1.991   1.971
  358SOL    HW1 1073   0.708   1.950   1.989
  358SOL    HW2 1074   0.582   1.954   1.885
  359SOL     OW 1075   0.534   1.925   2.375
  359SOL    HW1 1076   0.449   1.926   2.427
  359SOL    HW2 1077   0.536   2.003   2.312
  360SOL     OW 1078   0.301   1.910   2.042
  360SOL    HW1 1079   0.363   1.979   2.007
  360SOL    HW2 1080   0.353   1.835   2.084
  361SOL     OW 1081   0.940   2.092   2.334
  361SOL    HW1 1082   0.891   2.147   2.266
  361SOL    HW2 1083   1.038   2.108   2.326
  362SOL     OW 1084   0.532   2.117   2.190
  362SOL    HW1 1085   0.561   2.063   2.112
  362SOL    HW2 1086   0.524   2.213   2.163
  363SOL     OW 1087   1.210   2.381   2.136
  363SOL    HW1 1088   1.219   2.296   2.188
  363SOL    HW2 1089   1.158   2.447   2.190
  364SOL     OW 1090   1.619   2.232   2.235
  364SOL    HW1 1091   1.637   2.157   2.299
  364SOL    HW2 1092   1.568   2.303   2.282
  365SOL     OW 1093   1.533   2.137   1.988
  365SOL    HW1 1094   1.472   2.062   2.015
  365SOL    HW2 1095   1.568   2.183   2.070
  366SOL     OW 1096   0.798   2.446   2.121
  366SOL    HW1 1097   0.824   2.350   2.129
  366SOL    HW2 1098   0.728   2.468   2.189
  367SOL     OW 1099   1.713   1.998   2.371
  367SOL    HW1 1100   1.799   1.990   2.319
  367SOL    HW2 1101   1.702   1.917   2.428
  368SOL     OW 1102   0.073   2.210   1.879
  368SOL    HW1 1103  -0.021   2.184   1.860
  368SOL    HW2 1104   0.098   2.290   1.824
  369SOL     OW 1105   0.105   2.019   2.202
  369SOL    HW1 1106   0.083   2.102   2.150
  369SOL    HW2 1107   0.188   1.977   2.165
  370SOL     OW 1108   1.222   2.178   2.318
  370SOL    HW1 1109   1.291   2.108   2.300
  370SOL    HW2 1110   1.249   2.232   2.398
  371SOL     OW 1111   0.439   2.283   2.385
  371SOL    HW1 1112   0.452   2.209   2.320
  371SOL    HW2 1113   0.384   2.250   2.462
  372SOL     OW 1114   1.350   1.915   2.025
  372SOL    HW1 1115   1.384   1.865   1.945
  372SOL    HW2 1116   1.261   1.878   2.052
  373SOL     OW 1117   1.295   2.310   0.034
  373SOL    HW1 1118   1.236   2.389   0.048
  373SOL    HW2 1119   1.322   2.273   0.124
  374SOL     OW 1120   2.097   0.620   0.115
  374SOL    HW1 1121   2.005   0.616   0.154
  374SOL    HW2 1122   2.098   0.575   0.026
  375SOL     OW 1123   2.074   0.278   0.993
  375SOL    HW1 1124   2.124   0.256   1.076
  375SOL    HW2 1125   1.984   0.233   0.996
  376SOL     OW 1126   1.871   0.383   0.642
  376SOL    HW1 1127   1.782   0.414   0.674
  376SOL    HW2 1128   1.859   0.306   0.580
  377SOL     OW 1129   2.187   1.450   1.062
  377SOL    HW1 1130   2.120   1.394   1.014
  377SOL    HW2 1131   2.259   1.478   0.998
  378SOL     OW 1132   2.301   0.397   1.508
  378SOL    HW1 1133   2.381   0.338   1.499
  378SOL    HW2 1134   2.218   0.341   1.503
  379SOL     OW 1135   2.085   1.712   0.480
  379SOL    HW1 1136   2.116   1.791   0.533
  379SOL    HW2 1137   2.142   1.703   0.398
  380SOL     OW 1138   2.090   1.438   0.536
  380SOL    HW1 1139   2.072   1.536   0.539
  380SOL    HW2 1140   2.021   1.390   0.590
  381SOL     OW 1141   2.106   1.090   0.889
  381SOL    HW1 1142   2.114   1.001   0.934
  381SOL    HW2 1143   2.049   1.151   0.944
  382SOL     OW 1144   1.980   0.648   0.564
  382SOL    HW1 1145   1.943   0.556   0.576
  382SOL    HW2 1146   1.970   0.699   0.649
  383SOL     OW 1147   1.877   1.598   0.114
  383SOL    HW1 1148   1.877   1.501   0.141
  383SOL    HW2 1149   1.867   1.655   0.195
  384SOL     OW 1150   1.979   0.740   1.589
  384SOL    HW1 1151   2.071   0.742   1.630
  384SOL    HW2 1152   1.944   0.833   1.581
  385SOL     OW 1153   2.433   1.398   0.748
  385SOL    HW1 1154   2.411   1.300   0.745
  385SOL    HW2 1155   2.442   1.433   0.654
  386SOL     OW 1156   2.056   0.973   1.265
  386SOL    HW1 1157   2.144   0.928   1.249
  386SOL    HW2 1158   1.982   0.913   1.235
  387SOL     OW 1159   2.182   0.256   1.792
  387SOL    HW1 1160   2.245   0.330   1.815
  387SOL    HW2 1161   2.094   0.272   1.837
  388SOL     OW 1162   1.949   0.818   0.775
  388SOL    HW1 1163   2.039   0.804   0.816
  388SOL    HW2 1164   1.908   0.901   0.813
  389SOL     OW 1165   1.993   1.831   1.575
  389SOL    HW1 1166   1.985   1.808   1.672
  389SOL    HW2 1167   1.902   1.851   1.538
  390SOL     OW 1168   0.250   0.342   0.210
  390SOL    HW1 1169   0.304   0.405   0.154
  390SOL    HW2 1170   0.235   0.257   0.160
  391SOL     OW 1171   2.351   0.217   0.905
  391SOL    HW1 1172   2.394   0.202   0.994
  391SOL    HW2 1173   2.393   0.296   0.860
  392SOL     OW 1174   2.218   1.805   0.856
  392SOL    HW1 1175   2.266   1.717   0.852
  392SOL    HW2 1176   2.284   1.879   0.859
  393SOL     OW 1177   2.185   0.948   0.241
  393SOL    HW1 1178   2.269   0.985   0.202
  393SOL    HW2 1179   2.171   0.854   0.207
  394SOL     OW 1180   2.325   1.247   1.738
  394SOL    HW1 1181   2.298   1.264   1.643
  394SOL    HW2 1182   2.247   1.263   1.799
  395SOL     OW 1183   2.060   0.279   1.498
  395SOL    HW1 1184   1.984   0.341   1.480
  395SOL    HW2 1185   2.051   0.241   1.591
  396SOL     OW 1186   2.332   1.738   0.328
  396SOL    HW1 1187   2.360   1.792   0.408
  396SOL    HW2 1188   2.396   1.754   0.253
  397SOL     OW 1189   2.117   1.792   1.235
  397SOL    HW1 1190   2.165   1.723   1.291
  397SOL    HW2 1191   2.095   1.752   1.146
  398SOL     OW 1192   2.230   0.693   0.461
  398SOL    HW1 1193   2.279   0.607   0.476
  398SOL    HW2 1194   2.140   0.688   0.503
  399SOL     OW 1195   2.396   0.062   0.486
  399SOL    HW1 1196   2.315   0.056   0.544
  399SOL    HW2 1197   2.397   0.150   0.438
  400SOL     OW 1198   2.165   0.036   0.163
  400SOL    HW1 1199   2.209   0.126   0.165
  400SOL    HW2 1200   2.212  -0.025   0.227
  401SOL     OW 1201   2.326   1.141   0.750
  401SOL    HW1 1202   2.244   1.124   0.806
  401SOL    HW2 1203   2.303   1.127   0.653
  402SOL     OW 1204   1.938   0.555   1.390
  402SOL    HW1 1205   2.030   0.554   1.350
  402SOL    HW2 1206   1.932   0.630   1.456
  403SOL     OW 1207   2.436   0.220   1.165
  403SOL    HW1 1208   2.460   0.124   1.180
  403SOL    HW2 1209   2.339   0.234   1.185
  404SOL     OW 1210   2.342   0.266   0.312
  404SOL    HW1 1211   2.415   0.203   0.286
  404SOL    HW2 1212   2.362   0.357   0.275
  405SOL     OW 1213   0.333   1.105   1.703
  405SOL    HW1 1214   0.234   1.119   1.703
  405SOL    HW2 1215   0.356   1.027   1.645
  406SOL     OW 1216   2.269   0.813   1.252
  406SOL    HW1 1217   2.349   0.827   1.310
  406SOL    HW2 1218   2.233   0.721   1.267
  407SOL     OW 1219   1.927   1.570   1.341
  407SOL    HW1 1220   1.885   1.646   1.292
  407SOL    HW2 1221   2.027   1.581   1.341
  408SOL     OW 1222   2.220   1.102   0.497
  408SOL    HW1 1223   2.225   1.185   0.442
  408SOL    HW2 1224   2.227   1.022   0.437
  409SOL     OW 1225   2.423   0.541   0.860
  409SOL    HW1 1226   2.437   0.614   0.793
  409SOL    HW2 1227   2.471   0.564   0.945
  410SOL     OW 1228   2.215   1.519   1.323
  410SOL    HW1 1229   2.200   1.472   1.237
  410SOL    HW2 1230   2.313   1.528   1.340
  411SOL     OW 1231   2.275   0.752   1.605
  411SOL    HW1 1232   2.329   0.800   1.535
  411SOL    HW2 1233   2.308   0.657   1.613
  412SOL     OW 1234   2.365   0.060   1.726
  412SOL    HW1 1235   2.325  -0.013   1.670
  412SOL    HW2 1236   2.291   0.115   1.765
  413SOL     OW 1237   2.429   0.875   1.037
  413SOL    HW1 1238   2.473   0.965   1.030
  413SOL    HW2 1239   2.368   0.874   1.116
  414SOL     OW 1240   2.172   0.211   1.241
  414SOL    HW1 1241   2.130   0.246   1.325
  414SOL    HW2 1242   2.147   0.115   1.229
  415SOL     OW 1243   1.908   1.309   1.279
  415SOL    HW1 1244   1.947   1.256   1.355
  415SOL    HW2 1245   1.917   1.406   1.298
  416SOL     OW 1246   2.203   0.079   0.659
  416SOL    HW1 1247   2.150   0.164   0.663
  416SOL    HW2 1248   2.152   0.006   0.705
  417SOL     OW 1249   2.209   0.906   1.811
  417SOL    HW1 1250   2.292   0.952   1.844
  417SOL    HW2 1251   2.232   0.851   1.731
  418SOL     OW 1252   2.177   0.812   0.951
  418SOL    HW1 1253   2.273   0.839   0.946
  418SOL    HW2 1254   2.170   0.720   0.991
  419SOL     OW 1255   2.197   0.515   1.007
  419SOL    HW1 1256   2.156   0.425   0.991
  419SOL    HW2 1257   2.279   0.525   0.950
  420SOL     OW 1258   1.866   1.327   0.195
  420SOL    HW1 1259   1.774   1.343   0.160
  420SOL    HW2 1260   1.876   1.231   0.221
  421SOL     OW 1261   1.953   1.796   0.932
  421SOL    HW1 1262   1.913   1.712   0.895
  421SOL    HW2 1263   2.047   1.806   0.899
  422SOL     OW 1264   1.900   0.538   1.116
  422SOL    HW1 1265   1.985   0.519   1.068
  422SOL    HW2 1266   1.919   0.556   1.213
  423SOL     OW 1267   2.057   0.521   1.723
  423SOL    HW1 1268   2.110   0.478   1.650
  423SOL    HW2 1269   1.992   0.586   1.684
  424SOL     OW 1270   0.169   0.571   0.317
  424SOL    HW1 1271   0.179   0.473   0.298
  424SOL    HW2 1272   0.072   0.593   0.327
  425SOL     OW 1273   2.108   1.557   1.737
  425SOL    HW1 1274   2.085   1.621   1.810
  425SOL    HW2 1275   2.110   1.464   1.774
  426SOL     OW 1276   2.341   0.509   0.196
  426SOL    HW1 1277   2.396   0.591   0.184
  426SOL    HW2 1278   2.244   0.532   0.194
  427SOL     OW 1279   2.013   1.137   1.467
  427SOL    HW1 1280   2.031   1.082   1.549
  427SOL    HW2 1281   2.030   1.081   1.386
  428SOL     OW 1282   1.945   1.262   1.019
  428SOL    HW1 1283   1.935   1.269   1.118
  428SOL    HW2 1284   1.867   1.213   0.980
  429SOL     OW 1285  -0.001   1.640   1.680
  429SOL    HW1 1286  -0.017   1.723   1.734
  429SOL    HW2 1287   0.088   1.645   1.636
  430SOL     OW 1288   1.995   1.797   1.846
  430SOL    HW1 1289   1.944   1.725   1.894
  430SOL    HW2 1290   2.052   1.846   1.912
  431SOL     OW 1291   2.140   0.344   0.721
  431SOL    HW1 1292   2.051   0.372   0.686
  431SOL    HW2 1293   2.133   0.327   0.819
  432SOL     OW 1294   2.228   1.295   1.496
  432SOL    HW1 1295   2.223   1.381   1.444
  432SOL    HW2 1296   2.149   1.238   1.474
  433SOL     OW 1297   2.453   1.488   0.487
  433SOL    HW1 1298   2.487   1.427   0.416
  433SOL    HW2 1299   2.403   1.564   0.446
  434SOL     OW 1300   2.123   1.340   0.290
  434SOL    HW1 1301   2.030   1.348   0.253
  434SOL    HW2 1302   2.129   1.389   0.377
  435SOL     OW 1303   1.971   1.013   1.725
  435SOL    HW1 1304   1.890   0.988   1.777
  435SOL    HW2 1305   2.053   0.977   1.770
  436SOL     OW 1306   1.930   0.351   0.039
  436SOL    HW1 1307   1.848   0.304   0.007
  436SOL    HW2 1308   1.964   0.412  -0.033
  437SOL     OW 1309   1.944   0.190   0.328
  437SOL    HW1 1310   1.920   0.249   0.251
  437SOL    HW2 1311   2.012   0.123   0.298
  438SOL     OW 1312  -0.032   0.854   1.419
  438SOL    HW1 1313   0.023   0.937   1.407
  438SOL    HW2 1314   0.029   0.775   1.426
  439SOL     OW 1315   2.249   1.746   1.559
  439SOL    HW1 1316   2.155   1.780   1.554
  439SOL    HW2 1317   2.250   1.653   1.596
  440SOL     OW 1318   2.404   0.741   0.645
  440SOL    HW1 1319   2.472   0.815   0.639
  440SOL    HW2 1320   2.337   0.752   0.572
  441SOL     OW 1321   2.089   1.304   1.852
  441SOL    HW1 1322   2.013   1.245   1.825
  441SOL    HW2 1323   2.080   1.328   1.948
  442SOL     OW 1324   1.944   1.239   0.658
  442SOL    HW1 1325   1.941   1.188   0.744
  442SOL    HW2 1326   2.021   1.206   0.603
  443SOL     OW 1327   0.037   1.385   1.628
  443SOL    HW1 1328  -0.043   1.333   1.659
  443SOL    HW2 1329   0.025   1.481   1.650
  444SOL     OW 1330   2.291   0.428   0.521
  444SOL    HW1 1331   2.299   0.358   0.450
  444SOL    HW2 1332   2.235   0.393   0.596
  445SOL     OW 1333   2.184   0.547   1.285
  445SOL    HW1 1334   2.236   0.489   1.348
  445SOL    HW2 1335   2.213   0.528   1.191
  446SOL     OW 1336   1.902   1.069   0.292
  446SOL    HW1 1337   2.002   1.072   0.295
  446SOL    HW2 1338   1.869   0.988   0.340
  447SOL     OW 1339   2.091   0.625   1.979
  447SOL    HW1 1340   1.998   0.628   2.015
  447SOL    HW2 1341   2.090   0.593   1.885
  448SOL     OW 1342   2.082   1.721   2.337
  448SOL    HW1 1343   2.122   1.778   2.409
  448SOL    HW2 1344   2.148   1.709   2.264
  449SOL     OW 1345   2.084   1.435   2.394
  449SOL    HW1 1346   2.072   1.534   2.407
  449SOL    HW2 1347   2.024   1.386   2.457
  450SOL     OW 1348   1.886   1.598   1.985
  450SOL    HW1 1349   1.875   1.500   2.001
  450SOL    HW2 1350   1.857   1.649   2.067
  451SOL     OW 1351   2.457   0.727   2.120
  451SOL    HW1 1352   2.485   0.809   2.071
  451SOL    HW2 1353   2.387   0.751   2.188
  452SOL     OW 1354   1.937   0.840   0.112
  452SOL    HW1 1355   2.014   0.792   0.154
  452SOL    HW2 1356   1.908   0.915   0.171
  453SOL     OW 1357   0.247   0.355   2.067
  453SOL    HW1 1358   0.308   0.410   2.010
  453SOL    HW2 1359   0.244   0.261   2.033
  454SOL     OW 1360   2.191   0.940   2.113
  454SOL    HW1 1361   2.258   0.989   2.058
  454SOL    HW2 1362   2.151   0.866   2.059
  455SOL     OW 1363   2.333   1.734   2.187
  455SOL    HW1 1364   2.357   1.789   2.268
  455SOL    HW2 1365   2.396   1.756   2.113
  456SOL     OW 1366   2.237   0.695   2.324
  456SOL    HW1 1367   2.280   0.607   2.342
  456SOL    HW2 1368   2.147   0.698   2.369
  457SOL     OW 1369   2.463   0.100   1.971
  457SOL    HW1 1370   2.562   0.094   1.983
  457SOL    HW2 1371   2.440   0.085   1.874
  458SOL     OW 1372   2.389   0.062   2.378
  458SOL    HW1 1373   2.300   0.066   2.423
  458SOL    HW2 1374   2.399   0.140   2.317
  459SOL     OW 1375   2.161   0.036   2.031
  459SOL    HW1 1376   2.210   0.122   2.017
  459SOL    HW2 1377   2.216  -0.025   2.087
  460SOL     OW 1378   2.320   1.133   0.104
  460SOL    HW1 1379   2.241   1.152   0.163
  460SOL    HW2 1380   2.291   1.130   0.009
  461SOL     OW 1381   2.346   0.267   2.180
  461SOL    HW1 1382   2.399   0.198   2.132
  461SOL    HW2 1383   2.366   0.357   2.141
  462SOL     OW 1384   2.238   1.096   2.353
  462SOL    HW1 1385   2.215   1.183   2.309
  462SOL    HW2 1386   2.218   1.021   2.291
  463SOL     OW 1387   1.867   1.324   2.056
  463SOL    HW1 1388   1.775   1.342   2.022
  463SOL    HW2 1389   1.873   1.229   2.087
  464SOL     OW 1390   0.156   0.559   2.227
  464SOL    HW1 1391   0.182   0.482   2.169
  464SOL    HW2 1392   0.077   0.606   2.188
  465SOL     OW 1393   2.338   0.503   2.042
  465SOL    HW1 1394   2.392   0.583   2.068
  465SOL    HW2 1395   2.240   0.526   2.048
  466SOL     OW 1396   2.440   1.476   2.347
  466SOL    HW1 1397   2.492   1.431   2.275
  466SOL    HW2 1398   2.406   1.563   2.313
  467SOL     OW 1399   2.121   1.351   2.144
  467SOL    HW1 1400   2.023   1.347   2.121
  467SOL    HW2 1401   2.132   1.389   2.235
  468SOL     OW 1402   1.941   0.342   1.893
  468SOL    HW1 1403   1.846   0.316   1.871
  468SOL    HW2 1404   1.966   0.422   1.839
  469SOL     OW 1405   1.947   0.189   2.190
  469SOL    HW1 1406   1.917   0.246   2.113
  469SOL    HW2 1407   2.011   0.120   2.157
  470SOL     OW 1408   2.456   0.728   2.468
  470SOL    HW1 1409   2.496   0.809   2.511
  470SOL    HW2 1410   2.360   0.745   2.447
  471SOL     OW 1411   2.287   0.428   2.387
  471SOL    HW1 1412   2.305   0.358   2.318
  471SOL    HW2 1413   2.254   0.384   2.470
  472SOL     OW 1414   1.904   1.078   2.162
  472SOL    HW1 1415   2.003   1.072   2.152
  472SOL    HW2 1416   1.867   0.989   2.189
  473SOL     OW 1417   2.084   2.137   0.991
  473SOL    HW1 1418   2.121   2.114   1.081
  473SOL    HW2 1419   1.992   2.100   0.981
  474SOL     OW 1420   1.873   2.237   0.642
  474SOL    HW1 1421   1.788   2.268   0.685
  474SOL    HW2 1422   1.855   2.157   0.586
  475SOL     OW 1423   2.302   2.259   1.507
  475SOL    HW1 1424   2.382   2.199   1.501
  475SOL    HW2 1425   2.219   2.205   1.504
  476SOL     OW 1426   1.945   2.486   0.551
  476SOL    HW1 1427   1.937   2.393   0.586
  476SOL    HW2 1428   1.961   2.549   0.628
  477SOL     OW 1429   2.185   2.114   1.803
  477SOL    HW1 1430   2.242   2.196   1.809
  477SOL    HW2 1431   2.093   2.136   1.834
  478SOL     OW 1432   1.958   0.144   0.770
  478SOL    HW1 1433   2.052   0.157   0.802
  478SOL    HW2 1434   1.909   0.231   0.777
  479SOL     OW 1435   0.287   2.196   0.194
  479SOL    HW1 1436   0.280   2.282   0.142
  479SOL    HW2 1437   0.230   2.126   0.150
  480SOL     OW 1438   2.395   2.059   0.886
  480SOL    HW1 1439   2.410   2.060   0.985
  480SOL    HW2 1440   2.420   2.148   0.848
  481SOL     OW 1441   2.063   2.150   1.501
  481SOL    HW1 1442   1.977   2.200   1.483
  481SOL    HW2 1443   2.050   2.089   1.579
  482SOL     OW 1444   2.464   1.964   0.111
  482SOL    HW1 1445   2.559   1.954   0.137
  482SOL    HW2 1446   2.453   1.946   0.013
  483SOL     OW 1447   2.399   1.918   0.514
  483SOL    HW1 1448   2.314   1.931   0.564
  483SOL    HW2 1449   2.415   1.997   0.454
  484SOL     OW 1450   2.163   1.900   0.165
  484SOL    HW1 1451   2.214   1.986   0.164
  484SOL    HW2 1452   2.214   1.832   0.219
  485SOL     OW 1453   1.937   2.419   1.389
  485SOL    HW1 1454   2.030   2.414   1.352
  485SOL    HW2 1455   1.930   2.499   1.449
  486SOL     OW 1456   2.429   2.084   1.155
  486SOL    HW1 1457   2.463   1.995   1.185
  486SOL    HW2 1458   2.334   2.095   1.185
  487SOL     OW 1459   2.347   2.129   0.309
  487SOL    HW1 1460   2.403   2.061   0.262
  487SOL    HW2 1461   2.386   2.220   0.297
  488SOL     OW 1462   2.421   2.402   0.863
  488SOL    HW1 1463   2.440   2.472   0.795
  488SOL    HW2 1464   2.472   2.422   0.947
  489SOL     OW 1465   2.361   1.919   1.732
  489SOL    HW1 1466   2.326   1.850   1.669
  489SOL    HW2 1467   2.287   1.979   1.761
  490SOL     OW 1468   2.168   2.069   1.242
  490SOL    HW1 1469   2.133   2.106   1.328
  490SOL    HW2 1470   2.143   1.973   1.233
  491SOL     OW 1471   2.159   1.930   0.625
  491SOL    HW1 1472   2.150   2.025   0.654
  491SOL    HW2 1473   2.165   1.871   0.706
  492SOL     OW 1474   2.197   2.374   1.008
  492SOL    HW1 1475   2.156   2.285   0.990
  492SOL    HW2 1476   2.277   2.388   0.950
  493SOL     OW 1477   1.903   2.398   1.116
  493SOL    HW1 1478   1.987   2.375   1.068
  493SOL    HW2 1479   1.922   2.412   1.213
  494SOL     OW 1480   2.058   2.383   1.719
  494SOL    HW1 1481   2.106   2.341   1.642
  494SOL    HW2 1482   1.994   2.452   1.686
  495SOL     OW 1483   0.179   2.415   0.329
  495SOL    HW1 1484   0.175   2.327   0.282
  495SOL    HW2 1485   0.088   2.457   0.329
  496SOL     OW 1486   2.130   2.186   0.723
  496SOL    HW1 1487   2.044   2.221   0.687
  496SOL    HW2 1488   2.121   2.169   0.821
  497SOL     OW 1489   1.932   2.209   0.041
  497SOL    HW1 1490   1.848   2.171   0.001
  497SOL    HW2 1491   1.978   2.266  -0.026
  498SOL     OW 1492   1.934   2.024   0.317
  498SOL    HW1 1493   1.915   2.108   0.265
  498SOL    HW2 1494   2.023   1.988   0.291
  499SOL     OW 1495   2.286   2.282   0.525
  499SOL    HW1 1496   2.300   2.211   0.455
  499SOL    HW2 1497   2.232   2.243   0.600
  500SOL     OW 1498   2.180   2.408   1.285
  500SOL    HW1 1499   2.235   2.352   1.348
  500SOL    HW2 1500   2.211   2.391   1.191
  501SOL     OW 1501   1.984   2.504   2.428
  501SOL    HW1 1502   1.928   2.424   2.449
  501SOL    HW2 1503   1.996   2.558   2.512
  502SOL     OW 1504   0.278   2.205   2.067
  502SOL    HW1 1505   0.287   2.280   2.001
  502SOL    HW2 1506   0.242   2.124   2.020
  503SOL     OW 1507   2.454   1.974   1.973
  503SOL    HW1 1508   2.551   1.957   1.989
  503SOL    HW2 1509   2.431   1.950   1.879
  504SOL     OW 1510   2.382   1.918   2.367
  504SOL    HW1 1511   2.304   1.936   2.427
  504SOL    HW2 1512   2.403   2.000   2.314
  505SOL     OW 1513   2.157   1.903   2.042
  505SOL    HW1 1514   2.212   1.981   2.010
  505SOL    HW2 1515   2.217   1.835   2.083
  506SOL     OW 1516   2.349   2.130   2.177
  506SOL    HW1 1517   2.396   2.062   2.120
  506SOL    HW2 1518   2.384   2.221   2.157
  507SOL     OW 1519   0.172   2.413   2.195
  507SOL    HW1 1520   0.172   2.327   2.143
  507SOL    HW2 1521   0.081   2.455   2.189
  508SOL     OW 1522   1.941   2.203   1.895
  508SOL    HW1 1523   1.848   2.179   1.866
  508SOL    HW2 1524   1.970   2.286   1.848
  509SOL     OW 1525   1.936   2.025   2.180
  509SOL    HW1 1526   1.914   2.107   2.126
  509SOL    HW2 1527   2.024   1.988   2.149
  510SOL     OW 1528   2.307   2.272   2.398
  510SOL    HW1 1529   2.301   2.212   2.318
  510SOL    HW2 1530   2.237   2.247   2.464
   2.50000   2.50000   2.50000
