integrator              = steep
emtol                   = 1000.0
emstep                  = 0.01
nsteps                  = 500

cutoff-scheme           = Verlet
nstlist                 = 10
rlist                   = 0.9
coulombtype             = PME
rcoulomb                = 0.9
vdwtype                 = Cut-off
rvdw                    = 0.9
pbc                     = xyz
