Small SPCE water box
 1530
    1SOL     OW    1   2.224   0.781   0.044  1.0499  0.3623 -0.3724
    1SOL    HW1    2   2.168   0.819  -0.030 -0.4086  1.0254  1.0132
    1SOL    HW2    3   2.262   0.856   0.098 -0.1813 -0.0697  1.1766
    2SOL     OW    4   0.078   2.410   1.122 -0.1919 -0.4745 -0.0964
    2SOL    HW1    5   0.027   2.449   1.199 -0.5519  1.6026 -1.2956
    2SOL    HW2    6   0.014   2.385   1.049  0.3512  2.1642 -1.6198
    3SOL     OW    7   0.035   0.936   0.500 -0.0132 -0.3604 -0.0978
    3SOL    HW1    8  -0.025   0.864   0.532  1.8570 -2.3657 -0.8696
    3SOL    HW2    9   0.126   0.924   0.541  0.5688  1.0639 -0.9059
    4SOL     OW   10   0.782   1.126   1.340  0.4638  0.6871 -0.1646
    4SOL    HW1   11   0.848   1.085   1.403  0.3196  0.4706 -0.1528
    4SOL    HW2   12   0.826   1.201   1.290  0.2512  1.6193  1.0148
    5SOL     OW   13   1.157   1.330   0.355  0.2862 -0.6192  0.5960
    5SOL    HW1   14   1.086   1.342   0.425 -0.9711 -1.6867 -0.4468
    5SOL    HW2   15   1.128   1.372   0.270 -0.5060 -3.5574 -0.7043
    6SOL     OW   16   0.934   0.673   0.620  0.0961 -0.0190  0.1397
    6SOL    HW1   17   0.841   0.650   0.648  0.0519 -1.4599 -1.1116
    6SOL    HW2   18   0.931   0.742   0.548 -0.1470 -1.6851 -1.5002
    7SOL     OW   19   1.534   0.804   0.042 -0.2402 -0.0603  0.3087
    7SOL    HW1   20   1.583   0.884   0.077 -0.1431 -0.8044  1.9781
    7SOL    HW2   21   1.600   0.736   0.010 -0.3303  0.6653 -1.5487
    8SOL     OW   22   0.759   1.178   0.732 -0.0146 -0.5752  0.0550
    8SOL    HW1   23   0.660   1.186   0.745  0.2107  0.8541  1.1703
    8SOL    HW2   24   0.801   1.267   0.745  1.2702 -0.7755 -2.2014
    9SOL     OW   25   1.255   0.660   1.912 -0.0920  0.1297  1.0258
    9SOL    HW1   26   1.244   0.655   2.011 -0.0762 -0.1287  1.0150
    9SOL    HW2   27   1.242   0.754   1.882 -0.3239  0.1684  1.2460
   10SOL     OW   28   0.553   1.229   0.997 -0.1073  0.1806 -0.2350
   10SOL    HW1   29   0.580   1.133   0.991  0.5588  0.2474  1.3259
   10SOL    HW2   30   0.528   1.262   0.906  1.1086 -1.0436 -1.0477
   11SOL     OW   31   0.787   1.002   2.171 -0.1509  0.9193 -0.1950
   11SOL    HW1   32   0.764   1.091   2.132  1.3117  0.7833 -1.4263
   11SOL    HW2   33   0.711   0.971   2.228 -1.5370  2.0203 -1.3548
   12SOL     OW   34   0.672   1.422   1.177  0.0151  0.2611  0.3641
   12SOL    HW1   35   0.659   1.346   1.113  0.2204 -0.9528  1.7072
   12SOL    HW2   36   0.583   1.449   1.215 -0.0470  0.6512 -0.0470
   13SOL     OW   37   1.148   1.719   1.477 -0.0295  0.1085  0.0451
   13SOL    HW1   38   1.204   1.691   1.554  1.4526 -1.4447 -1.4966
   13SOL    HW2   39   1.083   1.646   1.454  1.5975 -0.8453 -1.9462
   14SOL     OW   40   0.441   0.614   1.558 -0.0948 -0.2547  0.2268
   14SOL    HW1   41   0.342   0.600   1.561 -0.2656  0.6027 -0.8161
   14SOL    HW2   42   0.487   0.526   1.549 -0.8973 -0.5235 -1.5696
   15SOL     OW   43   1.347   0.593   1.140  0.3641 -0.8332  0.2882
   15SOL    HW1   44   1.326   0.563   1.233  1.7077 -0.6678  0.6744
   15SOL    HW2   45   1.406   0.674   1.143  0.6706 -0.9974 -0.7068
   16SOL     OW   46   0.043   1.625   0.752 -0.1579 -0.2664  0.3461
   16SOL    HW1   47  -0.013   1.682   0.812 -0.3817  0.4650 -0.5361
   16SOL    HW2   48   0.001   1.620   0.661  0.8365 -0.2962 -0.1267
   17SOL     OW   49   0.655   1.306   1.618  0.2694  0.1340 -0.0792
   17SOL    HW1   50   0.574   1.259   1.582  1.6458 -1.7768 -0.8622
   17SOL    HW2   51   0.650   1.403   1.594 -2.3293  0.3411  0.9541
   18SOL     OW   52   0.199   1.814   0.293  0.6486 -0.6620  0.2301
   18SOL    HW1   53   0.160   1.884   0.354  0.0299  2.3293 -3.2259
   18SOL    HW2   54   0.125   1.763   0.249  1.0457 -1.8234  0.8612
   19SOL     OW   55   0.145   1.461   0.981 -0.4791 -0.5972 -0.1033
   19SOL    HW1   56   0.104   1.370   0.972 -2.5150  0.1522  0.8024
   19SOL    HW2   57   0.113   1.519   0.905  0.3575 -0.4704 -0.3678
   20SOL     OW   58   0.157   1.735   1.581  0.1607  0.9382  0.2875
   20SOL    HW1   59   0.234   1.755   1.521  0.6523  0.1619  0.6503
   20SOL    HW2   60   0.184   1.668   1.650 -0.9510  0.3660  0.1861
   21SOL     OW   61   0.596   0.925   0.643 -0.0155 -0.4027  0.0553
   21SOL    HW1   62   0.507   0.958   0.612 -0.0453 -0.4244  0.1173
   21SOL    HW2   63   0.668   0.971   0.591 -0.0806 -0.8949 -0.4725
   22SOL     OW   64   1.562   0.057   1.491  0.4368  0.2151 -0.0066
   22SOL    HW1   65   1.570   0.142   1.542  0.3326  0.3040 -0.1373
   22SOL    HW2   66   1.608   0.066   1.403  1.6020 -0.3100  0.5307
   23SOL     OW   67   0.253   0.793   0.594  0.2503  0.4883  0.1817
   23SOL    HW1   68   0.212   0.768   0.681 -1.3162 -0.8265 -0.8732
   23SOL    HW2   69   0.256   0.713   0.534 -0.2654  1.7050 -1.5710
   24SOL     OW   70   1.845   1.659   0.309  0.1681  0.0376  0.2688
   24SOL    HW1   71   1.813   1.592   0.376 -1.8312  1.1536  0.5003
   24SOL    HW2   72   1.808   1.749   0.332  0.9993  0.8061 -1.2842
   25SOL     OW   73   2.000   1.310   0.517  0.5585  0.1488  0.1548
   25SOL    HW1   74   1.935   1.358   0.459  0.3487  0.4379  0.6197
   25SOL    HW2   75   1.964   1.306   0.611  1.7723  1.4503  0.7084
   26SOL     OW   76   1.558   0.786   1.160 -0.6779  0.4662  0.5494
   26SOL    HW1   77   1.656   0.764   1.158 -1.0453 -1.3110  0.1254
   26SOL    HW2   78   1.532   0.829   1.074 -0.3538  0.5235  0.4790
   27SOL     OW   79   1.877   1.264   0.774 -0.9467 -0.0518  0.2130
   27SOL    HW1   80   1.831   1.342   0.818 -1.1365 -0.7625  1.3069
   27SOL    HW2   81   1.815   1.186   0.771 -0.1343 -0.7466  0.8787
   28SOL     OW   82   2.328   0.139   2.149 -0.3494  0.0934  0.1233
   28SOL    HW1   83   2.278   0.225   2.154 -0.6140 -0.0147 -0.5840
   28SOL    HW2   84   2.307   0.093   2.063 -1.2361 -1.3192  1.0505
   29SOL     OW   85   0.571   1.538   0.607  0.1016  0.1062  0.0076
   29SOL    HW1   86   0.484   1.580   0.634 -1.2399 -3.1736  1.2530
   29SOL    HW2   87   0.562   1.498   0.516  0.6373  0.5942 -0.2632
   30SOL     OW   88   1.278   1.021   1.136 -0.0979  0.2101  0.3511
   30SOL    HW1   89   1.369   1.046   1.104 -1.0081  1.9138 -1.0761
   30SOL    HW2   90   1.226   0.980   1.061 -0.2329 -1.7120  1.4150
   31SOL     OW   91   0.781   0.030   0.615  0.0423  0.5578  0.1280
   31SOL    HW1   92   0.771   0.120   0.572  0.6620  0.7789  0.4258
   31SOL    HW2   93   0.772   0.039   0.714 -1.3669  0.0517  0.0651
   32SOL     OW   94   0.235   0.843   1.467  0.4235 -0.4703 -0.7260
   32SOL    HW1   95   0.198   0.926   1.426  0.0753 -0.9366 -1.3791
   32SOL    HW2   96   0.333   0.838   1.450  0.5239  0.0113 -0.3174
   33SOL     OW   97   1.684   1.073   0.744  0.0390 -0.2061 -0.0394
   33SOL    HW1   98   1.671   1.000   0.677 -2.0583 -1.0830  1.2161
   33SOL    HW2   99   1.600   1.126   0.752  0.3330  0.0614  1.6547
   34SOL     OW  100   1.291   1.782   1.804 -0.0681  0.4762 -0.3624
   34SOL    HW1  101   1.269   1.694   1.847 -1.2972  1.8519  2.0766
   34SOL    HW2  102   1.389   1.787   1.785  0.0601 -1.2988 -0.3293
   35SOL     OW  103   0.173   0.407   1.868  0.4108 -0.0158 -0.3950
   35SOL    HW1  104   0.124   0.326   1.835  0.4219 -0.3615  0.3912
   35SOL    HW2  105   0.124   0.445   1.946  1.5449 -0.5783  0.6287
   36SOL     OW  106   1.188   1.416   0.633 -0.3959  0.5151 -0.6479
   36SOL    HW1  107   1.211   1.483   0.563  0.3403 -0.3793 -1.2917
   36SOL    HW2  108   1.089   1.399   0.632 -0.3156  0.0207 -1.9412
   37SOL     OW  109   1.705   1.467   0.886 -0.3936 -0.6375 -0.1297
   37SOL    HW1  110   1.759   1.516   0.953 -0.4129 -1.0295  0.1794
   37SOL    HW2  111   1.631   1.417   0.932 -1.1084 -0.0001 -0.5582
   38SOL     OW  112   0.605   0.593   0.362  0.0448  0.0615  0.3832
   38SOL    HW1  113   0.522   0.599   0.306 -0.0984 -1.6897  0.3640
   38SOL    HW2  114   0.672   0.534   0.317  0.5914  0.0002  1.2493
   39SOL     OW  115   1.277   0.104   1.360  0.0490 -0.5640  0.5709
   39SOL    HW1  116   1.371   0.071   1.363  0.3104  0.0698 -0.1908
   39SOL    HW2  117   1.267   0.182   1.423  0.9318  1.4804 -1.6545
   40SOL     OW  118   1.442   1.643   0.603 -0.4794 -0.3873  0.6405
   40SOL    HW1  119   1.534   1.664   0.635 -0.3455  2.2875 -1.1045
   40SOL    HW2  120   1.444   1.564   0.542  1.1007  0.7991 -0.9470
   41SOL     OW  121   0.959   0.849   1.691 -0.6848  0.1877 -0.2290
   41SOL    HW1  122   0.917   0.761   1.666  1.9128 -0.5053 -2.6917
   41SOL    HW2  123   1.002   0.840   1.780  0.6363 -1.5653 -0.9663
   42SOL     OW  124   1.797   0.650   1.487 -0.4497  0.3586 -0.7328
   42SOL    HW1  125   1.701   0.667   1.509 -0.4780 -0.5491 -0.0830
   42SOL    HW2  126   1.827   0.565   1.531  1.0192  1.2878  0.1680
   43SOL     OW  127   0.921   1.078   1.816  0.2926 -0.1669  0.2024
   43SOL    HW1  128   1.019   1.076   1.832  0.6203 -0.6630 -1.5420
   43SOL    HW2  129   0.897   1.006   1.750 -1.0011  0.8812 -0.5338
   44SOL     OW  130   1.026   0.505   1.334  0.7666  0.0813 -0.2680
   44SOL    HW1  131   1.039   0.563   1.253  0.0553  0.5185 -0.0732
   44SOL    HW2  132   1.047   0.410   1.311  1.8068  0.3766 -0.6307
   45SOL     OW  133   1.081   1.044   0.114 -0.0546  0.0346 -0.2281
   45SOL    HW1  134   1.071   0.953   0.155  0.2337 -0.0360 -0.3114
   45SOL    HW2  135   1.067   1.037   0.015  0.5631 -0.0262 -0.3162
   46SOL     OW  136   0.130   0.773   0.830 -0.1121 -0.1429 -0.4118
   46SOL    HW1  137   0.174   0.700   0.881  0.8549 -0.0327 -1.0452
   46SOL    HW2  138   0.138   0.859   0.881  2.3634  0.3213 -1.4257
   47SOL     OW  139   0.300   1.760   1.366 -0.2133 -0.4498  0.6338
   47SOL    HW1  140   0.398   1.759   1.346 -0.5069 -0.6161 -0.9024
   47SOL    HW2  141   0.254   1.818   1.300 -1.2791 -1.1462  0.7477
   48SOL     OW  142   1.075   0.796   0.232 -0.8041 -0.0623  0.4984
   48SOL    HW1  143   1.012   0.744   0.175 -0.2365 -0.6661  0.4113
   48SOL    HW2  144   1.157   0.742   0.249 -1.1505 -0.0869  2.2726
   49SOL     OW  145   1.959   0.520   2.050 -0.2376  0.0223 -0.5890
   49SOL    HW1  146   1.975   0.584   1.975  1.1963 -0.7592 -0.9863
   49SOL    HW2  147   1.916   0.437   2.015  0.9071 -0.5587 -0.6805
   50SOL     OW  148   1.389   1.208   0.625 -0.0073 -0.3074  0.8759
   50SOL    HW1  149   1.323   1.283   0.633 -2.6136 -2.0162 -2.1325
   50SOL    HW2  150   1.349   1.135   0.569  3.5406 -2.6440  1.1071
   51SOL     OW  151   0.706   0.263   0.784 -0.5592 -0.4820  0.4351
   51SOL    HW1  152   0.629   0.217   0.829  0.0644 -1.6585  0.3473
   51SOL    HW2  153   0.752   0.322   0.850 -0.5918 -0.9913  0.9210
   52SOL     OW  154   1.024   1.509   0.194  0.5415 -0.5582 -0.0592
   52SOL    HW1  155   0.958   1.545   0.260 -0.1084 -0.9625 -0.4659
   52SOL    HW2  156   1.082   1.583   0.160  1.1650 -0.4133  1.2585
   53SOL     OW  157   0.825   2.293   0.797  0.8086  0.0473  0.9540
   53SOL    HW1  158   0.869   2.379   0.819 -0.0456  1.4736 -2.2262
   53SOL    HW2  159   0.878   2.245   0.727 -0.3198 -0.4243  0.3937
   54SOL     OW  160   2.187   1.035   1.092 -0.1053 -0.1132  0.3690
   54SOL    HW1  161   2.142   0.956   1.050  0.4799 -0.7524  0.9012
   54SOL    HW2  162   2.174   1.116   1.035  1.2212 -1.0877 -1.4298
   55SOL     OW  163   0.892   1.362   1.724 -0.2766  0.0800 -0.3310
   55SOL    HW1  164   0.805   1.341   1.681  0.8835  0.0509 -2.8319
   55SOL    HW2  165   0.948   1.279   1.729  0.8771  0.7066 -1.9469
   56SOL     OW  166   0.207   1.265   0.632 -0.1204  0.2215  0.3215
   56SOL    HW1  167   0.221   1.328   0.556  0.5922  0.3160  0.5136
   56SOL    HW2  168   0.110   1.251   0.647 -0.2922  1.1077  0.1294
   57SOL     OW  169   2.038   0.836   0.989  0.1372 -0.1666  0.1403
   57SOL    HW1  170   1.939   0.851   0.993  0.2468  0.5696  0.2686
   57SOL    HW2  171   2.063   0.803   0.898  0.1340  2.6074 -0.9884
   58SOL     OW  172   0.218   1.172   1.737  0.0958  0.3370  0.4626
   58SOL    HW1  173   0.278   1.168   1.657  0.5864  1.6020  0.7524
   58SOL    HW2  174   0.138   1.229   1.716 -1.5662 -2.0995 -0.2503
   59SOL     OW  175   1.143   1.752   0.117 -0.3441 -0.1602  0.3344
   59SOL    HW1  176   1.120   1.850   0.122 -1.5236 -0.3621 -0.5546
   59SOL    HW2  177   1.191   1.734   0.032 -1.0682 -0.5122 -0.0104
   60SOL     OW  178   2.442   0.396   1.714 -0.4957 -0.0578 -0.0908
   60SOL    HW1  179   2.359   0.397   1.769 -0.7048 -2.5767 -0.2610
   60SOL    HW2  180   2.434   0.464   1.641 -1.8082  0.6812  0.7099
   61SOL     OW  181   1.307   1.297   2.334  0.5278  0.2096  0.2070
   61SOL    HW1  182   1.210   1.318   2.342  0.4108  0.3112 -1.2183
   61SOL    HW2  183   1.346   1.351   2.259  1.5137 -0.4067  0.2646
   62SOL     OW  184   0.301   1.630   0.650  0.3579 -0.5990  0.4494
   62SOL    HW1  185   0.290   1.727   0.668  1.0315 -0.5124  0.4124
   62SOL    HW2  186   0.225   1.579   0.691  0.9474 -0.2369  2.0591
   63SOL     OW  187   1.764   2.426   0.479  0.2803 -0.1414 -0.0424
   63SOL    HW1  188   1.834   2.486   0.440  0.6593  0.0129  0.8540
   63SOL    HW2  189   1.806   2.338   0.503  0.1678 -0.0527  0.4857
   64SOL     OW  190   2.425   1.638   1.011  0.0934  0.5739  0.1233
   64SOL    HW1  191   2.357   1.633   1.084  0.9070  2.3579  1.0575
   64SOL    HW2  192   2.506   1.586   1.037 -0.5756 -0.9500 -0.6814
   65SOL     OW  193   0.616   1.892   0.129 -0.2124 -0.1717 -0.1043
   65SOL    HW1  194   0.534   1.913   0.075 -0.9272  0.6246  1.2433
   65SOL    HW2  195   0.594   1.896   0.226  1.0197 -1.7021  0.2770
   66SOL     OW  196   0.580   0.982   0.918 -0.0722  0.1688  0.2872
   66SOL    HW1  197   0.580   0.973   0.818 -0.8631 -0.5669  0.3347
   66SOL    HW2  198   0.667   0.948   0.954 -0.8468 -2.3389  0.0201
   67SOL     OW  199   1.585   0.381   1.831 -0.1900 -0.5128 -0.5171
   67SOL    HW1  200   1.568   0.479   1.822  0.5151 -0.1507  1.5151
   67SOL    HW2  201   1.680   0.367   1.858 -0.7594 -1.6180  1.0452
   68SOL     OW  202   0.464   0.228   0.404 -0.6197 -0.0153 -0.0875
   68SOL    HW1  203   0.454   0.141   0.451  0.6981 -1.0004 -1.5365
   68SOL    HW2  204   0.380   0.248   0.353 -0.8793 -0.5087  0.1368
   69SOL     OW  205   1.304   0.460   1.410  0.0464 -0.2774  0.4077
   69SOL    HW1  206   1.301   0.391   1.483 -0.9857 -2.5002 -1.5999
   69SOL    HW2  207   1.210   0.483   1.383  0.4179  0.1971 -0.5112
   70SOL     OW  208   0.811   1.460   0.746  0.1769  0.1572 -0.1047
   70SOL    HW1  209   0.725   1.464   0.695 -0.6971 -1.3805  1.1475
   70SOL    HW2  210   0.840   1.552   0.770 -0.7646  0.7402 -1.1348
   71SOL     OW  211   1.586   0.467   1.270  0.4714  0.5538  0.3255
   71SOL    HW1  212   1.565   0.565   1.270  1.6951  1.0172 -4.2076
   71SOL    HW2  213   1.510   0.417   1.229  0.8512 -0.1232  0.4332
   72SOL     OW  214   0.927   1.705   0.791  0.6199 -0.0440  0.1406
   72SOL    HW1  215   1.012   1.726   0.742 -0.0076 -2.3246 -2.1458
   72SOL    HW2  216   0.871   1.788   0.796  1.7159  0.8110 -0.9433
   73SOL     OW  217   1.121   0.403   0.836 -0.4431  0.5871  0.2102
   73SOL    HW1  218   1.057   0.387   0.761  0.6895  0.3113 -0.7347
   73SOL    HW2  219   1.154   0.497   0.831  0.1322  0.3769 -0.0548
   74SOL     OW  220   0.737   0.233   0.388 -0.1464  0.0882  0.2470
   74SOL    HW1  221   0.637   0.230   0.388 -0.1520  0.2696  0.3555
   74SOL    HW2  222   0.768   0.309   0.332 -0.1061  1.0375  1.5129
   75SOL     OW  223   1.389   1.461   0.403  0.3856  0.6536  0.2268
   75SOL    HW1  224   1.457   1.388   0.408 -0.6220 -0.5746 -2.1539
   75SOL    HW2  225   1.303   1.423   0.370 -0.3702  2.8226 -0.4307
   76SOL     OW  226   0.435   2.467   0.492  0.0397 -0.0116 -0.2395
   76SOL    HW1  227   0.475   2.406   0.561 -0.2199 -1.0427 -0.9669
   76SOL    HW2  228   0.471   2.443   0.401 -0.7663  0.3181 -0.6579
   77SOL     OW  229   0.969   0.338   0.607  0.2114  0.2008 -0.5449
   77SOL    HW1  230   1.006   0.343   0.514 -0.7420  4.2384 -0.9069
   77SOL    HW2  231   0.870   0.326   0.602  0.2400 -0.3043  0.0110
   78SOL     OW  232   1.406   0.891   1.432  0.1498 -0.6499 -0.1369
   78SOL    HW1  233   1.475   0.820   1.442 -0.5774 -1.3096  0.3106
   78SOL    HW2  234   1.333   0.859   1.372 -0.3525 -0.4197  0.3376
   79SOL     OW  235   1.009   1.818   0.483 -0.1630 -0.1966  0.3177
   79SOL    HW1  236   1.029   1.876   0.405  1.1241 -0.4832  0.4093
   79SOL    HW2  237   1.092   1.770   0.511 -0.9459 -1.2546  0.9157
   80SOL     OW  238   0.472   1.307   0.745  0.7438  0.1465 -0.9569
   80SOL    HW1  239   0.484   1.393   0.695  0.4090 -0.3552 -1.9361
   80SOL    HW2  240   0.416   1.245   0.690  0.0897 -0.3129  0.2003
   81SOL     OW  241   1.146   1.990   0.300  0.0232  0.2658 -0.1969
   81SOL    HW1  242   1.235   1.958   0.333  0.1665  0.0505 -0.7804
   81SOL    HW2  243   1.146   2.090   0.296  0.9393  0.2311 -2.0498
   82SOL     OW  244   0.986   0.286   2.536 -0.3684  0.4590  0.1041
   82SOL    HW1  245   0.948   0.201   2.499 -0.7263  1.0166 -0.8311
   82SOL    HW2  246   1.005   0.350   2.462 -0.2679  1.2675  0.8100
   83SOL     OW  247   0.229   0.255   1.479 -0.0672 -0.4816  0.0619
   83SOL    HW1  248   0.229   0.181   1.546  0.6717 -0.8340 -0.3245
   83SOL    HW2  249   0.235   0.343   1.527 -0.0555 -0.7043  0.4749
   84SOL     OW  250   0.453   0.142   0.934 -0.0103 -0.5355 -0.7986
   84SOL    HW1  251   0.413   0.151   1.025  0.9607 -2.7176 -0.0766
   84SOL    HW2  252   0.389   0.095   0.873 -1.3348  2.3486 -1.8333
   85SOL     OW  253   1.389   0.414   0.539  0.9207 -0.3530 -0.1933
   85SOL    HW1  254   1.442   0.389   0.620  1.4352 -0.2512 -0.5006
   85SOL    HW2  255   1.316   0.477   0.566  1.5897  0.3284  0.0592
   86SOL     OW  256   0.991   2.211   1.573  0.4568 -0.4281 -0.4270
   86SOL    HW1  257   1.045   2.284   1.533 -0.0149 -0.3862 -1.0036
   86SOL    HW2  258   1.026   2.123   1.541  0.1591 -0.3995 -0.8329
   87SOL     OW  259   1.489   0.762   0.887  0.6837  0.3609  0.6575
   87SOL    HW1  260   1.407   0.706   0.898  2.6239 -3.2684 -1.7113
   87SOL    HW2  261   1.462   0.856   0.867 -2.8439 -0.4874  0.8149
   88SOL     OW  262   1.213   0.800   1.268 -0.0788  0.2857  0.7726
   88SOL    HW1  263   1.166   0.744   1.199  1.7224 -0.2198 -0.1204
   88SOL    HW2  264   1.255   0.879   1.223  0.6726  0.2399  1.3761
   89SOL     OW  265   1.701   1.002   0.403  0.4450 -0.3517 -0.5052
   89SOL    HW1  266   1.690   0.917   0.454  2.4418 -1.0730 -1.1694
   89SOL    HW2  267   1.695   0.983   0.305 -0.9359  0.6154 -0.6381
   90SOL     OW  268   2.497   1.449   0.233 -0.2420 -0.0715  0.4343
   90SOL    HW1  269   2.464   1.542   0.215 -0.8602 -0.4133 -0.2211
   90SOL    HW2  270   2.423   1.393   0.269  0.3322 -0.1133  1.6081
   91SOL     OW  271   1.965   1.042   0.458  0.0864 -0.2272  0.0320
   91SOL    HW1  272   1.975   1.138   0.485  0.4420 -0.1304 -0.4226
   91SOL    HW2  273   1.868   1.017   0.461 -0.2174  0.6413 -1.4640
   92SOL     OW  274   1.121   0.479   0.279 -0.1841  0.6381 -0.2928
   92SOL    HW1  275   1.155   0.476   0.185  0.0281 -1.2646 -0.1997
   92SOL    HW2  276   1.123   0.386   0.318 -1.7641  1.1301  1.0526
   93SOL     OW  277   0.534   0.391   0.624  0.2714 -0.2108 -0.1273
   93SOL    HW1  278   0.608   0.366   0.687  1.2359 -0.0245 -1.1613
   93SOL    HW2  279   0.540   0.334   0.543  0.2942  0.9134 -0.9370
   94SOL     OW  280   1.504   1.454   1.669  0.4767 -0.3025 -0.1650
   94SOL    HW1  281   1.526   1.504   1.585  0.3450 -0.5488 -0.3502
   94SOL    HW2  282   1.526   1.357   1.656  1.0932 -0.2297  0.3253
   95SOL     OW  283   1.197   1.193   1.450 -0.3541  0.0728 -0.1484
   95SOL    HW1  284   1.133   1.116   1.447 -1.2370  0.7784  0.2670
   95SOL    HW2  285   1.257   1.190   1.370  0.1375 -1.4771  0.2435
   96SOL     OW  286   1.500   1.663   1.501 -0.0766  0.4001 -0.0092
   96SOL    HW1  287   1.507   1.731   1.574 -0.3272  1.8119 -1.2444
   96SOL    HW2  288   1.454   1.704   1.422 -0.4123 -1.2856 -0.7303
   97SOL     OW  289   0.992   1.372   0.990  0.2098 -0.0757 -0.6277
   97SOL    HW1  290   0.980   1.399   1.085  1.5062 -0.9810 -0.1709
   97SOL    HW2  291   0.928   1.422   0.932 -0.5814  0.5034  0.7100
   98SOL     OW  292   1.253   1.371   0.894 -0.3389  0.4719 -0.5138
   98SOL    HW1  293   1.181   1.356   0.961  1.2304 -1.4787  0.8579
   98SOL    HW2  294   1.214   1.367   0.802 -2.3440  2.0665  0.1693
   99SOL     OW  295   0.849   0.366   1.563 -0.1223 -0.3273  0.0285
   99SOL    HW1  296   0.899   0.285   1.594 -0.6441 -0.3334  0.8846
   99SOL    HW2  297   0.884   0.394   1.473  0.9877 -0.6932  0.3232
  100SOL     OW  298   0.790   1.244   1.987 -0.2594 -0.1029 -0.4649
  100SOL    HW1  299   0.723   1.297   1.936 -1.1818 -0.8498 -0.0604
  100SOL    HW2  300   0.830   1.174   1.928 -1.0274 -0.6992 -0.3004
  101SOL     OW  301   0.808   1.147   0.459 -0.3794  0.3295  0.6350
  101SOL    HW1  302   0.785   1.052   0.439 -0.1679  0.2488  0.7683
  101SOL    HW2  303   0.805   1.162   0.558 -0.3591  0.4460  0.6178
  102SOL     OW  304   0.592   0.769   1.390  0.7480  0.2880 -0.3722
  102SOL    HW1  305   0.538   0.734   1.466 -0.7028  1.2928 -0.8949
  102SOL    HW2  306   0.687   0.737   1.399 -0.0066 -1.9387  0.2863
  103SOL     OW  307   1.083   0.266   1.209 -0.0695  0.0559 -0.1219
  103SOL    HW1  308   1.157   0.230   1.265 -1.1567  0.1685  1.4658
  103SOL    HW2  309   1.014   0.194   1.196 -0.1849  0.2641 -0.6712
  104SOL     OW  310   0.172   1.086   1.370  0.3617  0.0705 -0.1643
  104SOL    HW1  311   0.085   1.134   1.380  0.7221  0.9079 -0.9483
  104SOL    HW2  312   0.227   1.130   1.299  1.3097 -0.6233  0.1155
  105SOL     OW  313   0.574   1.441   0.347  0.1852 -0.0154 -0.1750
  105SOL    HW1  314   0.501   1.504   0.322  0.9034  0.6975 -0.5294
  105SOL    HW2  315   0.586   1.373   0.275  0.0121 -0.0088 -0.2101
  106SOL     OW  316   0.886   0.376   0.982 -0.0402  0.0851 -0.4774
  106SOL    HW1  317   0.982   0.353   0.967 -0.3425 -1.2766 -0.4760
  106SOL    HW2  318   0.876   0.475   0.994  1.5324  0.1117  0.8883
  107SOL     OW  319   1.309   1.138   0.189 -0.4202 -0.2261 -0.0555
  107SOL    HW1  320   1.276   1.214   0.244 -0.6421  1.2252 -2.0773
  107SOL    HW2  321   1.232   1.094   0.143 -0.0000  0.7223 -1.7642
  108SOL     OW  322   1.052   1.693   1.052 -0.4425  0.0599  0.2469
  108SOL    HW1  323   1.019   1.660   0.964  0.2510 -0.1690  0.0675
  108SOL    HW2  324   0.975   1.707   1.114 -0.7589 -2.0747  0.3875
  109SOL     OW  325   1.555   0.794   0.608  0.4167 -0.1539 -0.0444
  109SOL    HW1  326   1.568   0.716   0.547  0.3151  1.0247 -1.6405
  109SOL    HW2  327   1.541   0.762   0.702  1.2933 -1.9959 -0.5036
  110SOL     OW  328   0.226   1.484   1.422  0.2223 -0.0784  0.7140
  110SOL    HW1  329   0.263   1.574   1.445 -0.5750  0.8631 -1.4395
  110SOL    HW2  330   0.278   1.445   1.346  0.4621 -1.3946  1.5272
  111SOL     OW  331   0.451   0.731   1.814  0.0827  0.3565  0.3584
  111SOL    HW1  332   0.377   0.797   1.802 -1.6984 -1.7886 -1.6497
  111SOL    HW2  333   0.466   0.682   1.728  3.1521 -0.0567  1.0160
  112SOL     OW  334   1.642   1.188   1.715  0.0437  0.0408  0.0469
  112SOL    HW1  335   1.599   1.228   1.796  1.8073  2.3959 -0.0685
  112SOL    HW2  336   1.573   1.171   1.645 -1.0889  0.8430  0.9363
  113SOL     OW  337   1.048   2.349   1.864  0.1899 -0.5714  0.4378
  113SOL    HW1  338   1.066   2.255   1.894  1.0656 -0.3518  0.6223
  113SOL    HW2  339   0.957   2.354   1.823  0.2714 -1.5787  0.1051
  114SOL     OW  340   0.328   2.299   1.140 -0.2538 -0.1469 -0.9163
  114SOL    HW1  341   0.414   2.349   1.135 -1.1305  1.3478 -1.5632
  114SOL    HW2  342   0.251   2.363   1.132 -1.4422 -1.4174 -0.1670
  115SOL     OW  343   0.349   1.168   1.166  0.8814 -0.4186 -0.1002
  115SOL    HW1  344   0.409   1.186   1.087  1.0670 -1.4307 -0.2093
  115SOL    HW2  345   0.397   1.108   1.230  1.3596  1.6949  1.5939
  116SOL     OW  346   1.236   0.646   0.822  0.1462 -0.2057 -0.2855
  116SOL    HW1  347   1.256   0.659   0.725 -0.5930 -0.9276 -0.5491
  116SOL    HW2  348   1.140   0.665   0.839  0.0643 -0.9348  0.1302
  117SOL     OW  349   1.208   0.636   0.519  0.0451  0.5788 -0.1850
  117SOL    HW1  350   1.215   0.599   0.426 -0.3991 -3.3349  1.1528
  117SOL    HW2  351   1.112   0.642   0.545  0.1719  1.6459  0.0924
  118SOL     OW  352   0.346   0.274   1.162  0.6061  0.0797  0.0346
  118SOL    HW1  353   0.317   0.254   1.255  0.0123 -2.1973 -0.5583
  118SOL    HW2  354   0.420   0.341   1.163  2.8357 -2.1896  2.4281
  119SOL     OW  355   2.377   0.956   0.882 -0.4982  0.1286 -0.9942
  119SOL    HW1  356   2.463   0.928   0.924  1.2322  0.1091 -4.3017
  119SOL    HW2  357   2.318   0.996   0.953  2.0021 -0.2334  1.4769
  120SOL     OW  358   0.836   0.643   0.942 -0.0011  0.9723 -0.2304
  120SOL    HW1  359   0.783   0.640   0.858  0.4780  1.4239 -0.5596
  120SOL    HW2  360   0.810   0.723   0.996  0.8206  1.5839 -0.7245
  121SOL     OW  361   1.800   1.139   2.217  0.3981 -0.1167  0.2342
  121SOL    HW1  362   1.764   1.232   2.227  1.5017  0.2096  1.4270
  121SOL    HW2  363   1.899   1.142   2.218  0.5573 -1.0010 -2.9253
  122SOL     OW  364   0.694   2.270   0.213  0.2975 -0.2500  0.1248
  122SOL    HW1  365   0.761   2.340   0.239 -0.4917  0.7018 -0.2993
  122SOL    HW2  366   0.613   2.315   0.174 -0.3474 -1.3978  0.0917
  123SOL     OW  367   1.767   0.470   0.404 -0.7507  0.4399  0.0403
  123SOL    HW1  368   1.680   0.502   0.367 -1.3903 -0.7601  0.4230
  123SOL    HW2  369   1.819   0.547   0.439 -1.4341  1.2395 -0.6489
  124SOL     OW  370   1.076   0.627   1.098  0.1303 -0.6022  0.5346
  124SOL    HW1  371   1.165   0.597   1.063  1.2367  2.6903  0.1970
  124SOL    HW2  372   1.014   0.642   1.021 -0.1402 -1.0880  0.6482
  125SOL     OW  373   0.562   1.347   1.871 -0.0124 -0.2284 -0.2467
  125SOL    HW1  374   0.578   1.295   1.788 -1.1384 -0.6911 -0.1925
  125SOL    HW2  375   0.463   1.359   1.885  0.0851 -1.2068  1.6466
  126SOL     OW  376   1.682   1.538   1.361 -0.2638  0.4029 -0.5221
  126SOL    HW1  377   1.768   1.546   1.411  0.6922  0.1225 -2.0590
  126SOL    HW2  378   1.611   1.591   1.408  0.0476 -1.3407  2.1729
  127SOL     OW  379   0.820   0.605   1.688  0.0046  0.1672 -0.1534
  127SOL    HW1  380   0.832   0.516   1.643  2.8381  1.1208 -1.5046
  127SOL    HW2  381   0.856   0.600   1.781  1.7552  0.2724 -0.7876
  128SOL     OW  382   1.720   0.616  -0.024 -0.0727 -0.3097 -0.3921
  128SOL    HW1  383   1.792   0.639   0.042 -0.0253 -0.3942 -0.4144
  128SOL    HW2  384   1.675   0.531   0.005 -0.9783  0.3768  0.2936
  129SOL     OW  385   1.652   0.745   2.076  0.1401 -0.1896  0.0678
  129SOL    HW1  386   1.574   0.715   2.132  0.8606 -0.1789  1.0888
  129SOL    HW2  387   1.737   0.719   2.121  0.7404  0.2262 -0.8141
  130SOL     OW  388   1.095   0.914   0.919 -0.2570  0.0816  0.2520
  130SOL    HW1  389   1.043   0.988   0.960 -0.9634  0.4023 -1.1360
  130SOL    HW2  390   1.104   0.930   0.820 -1.8462 -2.4446 -0.4079
  131SOL     OW  391   0.144   1.005   0.991 -0.3479 -0.4289  0.3338
  131SOL    HW1  392   0.226   1.030   1.044  1.0032 -1.0037 -1.3845
  131SOL    HW2  393   0.083   1.084   0.986  1.5168  1.0489 -0.8367
  132SOL     OW  394   0.227   0.562   1.003 -0.0930  0.4003  0.3845
  132SOL    HW1  395   0.323   0.555   0.977 -0.7619  0.3031 -2.4012
  132SOL    HW2  396   0.182   0.474   0.990 -0.8798  0.8166  0.2145
  133SOL     OW  397   1.564   0.098   1.849 -0.2858 -0.5925 -0.3596
  133SOL    HW1  398   1.537   0.049   1.932  0.4436 -0.7262 -0.1885
  133SOL    HW2  399   1.576   0.195   1.870 -1.2214 -0.4250 -0.5782
  134SOL     OW  400   1.252   0.271   1.935  0.3344 -0.5587  0.0385
  134SOL    HW1  401   1.275   0.362   1.902  1.0625  0.0884  2.1840
  134SOL    HW2  402   1.283   0.203   1.869  0.4594  0.7012 -1.2446
  135SOL     OW  403   2.091   1.158   0.242 -0.2226  0.4362  0.0567
  135SOL    HW1  404   2.055   1.109   0.321  0.9298  0.2784  0.5042
  135SOL    HW2  405   2.032   1.142   0.163 -0.8269 -0.2352  0.6312
  136SOL     OW  406   0.593   1.735   0.863  0.3446 -0.4723 -0.0182
  136SOL    HW1  407   0.570   1.642   0.835 -0.5989 -0.3227  0.2086
  136SOL    HW2  408   0.598   1.793   0.782  2.0075 -0.9215 -0.2674
  137SOL     OW  409   0.334   1.453   1.187 -0.0400 -0.3054  0.2548
  137SOL    HW1  410   0.362   1.369   1.140  1.1521  0.0952  0.2236
  137SOL    HW2  411   0.257   1.494   1.139  0.2061 -0.6982 -0.4894
  138SOL     OW  412   1.188   0.960   1.839  0.7394  0.1394  0.0670
  138SOL    HW1  413   1.246   0.954   1.757  0.7278  0.7334  0.0126
  138SOL    HW2  414   1.198   1.051   1.880  1.2274 -0.3554  1.0821
  139SOL     OW  415   0.093   0.327   0.867 -0.9347 -0.1400 -0.0292
  139SOL    HW1  416   0.143   0.242   0.853 -1.5004 -0.1699 -2.2269
  139SOL    HW2  417   0.036   0.319   0.949 -1.3539 -2.0883 -0.4583
  140SOL     OW  418   0.141   2.493   1.627  0.3604  0.1562  0.0564
  140SOL    HW1  419   0.223   2.450   1.665 -0.0954 -0.3079  0.5263
  140SOL    HW2  420   0.114   2.445   1.544  0.5477  0.2998 -0.0905
  141SOL     OW  421   1.446   1.132   1.577  0.4182 -0.1343 -0.3987
  141SOL    HW1  422   1.370   1.177   1.530 -0.7285 -0.3933  1.1374
  141SOL    HW2  423   1.451   1.036   1.548 -0.5989 -0.4263  0.3229
  142SOL     OW  424   0.902   0.139   2.209  0.1561  0.0063 -0.0693
  142SOL    HW1  425   0.904   0.076   2.287 -0.4604 -0.5096 -0.4588
  142SOL    HW2  426   0.989   0.187   2.203 -0.1789  0.9321  1.6493
  143SOL     OW  427   1.835   0.696   1.202  0.1251 -0.1170  0.2525
  143SOL    HW1  428   1.809   0.709   1.298  1.0368  1.0219  0.3755
  143SOL    HW2  429   1.934   0.706   1.193  0.1966 -1.4437 -0.6298
  144SOL     OW  430   2.401   1.337   2.116 -0.1821 -0.3270 -0.4164
  144SOL    HW1  431   2.450   1.387   2.045 -0.1281  0.0692 -0.1011
  144SOL    HW2  432   2.463   1.319   2.193 -0.5984  0.4178  0.1033
  145SOL     OW  433   0.491   0.555   0.924 -0.0563  0.1415 -0.4789
  145SOL    HW1  434   0.529   0.480   0.870  1.6276  0.0042  0.8375
  145SOL    HW2  435   0.508   0.642   0.876  1.5022  0.0302 -0.1788
  146SOL     OW  436   0.605   1.573   1.566  0.4090  0.2592 -0.1315
  146SOL    HW1  437   0.563   1.585   1.656 -0.6807 -1.0489 -0.4300
  146SOL    HW2  438   0.573   1.644   1.504 -1.3184 -0.6389 -0.3134
  147SOL     OW  439   0.662   0.671   0.685 -0.4740 -0.6712  0.0811
  147SOL    HW1  440   0.613   0.605   0.627 -4.0790  1.6272  0.2268
  147SOL    HW2  441   0.610   0.756   0.689  1.5494  0.5629  3.7270
  148SOL     OW  442   0.521   1.029   1.341 -0.0971  0.0990 -0.3380
  148SOL    HW1  443   0.608   1.078   1.331  0.2086  0.0414  1.5719
  148SOL    HW2  444   0.539   0.931   1.346 -0.3315  0.0449 -0.5912
  149SOL     OW  445   0.932   1.362   0.529  0.4872 -0.5011  0.0223
  149SOL    HW1  446   0.876   1.397   0.604  0.8359 -0.2729  0.1753
  149SOL    HW2  447   0.885   1.285   0.486 -0.5705  0.5182 -0.6980
  150SOL     OW  448   1.339   0.697   0.202 -0.5465 -0.3173 -0.1133
  150SOL    HW1  449   1.402   0.751   0.146 -0.4393 -0.5429 -0.2089
  150SOL    HW2  450   1.311   0.615   0.151 -0.3047 -0.6178  0.2332
  151SOL     OW  451   1.347   1.694   1.000  0.0051 -0.1773 -0.4132
  151SOL    HW1  452   1.371   1.599   1.018  0.1819 -0.2514 -0.9979
  151SOL    HW2  453   1.249   1.707   1.011 -0.2051 -0.7182 -1.5150
  152SOL     OW  454   1.089   1.980   1.037  0.2087 -0.3572 -0.1449
  152SOL    HW1  455   1.069   1.882   1.039 -0.7924 -0.1495  1.0010
  152SOL    HW2  456   1.033   2.024   0.967 -0.6620 -0.3441  0.5484
  153SOL     OW  457   0.201   1.369   0.379 -0.4064  0.5715  0.7875
  153SOL    HW1  458   0.119   1.378   0.322  0.7651  1.7110 -0.8080
  153SOL    HW2  459   0.274   1.427   0.343  1.3968 -1.0295  1.6411
  154SOL     OW  460   0.290   1.377   1.918 -0.0839  0.3556 -0.1194
  154SOL    HW1  461   0.251   1.303   1.864  0.0789 -0.0190  0.2771
  154SOL    HW2  462   0.304   1.347   2.012 -2.2595  1.6026  0.6830
  155SOL     OW  463   0.796   0.451   0.210  0.1225 -0.0256 -0.0890
  155SOL    HW1  464   0.885   0.419   0.180  0.2389  0.3782 -0.1862
  155SOL    HW2  465   0.728   0.435   0.139  0.3700  0.8086 -0.5362
  156SOL     OW  466   1.838   2.144   0.589  0.5488  0.3634 -0.8653
  156SOL    HW1  467   1.759   2.091   0.557  0.2777  0.2912 -0.0978
  156SOL    HW2  468   1.811   2.201   0.667  1.7135 -1.2440  0.8000
  157SOL     OW  469   0.601   1.297   0.099  0.2489 -0.2371  0.0824
  157SOL    HW1  470   0.673   1.338   0.043  0.8534  0.9995  1.7152
  157SOL    HW2  471   0.627   1.204   0.124  0.4332 -0.4395 -0.8234
  158SOL     OW  472   0.039   1.046   2.193  0.2297  0.0521 -0.1298
  158SOL    HW1  473   0.069   1.123   2.248  2.8243 -0.7560 -0.3028
  158SOL    HW2  474   0.104   1.031   2.118 -1.5878 -0.7478 -1.6280
  159SOL     OW  475   1.514   0.601   0.375 -0.5320 -0.1488 -0.1339
  159SOL    HW1  476   1.460   0.537   0.430 -0.7728  1.3680  1.4862
  159SOL    HW2  477   1.454   0.651   0.313 -0.4895 -0.7322 -0.6582
  160SOL     OW  478   0.940   1.425   1.241 -0.1702  0.3111 -0.5348
  160SOL    HW1  479   0.945   1.453   1.337 -1.4018 -0.4500 -0.2236
  160SOL    HW2  480   0.845   1.428   1.210 -0.0573 -1.2989 -1.1528
  161SOL     OW  481   0.149   1.723   2.474 -0.2196  0.3941  0.0329
  161SOL    HW1  482   0.091   1.645   2.452 -1.9657  1.6504  0.0625
  161SOL    HW2  483   0.223   1.729   2.406  0.9007 -2.1307  0.8801
  162SOL     OW  484   1.688   2.213   1.333  0.2530 -0.4207  0.2387
  162SOL    HW1  485   1.588   2.211   1.344  0.3671 -2.1035  1.4909
  162SOL    HW2  486   1.711   2.195   1.237 -0.6516 -1.1743  0.1413
  163SOL     OW  487   1.709   0.074   0.809 -0.1796 -0.0716  0.2751
  163SOL    HW1  488   1.641   0.084   0.882  0.7270 -0.2907  1.1867
  163SOL    HW2  489   1.699   0.149   0.744 -0.6298  0.4878  0.9659
  164SOL     OW  490   0.168   2.460   0.526 -0.2936 -0.4756  0.6658
  164SOL    HW1  491   0.132   2.374   0.489 -1.3227  1.3974 -3.2291
  164SOL    HW2  492   0.267   2.463   0.512 -0.5609 -0.1376 -1.4546
  165SOL     OW  493   0.873   1.370   2.469 -0.2440  0.1647  0.2667
  165SOL    HW1  494   0.964   1.370   2.511  0.4902 -1.3897 -1.2177
  165SOL    HW2  495   0.843   1.464   2.454  0.9854  0.7016  1.0137
  166SOL     OW  496   1.276   1.301   1.212  0.3386 -0.3798  0.2576
  166SOL    HW1  497   1.235   1.213   1.189  0.5637 -0.5107  0.3536
  166SOL    HW2  498   1.204   1.365   1.238  0.1270 -0.3908 -0.2713
  167SOL     OW  499   1.488   1.260   0.011 -0.0869  0.6681  0.8881
  167SOL    HW1  500   1.437   1.206   0.078 -0.5832 -3.1361 -2.1948
  167SOL    HW2  501   1.429   1.281  -0.067  2.2589 -2.4091 -2.0361
  168SOL     OW  502   1.407   1.655   0.201 -0.0447 -0.2222  0.4239
  168SOL    HW1  503   1.307   1.667   0.199 -0.4771 -3.1842 -0.2868
  168SOL    HW2  504   1.432   1.606   0.285  0.8948  0.8571  0.7910
  169SOL     OW  505   0.411   1.211   1.522 -0.7335  0.1831  0.4849
  169SOL    HW1  506   0.331   1.263   1.491 -1.3239 -1.4253 -0.8358
  169SOL    HW2  507   0.427   1.135   1.459 -0.2010 -1.5431  2.5867
  170SOL     OW  508   1.464   1.781   1.251  0.3231 -0.3123 -0.3703
  170SOL    HW1  509   1.560   1.799   1.230  0.2332 -0.3611 -0.8408
  170SOL    HW2  510   1.416   1.757   1.166 -0.6471  2.0865 -0.5857
  171SOL     OW  511   1.135   0.993   0.680 -0.3000  0.2041  0.1778
  171SOL    HW1  512   1.059   0.947   0.634 -0.6861  2.0775 -1.1820
  171SOL    HW2  513   1.217   0.986   0.623  0.8118 -2.2949  1.8928
  172SOL     OW  514   0.905   0.024   0.911  0.2289  0.2178 -0.0930
  172SOL    HW1  515   0.987  -0.022   0.945 -0.6267 -2.1894 -1.0296
  172SOL    HW2  516   0.871   0.088   0.980  0.8983 -1.3684  1.8073
  173SOL     OW  517   0.364   1.558   0.251 -0.5070 -0.0031 -0.4675
  173SOL    HW1  518   0.367   1.545   0.152  0.1787  0.5257 -0.5236
  173SOL    HW2  519   0.321   1.646   0.272  1.9201  1.2760 -0.4519
  174SOL     OW  520   1.854   0.405   1.579 -0.1051  0.4467 -0.5525
  174SOL    HW1  521   1.942   0.368   1.607  0.9256  3.0320 -0.1775
  174SOL    HW2  522   1.831   0.370   1.488  1.9023  0.6635 -1.1793
  175SOL     OW  523   2.399   1.656   0.526  0.3233  0.2800 -0.4099
  175SOL    HW1  524   2.410   1.680   0.430 -0.3019  2.4463  0.0075
  175SOL    HW2  525   2.302   1.649   0.548  0.4277  0.8764  0.2907
  176SOL     OW  526   2.093   0.886   2.031 -0.1274  0.4139 -0.3154
  176SOL    HW1  527   2.065   0.948   2.104  0.6227 -0.2509  0.5604
  176SOL    HW2  528   2.192   0.893   2.017  0.5283 -2.5718  1.8044
  177SOL     OW  529   0.540   0.508   1.199  0.0063  0.1023 -0.0376
  177SOL    HW1  530   0.519   0.532   1.104 -0.3467 -1.2777 -0.3259
  177SOL    HW2  531   0.548   0.592   1.253 -1.5682  0.8639 -0.9072
  178SOL     OW  532   0.583   0.466   2.497  0.1276 -0.9979 -0.7122
  178SOL    HW1  533   0.484   0.467   2.513  0.3247 -0.9939  0.6542
  178SOL    HW2  534   0.604   0.407   2.419 -0.7723 -3.3367  0.6820
  179SOL     OW  535   0.930   1.115   0.996 -0.5333  0.0766  0.1240
  179SOL    HW1  536   0.889   1.119   0.905  0.8541 -1.4870 -0.6196
  179SOL    HW2  537   0.979   1.200   1.015  1.0973 -0.4185 -1.5878
  180SOL     OW  538   2.236   0.136   0.374 -0.0181  0.7227 -0.0384
  180SOL    HW1  539   2.265   0.102   0.284 -1.3934 -0.9012  0.0876
  180SOL    HW2  540   2.307   0.116   0.441  1.3120  2.5365 -0.8425
  181SOL     OW  541   1.339   0.985   0.518 -0.1558 -0.4514 -0.2911
  181SOL    HW1  542   1.415   0.943   0.567  1.5505  1.0765 -1.4735
  181SOL    HW2  543   1.341   0.957   0.422 -0.2320  0.6585 -0.6385
  182SOL     OW  544   1.019   0.997   1.472  0.4726  0.2601 -0.3622
  182SOL    HW1  545   1.062   0.928   1.414  0.3711 -0.0031 -0.1271
  182SOL    HW2  546   0.984   0.954   1.555 -0.0512  0.5042 -0.4491
  183SOL     OW  547   1.184   1.738   0.681 -0.0508  0.6953 -1.1721
  183SOL    HW1  548   1.207   1.833   0.704 -0.7892  0.1305  2.5873
  183SOL    HW2  549   1.268   1.683   0.680  0.0021  0.5972  1.5644
  184SOL     OW  550   1.523   0.642   1.474 -0.3563  0.3215  0.0457
  184SOL    HW1  551   1.514   0.663   1.572 -1.0979  0.5511 -0.0647
  184SOL    HW2  552   1.463   0.566   1.451  0.6829 -0.5003 -0.0069
  185SOL     OW  553   1.235   1.379   1.672 -0.4651  0.0077  0.0584
  185SOL    HW1  554   1.193   1.363   1.582 -1.1701  1.7187  0.0547
  185SOL    HW2  555   1.329   1.408   1.660 -0.9036  1.3883 -0.2179
  186SOL     OW  556   0.255   1.773   2.015  0.0817 -0.2070 -0.4021
  186SOL    HW1  557   0.257   1.723   1.928  1.6126  0.1230 -0.5758
  186SOL    HW2  558   0.162   1.807   2.031 -0.0895  0.2946 -2.2332
  187SOL     OW  559   1.770   0.952   0.955  0.2461  0.3129 -0.1395
  187SOL    HW1  560   1.712   0.979   1.032 -0.3899 -0.5813 -0.3029
  187SOL    HW2  561   1.744   1.005   0.874  0.3194  0.6126  0.0302
  188SOL     OW  562   1.200   0.264   0.430  0.2307  0.5353  0.4734
  188SOL    HW1  563   1.185   0.174   0.471 -0.6493  0.5667  0.2365
  188SOL    HW2  564   1.290   0.299   0.457  0.5414 -0.3742  0.6344
  189SOL     OW  565   0.982   0.897   0.451 -0.6716 -0.2837  0.0839
  189SOL    HW1  566   0.887   0.897   0.417 -0.9921 -1.8101  0.8921
  189SOL    HW2  567   1.041   0.851   0.384 -0.9871 -1.6424  0.6879
  190SOL     OW  568   1.598   0.327   1.546  0.1125 -0.2490 -0.3967
  190SOL    HW1  569   1.666   0.375   1.600 -1.2175 -0.6347  1.7501
  190SOL    HW2  570   1.601   0.360   1.451  2.0525  0.9679  0.0348
  191SOL     OW  571   1.562   1.083   1.159 -0.6160  0.4970  0.1837
  191SOL    HW1  572   1.609   1.162   1.197  0.4770 -0.1128  0.1569
  191SOL    HW2  573   1.528   1.025   1.234  2.2622 -1.1348  0.3849
  192SOL     OW  574   0.720   0.900   0.392  0.3530  0.4582 -0.2479
  192SOL    HW1  575   0.691   0.805   0.406  0.2202  0.4093 -0.8152
  192SOL    HW2  576   0.667   0.940   0.317  0.6023  0.8946 -0.1928
  193SOL     OW  577   0.585   1.797   1.381  0.0068 -0.1991  0.1024
  193SOL    HW1  578   0.599   1.816   1.284  0.4264 -0.9769  0.0018
  193SOL    HW2  579   0.672   1.798   1.429 -0.1981  0.1723  0.4766
  194SOL     OW  580   0.792   0.888   1.085  0.0271  0.1903 -0.0017
  194SOL    HW1  581   0.845   0.960   1.040  2.3332 -1.8182 -0.7710
  194SOL    HW2  582   0.787   0.906   1.183 -0.0064  1.7108 -0.2693
  195SOL     OW  583   1.314   0.781   2.360 -0.2099  0.5968  0.2734
  195SOL    HW1  584   1.270   0.869   2.342  0.2151  1.0905  1.5386
  195SOL    HW2  585   1.402   0.796   2.404  0.2163 -0.4524 -0.1819
  196SOL     OW  586   1.675   1.673   0.723 -0.0748 -0.5218 -0.3404
  196SOL    HW1  587   1.685   1.597   0.787  0.2213 -0.0396  0.2035
  196SOL    HW2  588   1.756   1.732   0.728  0.2448 -0.8202 -1.6404
  197SOL     OW  589   0.247   0.948   2.360  0.2711  0.0503  0.1258
  197SOL    HW1  590   0.247   0.993   2.449  0.6181 -0.1682  0.2378
  197SOL    HW2  591   0.156   0.955   2.320 -0.3066 -1.1006  1.1418
  198SOL     OW  592   2.285   1.472   0.841  0.3750 -0.0560 -0.2716
  198SOL    HW1  593   2.337   1.466   0.755 -1.6021  0.4481 -1.5568
  198SOL    HW2  594   2.332   1.535   0.903  0.6489  1.4437 -1.9121
  199SOL     OW  595   0.357   1.283   2.175  0.6548  0.6254 -0.0109
  199SOL    HW1  596   0.444   1.258   2.218  0.4917  1.2014  0.6684
  199SOL    HW2  597   0.309   1.201   2.147  0.9704  0.2605  0.5061
  200SOL     OW  598   1.814   0.318   1.321 -0.7423  0.1607 -0.1594
  200SOL    HW1  599   1.768   0.393   1.274 -1.6949 -0.9155 -1.0095
  200SOL    HW2  600   1.777   0.231   1.289  0.8265 -0.7089  0.2831
  201SOL     OW  601   0.200   0.057   0.783 -0.7002 -0.5150 -0.0852
  201SOL    HW1  602   0.145   0.005   0.848  0.5561 -3.2949 -1.0795
  201SOL    HW2  603   0.187   0.019   0.691 -0.4914  1.6761 -1.0799
  202SOL     OW  604   1.466   1.423   1.046  0.2319 -0.0831 -0.1771
  202SOL    HW1  605   1.413   1.405   0.964  3.0192 -4.4298 -1.3671
  202SOL    HW2  606   1.421   1.382   1.125  0.5374 -1.6039 -0.7559
  203SOL     OW  607   0.133   0.630   1.320 -0.3017 -0.0670 -0.0706
  203SOL    HW1  608   0.173   0.624   1.229 -0.3189  0.5654 -0.1195
  203SOL    HW2  609   0.179   0.701   1.373  0.0683 -0.7925  0.5982
  204SOL     OW  610   0.826   1.636   0.323 -0.5006  0.0943  0.5723
  204SOL    HW1  611   0.859   1.692   0.399  0.3515  0.2895  0.0727
  204SOL    HW2  612   0.739   1.594   0.348 -0.8571  1.1601  1.1879
  205SOL     OW  613   1.361   0.357   1.004  0.0704  0.5126  0.5772
  205SOL    HW1  614   1.283   0.343   0.943 -0.7200 -0.0099  1.6745
  205SOL    HW2  615   1.348   0.441   1.057 -0.5846 -0.4229  1.9548
  206SOL     OW  616   1.143   2.414   1.008 -0.4472  0.1570  0.3305
  206SOL    HW1  617   1.239   2.431   1.031 -0.7211  0.7942  1.0681
  206SOL    HW2  618   1.107   2.342   1.068 -0.8111  0.9244  1.0592
  207SOL     OW  619   0.835   1.151   0.187  0.0194 -0.2132  0.3917
  207SOL    HW1  620   0.929   1.124   0.165 -0.6459 -2.3163 -0.1222
  207SOL    HW2  621   0.831   1.182   0.282  1.5341  1.6655 -0.0998
  208SOL     OW  622   0.301   1.626   1.783 -0.0698 -0.0566 -0.1542
  208SOL    HW1  623   0.393   1.666   1.776 -0.5965  1.1297 -0.5828
  208SOL    HW2  624   0.309   1.530   1.808  1.3166 -0.1290 -0.7379
  209SOL     OW  625   1.535   0.379   2.492 -0.4172 -0.2391 -0.5932
  209SOL    HW1  626   1.531   0.302   2.556 -0.3362  0.1304 -0.1319
  209SOL    HW2  627   1.573   0.349   2.405  0.4242 -0.5357 -0.1380
  210SOL     OW  628   1.126   0.086   0.699  0.0009 -0.1260  0.3353
  210SOL    HW1  629   1.078   0.057   0.782  1.5618 -0.1163  1.2708
  210SOL    HW2  630   1.079   0.165   0.659 -2.2977 -1.6984 -0.3111
  211SOL     OW  631   1.535   0.441   0.797 -0.3282  0.2897  0.0405
  211SOL    HW1  632   1.470   0.406   0.864 -0.4277  0.7688  0.2009
  211SOL    HW2  633   1.610   0.488   0.844  0.6011 -1.0034 -0.0969
  212SOL     OW  634   2.304   1.016   0.156 -0.2885 -0.1417  0.3928
  212SOL    HW1  635   2.386   1.050   0.203 -0.0729  2.2606 -1.5056
  212SOL    HW2  636   2.223   1.063   0.191 -0.1922  1.2393 -1.0979
  213SOL     OW  637   0.996   1.958   2.410 -0.8946  0.0288  0.3263
  213SOL    HW1  638   0.957   1.866   2.411 -2.1720  0.5495  0.9612
  213SOL    HW2  639   0.941   2.019   2.468 -0.2962  1.2806 -0.3616
  214SOL     OW  640   0.838   0.255   1.874 -0.1529  0.3478  0.1171
  214SOL    HW1  641   0.872   0.346   1.899 -1.6254  0.1137  3.5161
  214SOL    HW2  642   0.743   0.262   1.845  0.4843  0.1199 -2.2145
  215SOL     OW  643   1.518   0.429   2.167  0.7002 -0.2303 -0.5076
  215SOL    HW1  644   1.515   0.418   2.068 -1.7417 -1.3531 -0.3845
  215SOL    HW2  645   1.552   0.345   2.209  0.3780 -0.2789 -0.3398
  216SOL     OW  646   0.112   1.277   2.320  0.1819 -0.2796 -0.0399
  216SOL    HW1  647   0.135   1.235   2.407 -1.6295  1.0878  1.1731
  216SOL    HW2  648   0.182   1.345   2.296  0.2041  0.0103  0.8346
  217SOL     OW  649   2.303   1.301   0.334  0.4337  0.3706 -0.3224
  217SOL    HW1  650   2.211   1.286   0.297  1.1485  2.4107 -3.3786
  217SOL    HW2  651   2.297   1.331   0.429 -2.0345  0.2735 -0.3968
  218SOL     OW  652   0.695   0.742   2.013 -0.5110  0.0473 -0.0332
  218SOL    HW1  653   0.659   0.733   1.920  1.2763 -0.5973 -0.7067
  218SOL    HW2  654   0.738   0.832   2.023  3.4275 -1.4441 -1.4812
  219SOL     OW  655   1.889   1.809   1.885 -0.7881  0.2599  0.2324
  219SOL    HW1  656   1.810   1.770   1.932  0.3379  0.0892  2.0931
  219SOL    HW2  657   1.962   1.742   1.882  0.1354  1.2081  0.7658
  220SOL     OW  658   2.475   1.308   1.765 -0.3713 -0.3666  0.2100
  220SOL    HW1  659   2.516   1.378   1.823 -3.2758  1.5766  0.1134
  220SOL    HW2  660   2.427   1.352   1.689 -1.0964 -2.5742 -0.6786
  221SOL     OW  661   1.657   1.040   0.127  0.3012 -0.4941 -0.1621
  221SOL    HW1  662   1.747   1.060   0.088  0.3206 -0.6964 -0.2198
  221SOL    HW2  663   1.589   1.100   0.085  0.6619  0.8544  1.0806
  222SOL     OW  664   1.200   1.549   1.933 -0.5361 -0.5674 -0.2099
  222SOL    HW1  665   1.217   1.477   1.866 -1.4654  0.1058 -1.1983
  222SOL    HW2  666   1.102   1.564   1.943 -0.3704  1.6319 -1.2576
  223SOL     OW  667   0.855   0.571   2.201 -0.0546  0.4911 -0.6485
  223SOL    HW1  668   0.830   0.655   2.153  1.2138  1.9615  1.1182
  223SOL    HW2  669   0.783   0.502   2.188 -2.3793  2.6713 -0.1114
  224SOL     OW  670   0.865   1.793   2.104  0.2014 -0.3720 -0.1957
  224SOL    HW1  671   0.919   1.826   2.026  1.8680  0.0369  1.0576
  224SOL    HW2  672   0.789   1.855   2.122  2.3996  2.1331  1.1821
  225SOL     OW  673   0.447   0.908   2.049 -0.4463 -0.0647 -0.2265
  225SOL    HW1  674   0.512   0.920   2.124 -0.0632  1.3243 -0.7377
  225SOL    HW2  675   0.469   0.824   1.999  0.4430 -0.0532  0.1171
  226SOL     OW  676   1.492   1.884   1.968  0.1026 -0.2364 -0.6772
  226SOL    HW1  677   1.542   1.806   2.006  0.2821  0.0546 -0.3148
  226SOL    HW2  678   1.407   1.897   2.019 -0.3384 -0.7081 -1.2701
  227SOL     OW  679   0.300   0.505   0.030 -0.1115 -0.1561 -0.4527
  227SOL    HW1  680   0.271   0.548   0.115 -1.5600 -0.5619 -0.7081
  227SOL    HW2  681   0.291   0.571  -0.045  1.0076  0.1504 -0.3357
  228SOL     OW  682   1.258   0.488   0.048 -0.7292  0.1506  0.2649
  228SOL    HW1  683   1.195   0.484  -0.030  0.2264 -0.0633 -0.5059
  228SOL    HW2  684   1.352   0.477   0.016 -0.2791  0.5749  1.3942
  229SOL     OW  685   0.253   1.078   2.015 -0.2054 -0.1438 -0.0037
  229SOL    HW1  686   0.221   1.089   1.921  0.2302  1.0625 -0.0297
  229SOL    HW2  687   0.340   1.028   2.014  0.5626  1.1381 -0.3997
  230SOL     OW  688   1.312   1.900   2.187 -0.7127 -0.0815  0.0524
  230SOL    HW1  689   1.281   1.828   2.249 -0.8257  1.2013  1.5162
  230SOL    HW2  690   1.253   1.980   2.195  0.1057  0.6196 -0.6880
  231SOL     OW  691   1.392   1.431   2.092 -0.0303 -0.0211  0.0695
  231SOL    HW1  692   1.460   1.503   2.107 -0.1795  0.4834 -1.5054
  231SOL    HW2  693   1.320   1.464   2.031  0.0663 -1.5817 -0.9688
  232SOL     OW  694   0.335   1.725   2.263  0.1253 -0.2979 -0.1681
  232SOL    HW1  695   0.416   1.667   2.265 -0.3092 -0.8870  0.6864
  232SOL    HW2  696   0.305   1.736   2.168 -0.0254 -1.8123 -0.3251
  233SOL     OW  697   1.708   2.345   2.326 -0.2958 -0.1865 -0.4121
  233SOL    HW1  698   1.625   2.288   2.325 -0.0583 -0.5740  0.5061
  233SOL    HW2  699   1.683   2.439   2.346 -0.6492 -0.0321 -1.5204
  234SOL     OW  700   0.552   0.256   1.878 -0.1966 -0.4514  0.5065
  234SOL    HW1  701   0.522   0.351   1.891 -1.1712 -0.8698  1.4021
  234SOL    HW2  702   0.475   0.194   1.892  0.2027 -1.3432 -0.9891
  235SOL     OW  703   0.378   2.381   1.737  0.2485  0.1665  0.3886
  235SOL    HW1  704   0.378   2.297   1.682  2.0177  0.2749  0.1516
  235SOL    HW2  705   0.472   2.414   1.747 -0.1899  1.0307  2.1659
  236SOL     OW  706   0.693   0.327   2.186 -0.3670 -0.2188 -0.5655
  236SOL    HW1  707   0.767   0.263   2.164  0.6591  0.3149  1.1722
  236SOL    HW2  708   0.617   0.277   2.228  0.0290 -0.4467 -0.1130
  237SOL     OW  709   0.930   1.577   1.908  0.4658  0.2936  0.1832
  237SOL    HW1  710   0.849   1.600   1.963  0.4070  0.0690  0.1912
  237SOL    HW2  711   0.909   1.498   1.850  0.4225  0.7266 -0.3988
  238SOL     OW  712   0.163   2.067   1.919  0.4176  0.1145  0.4127
  238SOL    HW1  713   0.093   2.034   1.983 -1.6637  2.7536 -0.3027
  238SOL    HW2  714   0.145   2.030   1.828  0.8563 -0.3448  0.5087
  239SOL     OW  715   1.148   0.260   2.196  0.7239  0.2665  0.4672
  239SOL    HW1  716   1.193   0.297   2.115 -0.1023 -0.2336 -0.2357
  239SOL    HW2  717   1.216   0.228   2.261  1.3798 -0.4247 -0.5442
  240SOL     OW  718   0.378   1.059   0.594  0.2759  0.3160 -0.2531
  240SOL    HW1  719   0.316   1.138   0.595  0.1120  0.1984 -0.8578
  240SOL    HW2  720   0.328   0.978   0.624  0.6614  0.5814  1.2054
  241SOL     OW  721   1.940   2.202   2.374 -0.4343 -0.2595 -0.2203
  241SOL    HW1  722   2.007   2.268   2.341  1.4654 -0.9105  2.0352
  241SOL    HW2  723   1.850   2.244   2.376  0.6362  2.1642  0.7277
  242SOL     OW  724   1.305   0.589   2.182  0.5234  0.1758 -0.6376
  242SOL    HW1  725   1.375   0.519   2.187 -0.8297 -1.1798 -0.0299
  242SOL    HW2  726   1.320   0.657   2.254  0.9355 -0.3579 -0.2148
  243SOL     OW  727   1.066   0.511   2.343 -0.3444 -0.1264 -0.1457
  243SOL    HW1  728   0.994   0.501   2.273 -0.0555  0.6275 -0.5582
  243SOL    HW2  729   1.146   0.554   2.302 -0.3021  0.6588  0.7421
  244SOL     OW  730   1.870   0.690   2.252 -0.4604 -0.5990  0.0423
  244SOL    HW1  731   1.799   0.652   2.312 -0.9896 -1.0871 -0.8694
  244SOL    HW2  732   1.908   0.616   2.196  0.1464 -0.1807 -0.0964
  245SOL     OW  733   0.676   1.278   2.278  0.4412 -0.4311 -0.1500
  245SOL    HW1  734   0.727   1.269   2.192  0.0767 -1.0163 -0.3120
  245SOL    HW2  735   0.732   1.246   2.354  0.0523 -1.7907 -0.4208
  246SOL     OW  736   1.565   1.024   2.123 -0.8315 -0.0308  0.0384
  246SOL    HW1  737   1.579   0.925   2.113  1.3223  0.3026 -0.9747
  246SOL    HW2  738   1.654   1.069   2.132 -1.6680  1.9797 -1.0991
  247SOL     OW  739   0.527   0.586   2.175 -0.2099  0.1243 -0.0569
  247SOL    HW1  740   0.506   0.503   2.123 -1.7373  1.2606 -1.3535
  247SOL    HW2  741   0.600   0.636   2.129  0.5426 -0.3467  0.5934
  248SOL     OW  742   0.638   0.739   2.472 -0.0617  0.6387  0.2158
  248SOL    HW1  743   0.735   0.756   2.492  0.1682 -0.0125 -0.3154
  248SOL    HW2  744   0.617   0.643   2.487 -1.1127  1.1268  2.2213
  249SOL     OW  745   0.182   1.124   0.076 -0.9174  0.3605 -0.0634
  249SOL    HW1  746   0.116   1.119   0.150 -1.6744  2.2667 -0.5373
  249SOL    HW2  747   0.275   1.130   0.114 -1.1933  0.0254  0.6757
  250SOL     OW  748   1.511   1.640   2.279 -0.1425 -0.0917  0.2879
  250SOL    HW1  749   1.571   1.715   2.251  0.4772 -0.9367 -0.7338
  250SOL    HW2  750   1.542   1.602   2.365  1.2961 -1.0175 -0.5971
  251SOL     OW  751   1.687   0.085   0.013 -0.6934  0.2076 -0.3401
  251SOL    HW1  752   1.781   0.111   0.037 -0.1775 -1.6142 -0.2167
  251SOL    HW2  753   1.633   0.076   0.097 -0.5491 -0.2146 -0.2875
  252SOL     OW  754   1.313   1.040   2.263  1.1574 -0.0155 -0.0736
  252SOL    HW1  755   1.309   1.133   2.299  0.5152 -0.2343  0.4409
  252SOL    HW2  756   1.383   1.035   2.192  0.5280  1.0944 -0.7984
  253SOL     OW  757   1.640   0.203   2.292 -0.4799 -0.1713  0.5494
  253SOL    HW1  758   1.707   0.162   2.230  0.6392  0.3665  1.3499
  253SOL    HW2  759   1.646   0.157   2.381 -0.1656  0.8077  1.0451
  254SOL     OW  760   1.476   0.674   1.741  0.1453 -0.6626  0.1592
  254SOL    HW1  761   1.530   0.759   1.750 -2.5532  1.2688 -0.7191
  254SOL    HW2  762   1.412   0.668   1.817  0.8088 -2.3916  0.6247
  255SOL     OW  763   1.220   1.213   1.886 -0.2764 -0.2627 -0.0598
  255SOL    HW1  764   1.318   1.232   1.889 -0.3643  0.1764  0.0102
  255SOL    HW2  765   1.178   1.267   1.813 -0.4529 -0.5168 -0.1464
  256SOL     OW  766   2.279   1.144   2.393  0.3107 -0.1913  0.0434
  256SOL    HW1  767   2.355   1.157   2.330  1.2617  0.6096  1.3033
  256SOL    HW2  768   2.309   1.086   2.469 -0.2269  0.4192  0.7288
  257SOL     OW  769   0.924   0.699   2.509  0.7304  0.0761  0.4219
  257SOL    HW1  770   0.977   0.769   2.460 -0.1943  0.9508  0.6563
  257SOL    HW2  771   0.932   0.612   2.461  1.6486  0.4058 -0.0423
  258SOL     OW  772   0.972   0.588   1.925 -0.6630  0.8871 -0.0437
  258SOL    HW1  773   1.069   0.601   1.904 -0.7853 -0.5333 -1.7375
  258SOL    HW2  774   0.961   0.575   2.023  1.0237  0.0384  0.0814
  259SOL     OW  775   0.981   1.580   2.269  0.1476  0.6254  0.1125
  259SOL    HW1  776   0.945   1.649   2.205  0.0386  1.4260  1.0212
  259SOL    HW2  777   0.990   1.493   2.221 -1.3637  0.8293 -0.6150
  260SOL     OW  778   2.398   2.291   2.351  0.2156 -0.0544 -0.0493
  260SOL    HW1  779   2.489   2.268   2.318  0.0878 -1.0654  0.2702
  260SOL    HW2  780   2.390   2.390   2.361  0.9531  0.1136 -0.9914
  261SOL     OW  781   1.471   2.184   2.390  0.9211 -0.1652 -0.5862
  261SOL    HW1  782   1.450   2.197   2.486  0.4709 -0.5993 -0.6258
  261SOL    HW2  783   1.402   2.230   2.333  0.3498 -1.1457 -0.7081
  262SOL     OW  784   2.451   1.504   2.410  0.0928 -0.2400  0.1249
  262SOL    HW1  785   2.498   1.428   2.454  0.0539  0.4106  1.3209
  262SOL    HW2  786   2.355   1.505   2.438  0.6647  1.7866  2.3064
  263SOL     OW  787   0.656   1.567   1.977  0.0756 -0.4795 -0.2281
  263SOL    HW1  788   0.617   1.479   1.952  0.3622 -1.0631  1.3030
  263SOL    HW2  789   0.640   1.585   2.074  0.3282  1.0022 -0.4301
  264SOL     OW  790   1.035   0.955   2.352 -0.6012 -0.3312  0.3610
  264SOL    HW1  791   1.120   0.997   2.320 -0.4410 -1.8416 -1.3983
  264SOL    HW2  792   0.960   0.982   2.292 -1.3924  0.8681  1.8116
  265SOL     OW  793   1.694   1.709   2.054 -0.2403 -0.0133 -0.0362
  265SOL    HW1  794   1.672   1.627   2.000 -1.5236  0.0631  0.3529
  265SOL    HW2  795   1.768   1.688   2.117  0.6614 -0.3636 -1.1731
  266SOL     OW  796   0.749   2.083   2.051 -0.7937  0.3344  0.3493
  266SOL    HW1  797   0.814   2.094   1.976 -0.3782 -0.4589  0.5787
  266SOL    HW2  798   0.792   2.112   2.137 -0.4214 -0.9978  0.6330
  267SOL     OW  799   0.342   1.128   0.317  0.3343  0.7640  0.1373
  267SOL    HW1  800   0.289   1.212   0.333  0.9139  1.1589  0.0144
  267SOL    HW2  801   0.373   1.091   0.404 -0.5850  0.2278  0.2564
  268SOL     OW  802   2.427   0.115   1.727  0.2235 -0.3079 -0.2292
  268SOL    HW1  803   2.420   0.211   1.698  0.6637 -0.1709  0.0929
  268SOL    HW2  804   2.514   0.078   1.695 -0.2656 -0.8321 -0.9896
  269SOL     OW  805   0.078   2.260   2.107 -0.0880 -0.3034 -0.1142
  269SOL    HW1  806   0.130   2.215   2.179 -1.0695 -3.0629 -1.0204
  269SOL    HW2  807   0.111   2.230   2.018 -2.6583 -1.5683 -0.7191
  270SOL     OW  808   1.229   1.713   2.359  0.2450  0.3335  0.5908
  270SOL    HW1  809   1.316   1.665   2.371 -0.2200 -0.2118  2.0067
  270SOL    HW2  810   1.163   1.652   2.316  0.6495  0.8856 -0.8899
  271SOL     OW  811   1.337   0.155   2.346 -0.1830 -0.0119  0.2987
  271SOL    HW1  812   1.434   0.159   2.321 -0.4897  1.3341 -0.8027
  271SOL    HW2  813   1.324   0.083   2.414  1.3237 -1.3518 -0.7172
  272SOL     OW  814   0.320   0.534   0.500 -0.8461 -0.2234 -0.9839
  272SOL    HW1  815   0.408   0.489   0.511 -0.3781  0.6352 -1.1184
  272SOL    HW2  816   0.247   0.473   0.530  0.0303  0.6114  3.6507
  273SOL     OW  817   0.720   1.610   0.048  0.4791  0.6619  0.4476
  273SOL    HW1  818   0.651   1.682   0.051 -0.1930  0.2549 -2.4192
  273SOL    HW2  819   0.789   1.627   0.118 -1.5641  2.0423  2.2436
  274SOL     OW  820   1.066   1.291   2.135 -0.2874  0.3203 -0.0197
  274SOL    HW1  821   0.998   1.217   2.137 -0.2206  0.2509 -0.2407
  274SOL    HW2  822   1.134   1.271   2.065  0.1984  0.1845  0.4911
  275SOL     OW  823   0.576   0.941   2.318  0.4087  0.1379 -0.3070
  275SOL    HW1  824   0.591   0.867   2.384 -0.8208 -0.0520 -0.2283
  275SOL    HW2  825   0.527   1.016   2.363 -0.4626 -0.0017 -0.9991
  276SOL     OW  826   0.380   1.432   2.504  0.5529 -0.1140  0.1744
  276SOL    HW1  827   0.454   1.382   2.550  0.3831  1.0563  1.8263
  276SOL    HW2  828   0.410   1.459   2.413  2.2931  0.5716  0.9084
  277SOL     OW  829   1.818   0.324   1.953  0.5696  0.0703  0.1109
  277SOL    HW1  830   1.854   0.276   1.873  0.3394  0.1048 -0.0123
  277SOL    HW2  831   1.815   0.261   2.030 -1.6806 -0.7287 -0.5552
  278SOL     OW  832   0.422   0.476   1.934  0.2741  0.1851 -0.2450
  278SOL    HW1  833   0.327   0.443   1.934 -0.1765  1.4220  0.2906
  278SOL    HW2  834   0.425   0.568   1.895  1.2987  0.0693 -0.4604
  279SOL     OW  835   0.590   2.298   2.137 -0.8841  0.3473 -0.3070
  279SOL    HW1  836   0.618   2.207   2.108 -1.5396 -0.5220  1.5936
  279SOL    HW2  837   0.600   2.363   2.061  0.6275 -1.0696 -1.3731
  280SOL     OW  838   0.625   1.861   1.126  0.2491  0.4565 -0.6397
  280SOL    HW1  839   0.604   1.823   1.036  0.6004 -0.6813 -0.2526
  280SOL    HW2  840   0.567   1.941   1.142 -0.3815  0.2007 -1.5490
  281SOL     OW  841   0.381   2.113   0.579  0.1342 -0.7801 -0.8624
  281SOL    HW1  842   0.445   2.181   0.614 -1.7610  0.1795  0.9689
  281SOL    HW2  843   0.302   2.159   0.538 -0.1286 -1.9155 -1.7030
  282SOL     OW  844   1.741   2.283   0.245  0.0724 -0.1909  0.0778
  282SOL    HW1  845   1.731   2.345   0.322 -2.5874 -2.3268  1.6364
  282SOL    HW2  846   1.653   2.272   0.199  1.5677  0.9747 -3.3601
  283SOL     OW  847   0.751   2.338   1.174 -0.4593 -0.0125 -0.1472
  283SOL    HW1  848   0.820   2.300   1.112 -2.1789 -1.2895 -1.3698
  283SOL    HW2  849   0.744   2.281   1.256  0.7880  0.8586  0.6124
  284SOL     OW  850   1.329   2.298   0.779 -0.1742  0.4112  0.0424
  284SOL    HW1  851   1.269   2.363   0.826 -0.8929  0.7542 -1.2841
  284SOL    HW2  852   1.410   2.282   0.835 -1.2095  0.3882  1.6141
  285SOL     OW  853   1.538   1.821   1.711  0.1346 -0.1495  0.1905
  285SOL    HW1  854   1.603   1.874   1.656  1.3254 -0.0882  1.6092
  285SOL    HW2  855   1.528   1.862   1.801 -0.2253 -1.3798  0.7394
  286SOL     OW  856   0.574   2.290   0.630 -0.1004  0.5582  0.3808
  286SOL    HW1  857   0.642   2.346   0.676  1.0609  0.2863 -0.9549
  286SOL    HW2  858   0.618   2.215   0.582 -1.6040 -1.4985  2.0033
  287SOL     OW  859   0.790   2.085   0.037  0.0139 -0.2314 -0.1163
  287SOL    HW1  860   0.768   2.157   0.103  1.8768 -0.3096  0.6240
  287SOL    HW2  861   0.728   2.007   0.051  0.4659 -0.3137  1.6612
  288SOL     OW  862   0.545   2.036   1.516 -0.6394  0.5313 -0.0209
  288SOL    HW1  863   0.553   1.956   1.456 -0.0270  1.3151 -1.0254
  288SOL    HW2  864   0.582   2.014   1.606  0.6342  0.0251 -0.6395
  289SOL     OW  865   0.875   0.073   1.181 -1.1425 -0.0463 -0.2469
  289SOL    HW1  866   0.841  -0.018   1.203 -2.3247  0.8602  1.9722
  289SOL    HW2  867   0.804   0.141   1.198 -0.4341  1.3132 -2.2736
  290SOL     OW  868   0.561   0.340   1.597 -0.1426 -0.1817 -0.3947
  290SOL    HW1  869   0.578   0.307   1.691 -0.6876  1.8441  0.4603
  290SOL    HW2  870   0.647   0.342   1.547  0.2498 -0.7926  0.2250
  291SOL     OW  871   1.338   0.277   1.613 -0.1711 -0.2952 -0.0348
  291SOL    HW1  872   1.324   0.198   1.673 -0.2966 -1.0735 -1.0623
  291SOL    HW2  873   1.431   0.312   1.627  1.0840 -2.6145 -1.7666
  292SOL     OW  874   0.996   0.159   1.649  0.7420  0.3457  0.0892
  292SOL    HW1  875   0.950   0.184   1.735  2.3282  1.7301  0.5882
  292SOL    HW2  876   1.061   0.085   1.667  0.1673 -0.2505 -0.2162
  293SOL     OW  877   1.246   0.181   0.146  0.4930 -0.1378  0.1107
  293SOL    HW1  878   1.176   0.246   0.117  1.1439  1.0826  1.1483
  293SOL    HW2  879   1.312   0.227   0.205  2.0990 -1.2867 -0.6981
  294SOL     OW  880   2.432   0.140   0.629 -0.0739 -0.8850  0.2817
  294SOL    HW1  881   2.387   0.132   0.718  0.3479 -0.1442  0.5761
  294SOL    HW2  882   2.507   0.074   0.623  1.0784  0.2552  1.2339
  295SOL     OW  883   1.209  -0.012   2.057 -0.0999  0.2286 -0.0721
  295SOL    HW1  884   1.128  -0.035   2.003 -1.1272  1.8160  0.7091
  295SOL    HW2  885   1.200   0.082   2.092  1.9516  0.3369  0.2760
  296SOL     OW  886   1.850   2.362   1.495 -0.7225 -0.0521  0.4265
  296SOL    HW1  887   1.803   2.403   1.574 -1.6110  2.0513 -1.0952
  296SOL    HW2  888   1.782   2.320   1.435 -0.4099  0.8764 -0.6023
  297SOL     OW  889   0.615   2.115   0.882  0.2998  0.3559  0.2016
  297SOL    HW1  890   0.573   2.058   0.811 -0.0752 -0.2248  0.8719
  297SOL    HW2  891   0.693   2.164   0.844  0.2023 -0.0752 -0.5669
  298SOL     OW  892   1.548   0.089   0.488 -0.9124  0.2511  0.1982
  298SOL    HW1  893   1.592   0.154   0.550  1.6419 -0.6184 -0.5696
  298SOL    HW2  894   1.605   0.007   0.480 -1.2405  0.2022 -3.0356
  299SOL     OW  895   0.228   1.949   0.807 -0.0202  0.2501 -0.1487
  299SOL    HW1  896   0.232   1.981   0.902 -1.2031 -1.4879  0.5330
  299SOL    HW2  897   0.265   2.019   0.747  3.1080  0.4585  1.7961
  300SOL     OW  898   1.329   1.865   0.462  0.7160 -0.4071 -0.0870
  300SOL    HW1  899   1.389   1.791   0.492 -0.2034 -0.0163  3.0434
  300SOL    HW2  900   1.302   1.919   0.541 -1.7702  0.9326 -1.7574
  301SOL     OW  901   1.795   2.470   1.727  0.1063  0.1827 -0.0942
  301SOL    HW1  902   1.877   2.520   1.757  0.1219  0.1763 -0.1264
  301SOL    HW2  903   1.716   2.502   1.779  0.2853 -0.4557  0.5794
  302SOL     OW  904   0.906   2.489  -0.012  0.2254  0.4614  0.2892
  302SOL    HW1  905   0.968   2.411  -0.020 -0.8382 -0.4986  1.0630
  302SOL    HW2  906   0.913   2.530   0.079  0.6208  1.1447 -0.0399
  303SOL     OW  907   0.997   1.828   1.855 -0.4111  0.3065 -0.1068
  303SOL    HW1  908   0.980   1.729   1.859  1.3531 -0.0937 -1.1428
  303SOL    HW2  909   1.094   1.844   1.834 -0.6080  2.2731  0.2836
  304SOL     OW  910   1.712   0.067   1.257 -0.3389 -0.1890  0.2729
  304SOL    HW1  911   1.666   0.084   1.170 -0.8990 -0.0883  0.5825
  304SOL    HW2  912   1.752  -0.025   1.256  0.0916 -0.0000 -0.2742
  305SOL     OW  913   0.371   1.903   0.041 -0.4797  0.5403 -0.2549
  305SOL    HW1  914   0.301   1.833   0.059 -0.9560  0.9449 -0.5095
  305SOL    HW2  915   0.377   1.919  -0.058  0.1236  0.3622 -0.2522
  306SOL     OW  916   0.607   0.023  -0.026 -0.3915  0.5697 -0.2977
  306SOL    HW1  917   0.576   0.013   0.069 -1.2471  2.4809 -0.3342
  306SOL    HW2  918   0.706   0.008  -0.030 -0.6471 -1.6777  0.4933
  307SOL     OW  919   1.159   2.248   0.304  0.0597  0.3036 -0.0179
  307SOL    HW1  920   1.113   2.337   0.307 -0.3892  0.1457 -1.3429
  307SOL    HW2  921   1.217   2.238   0.384 -1.1898  1.0793  1.0238
  308SOL     OW  922   0.408   2.030   1.049 -0.0570 -0.2645  0.1698
  308SOL    HW1  923   0.390   2.121   1.088  0.6158 -0.4300  0.8975
  308SOL    HW2  924   0.474   2.039   0.974  0.1275 -0.1588  0.3409
  309SOL     OW  925   1.015   2.196   1.171 -0.5781 -0.0177  0.1484
  309SOL    HW1  926   1.038   2.105   1.137 -1.0346 -0.2543  0.4613
  309SOL    HW2  927   0.937   2.190   1.234 -0.5492  0.5747  0.2518
  310SOL     OW  928   0.877   2.029   0.604 -0.0377  0.4676  0.0263
  310SOL    HW1  929   0.922   1.955   0.555  0.4348  0.4972  0.4059
  310SOL    HW2  930   0.825   2.085   0.540  1.4076  1.1207 -0.6346
  311SOL     OW  931   1.433   2.386   1.126 -0.1035 -0.7066 -0.2906
  311SOL    HW1  932   1.456   2.308   1.068  0.8968 -1.4917  1.0849
  311SOL    HW2  933   1.408   2.353   1.218 -0.6310  0.5400  0.0313
  312SOL     OW  934   0.971   2.409   0.463  0.2649  0.2940 -0.5191
  312SOL    HW1  935   1.020   2.345   0.522 -1.4477  0.0143  0.6527
  312SOL    HW2  936   0.907   2.463   0.517  0.1095  1.5062 -1.8299
  313SOL     OW  937   1.093   1.977   1.463 -0.5881 -0.1721  0.2829
  313SOL    HW1  938   1.134   2.019   1.382 -1.4943  1.1310  0.4711
  313SOL    HW2  939   1.123   1.882   1.471 -0.0923 -0.1623 -1.2983
  314SOL     OW  940   1.390   2.232   1.356  0.2941 -0.5064  0.0741
  314SOL    HW1  941   1.343   2.285   1.427 -1.1401  2.6114 -2.9090
  314SOL    HW2  942   1.342   2.146   1.342 -0.3326 -0.4775  1.7611
  315SOL     OW  943   0.563   0.040   1.185 -0.5859 -0.0161 -0.1042
  315SOL    HW1  944   0.597   0.128   1.153 -0.4327  0.5706  1.5719
  315SOL    HW2  945   0.637  -0.028   1.180  0.6137  0.9643  2.3897
  316SOL     OW  946   1.463   2.358   1.626  0.2257 -0.3254 -0.3315
  316SOL    HW1  947   1.510   2.426   1.569 -0.1296  0.2832  0.0852
  316SOL    HW2  948   1.527   2.285   1.650  1.1249  0.7688  0.6841
  317SOL     OW  949   0.359   2.228   1.462  0.4490  0.8796 -0.6854
  317SOL    HW1  950   0.418   2.152   1.488 -0.7132 -0.3306 -1.4657
  317SOL    HW2  951   0.415   2.303   1.427  1.7067  0.8941  1.2386
  318SOL     OW  952   1.321   2.459   0.021  0.2869 -1.0209 -0.0895
  318SOL    HW1  953   1.362   2.391   0.082  1.6777  0.1147  0.3051
  318SOL    HW2  954   1.283   2.534   0.075 -0.0781 -0.8669 -0.5529
  319SOL     OW  955   0.208   1.988   1.222 -0.1372 -0.0832 -0.1609
  319SOL    HW1  956   0.218   2.067   1.284 -0.6900 -0.0258 -0.1391
  319SOL    HW2  957   0.280   1.991   1.153  1.2940 -0.8637  1.2447
  320SOL     OW  958   0.694   0.285   1.161 -0.0016 -0.4061  0.1997
  320SOL    HW1  959   0.636   0.360   1.190  0.7810  0.6478 -0.8329
  320SOL    HW2  960   0.763   0.319   1.096  0.3033 -2.0326 -0.3931
  321SOL     OW  961   0.871   1.988   0.873 -0.1734 -0.1879  0.1469
  321SOL    HW1  962   0.866   2.021   0.779 -0.6987  1.1240  0.6091
  321SOL    HW2  963   0.792   2.021   0.924  0.6244  0.0028  1.3081
  322SOL     OW  964   1.460   2.185   0.195  0.1974  0.7025 -0.1879
  322SOL    HW1  965   1.477   2.089   0.175  1.0497  0.9782 -0.8307
  322SOL    HW2  966   1.434   2.195   0.291  0.4843 -0.1233 -0.0183
  323SOL     OW  967   1.458   2.205   1.988 -0.2999 -0.1701 -0.3658
  323SOL    HW1  968   1.431   2.133   2.052  0.0291 -0.7447 -0.8651
  323SOL    HW2  969   1.440   2.175   1.894  1.8833 -0.5487 -0.7267
  324SOL     OW  970   2.401   2.312   0.939  0.1959  0.1905  0.5404
  324SOL    HW1  971   2.396   2.228   0.885 -0.2303 -0.3475  1.4056
  324SOL    HW2  972   2.349   2.384   0.894 -1.5201 -0.7002  1.0311
  325SOL     OW  973   0.779   2.253   1.761  0.3902 -0.8119 -0.1478
  325SOL    HW1  974   0.740   2.341   1.734 -1.0275 -2.0084 -2.3366
  325SOL    HW2  975   0.856   2.232   1.700 -1.0565 -2.2945 -1.5451
  326SOL     OW  976   0.837   1.869   1.519  0.2072  0.5628 -0.1659
  326SOL    HW1  977   0.832   1.869   1.619 -0.2577  1.6210 -0.1689
  326SOL    HW2  978   0.931   1.886   1.491  0.3683  0.1097  0.0866
  327SOL     OW  979   1.956   2.369   1.077 -0.0407  0.0200  0.2216
  327SOL    HW1  980   2.001   2.413   0.999  2.5861 -1.9898  0.4736
  327SOL    HW2  981   2.005   2.391   1.161  0.5785 -2.2286  0.5196
  328SOL     OW  982   0.096   2.300   1.457  0.0013  0.1485 -0.0656
  328SOL    HW1  983   0.037   2.219   1.465 -0.7920  0.7628  0.3782
  328SOL    HW2  984   0.192   2.272   1.466 -0.2153 -0.8379 -0.6510
  329SOL     OW  985   0.917   0.048   0.256 -0.6512  0.4393 -0.1500
  329SOL    HW1  986   0.856   0.118   0.293 -0.9508  0.5470 -0.8319
  329SOL    HW2  987   0.951  -0.010   0.331  0.2682  1.8088  0.5202
  330SOL     OW  988   1.524   0.117   1.013  0.5034 -0.0141  0.2164
  330SOL    HW1  989   1.479   0.036   1.050 -0.0635  0.3400  0.3146
  330SOL    HW2  990   1.465   0.196   1.025  0.3554  0.1371 -1.3424
  331SOL     OW  991   0.790   2.177   1.374  0.2465 -0.2068  0.1982
  331SOL    HW1  992   0.743   2.100   1.416 -0.9397  1.3799  1.9466
  331SOL    HW2  993   0.850   2.221   1.441  1.0631  0.2948 -0.8174
  332SOL     OW  994   1.087   2.265   2.462 -0.3462 -0.0113  0.3431
  332SOL    HW1  995   1.155   2.246   2.533 -0.0140 -0.6360 -0.1282
  332SOL    HW2  996   1.067   2.180   2.412  1.3723  0.8650 -2.0046
  333SOL     OW  997   1.523   1.928   0.113 -0.1771 -0.2716  0.2604
  333SOL    HW1  998   1.525   1.906   0.016 -1.7000 -0.4191  0.2440
  333SOL    HW2  999   1.516   1.844   0.166 -1.8943 -0.0862  0.3709
  334SOL     OW 1000   1.973   1.322   1.153 -0.2363 -0.1350  0.3987
  334SOL    HW1 1001   2.039   1.315   1.077  0.2876  1.8924  0.6276
  334SOL    HW2 1002   2.007   1.267   1.230  1.3260  1.0232  0.5823
  335SOL     OW 1003   0.438   1.869   0.430  0.2574  0.4097  0.3895
  335SOL    HW1 1004   0.373   1.841   0.359  1.3791 -0.1293 -0.4501
  335SOL    HW2 1005   0.408   1.956   0.469 -0.0155  1.1173 -1.2779
  336SOL     OW 1006   1.140   2.393   1.474 -0.3571  0.0523  0.1513
  336SOL    HW1 1007   1.193   2.430   1.398  1.8792 -1.2575  0.9869
  336SOL    HW2 1008   1.145   2.456   1.552 -3.2232  1.7401 -0.8704
  337SOL     OW 1009   1.674   2.199   1.722  0.0733  0.1848  0.1647
  337SOL    HW1 1010   1.734   2.278   1.737  0.0404  0.5047 -1.2783
  337SOL    HW2 1011   1.701   2.125   1.783  0.9936  0.8244  0.5636
  338SOL     OW 1012   0.944   1.535   1.490 -0.2757 -0.3676 -0.1905
  338SOL    HW1 1013   0.913   1.627   1.515 -0.5312 -0.4062 -0.3681
  338SOL    HW2 1014   0.930   1.473   1.568 -2.0123 -0.7135 -0.7287
  339SOL     OW 1015   0.157   2.189   2.368 -0.1463 -0.4459  0.7386
  339SOL    HW1 1016   0.250   2.179   2.333 -0.8913 -0.1605 -1.4679
  339SOL    HW2 1017   0.160   2.208   2.466  2.1699  0.8394  0.4825
  340SOL     OW 1018   0.362   2.127   0.217  0.1777  0.4449  0.0684
  340SOL    HW1 1019   0.268   2.149   0.245 -0.2806  0.5578 -1.4857
  340SOL    HW2 1020   0.362   2.041   0.166  1.1158 -0.1912  1.1013
  341SOL     OW 1021   0.638  -0.027   1.685 -0.0290 -0.2523  0.4985
  341SOL    HW1 1022   0.671   0.055   1.733 -1.1756 -0.7313  2.2226
  341SOL    HW2 1023   0.597   0.000   1.598 -0.9130  1.1403  1.2964
  342SOL     OW 1024   1.353   2.219   0.501  0.2689  0.1326  0.1656
  342SOL    HW1 1025   1.427   2.204   0.568  0.6110  1.7714  0.1890
  342SOL    HW2 1026   1.334   2.316   0.494 -2.2243 -0.2826  0.4693
  343SOL     OW 1027   1.671   2.001   1.540 -0.0064 -0.1600 -0.3942
  343SOL    HW1 1028   1.689   2.023   1.444  0.7837  0.0617 -0.2048
  343SOL    HW2 1029   1.664   2.086   1.592  0.0610 -0.2914 -0.1720
  344SOL     OW 1030   1.492   1.895   0.863  0.5658  0.6575 -0.6839
  344SOL    HW1 1031   1.570   1.850   0.820 -0.7038  0.4787 -2.9560
  344SOL    HW2 1032   1.447   1.832   0.926  0.2863 -0.4351 -1.9431
  345SOL     OW 1033   0.685   2.105   0.448  0.1069 -0.1652  0.2854
  345SOL    HW1 1034   0.695   2.169   0.371  0.4615 -1.5439 -0.8455
  345SOL    HW2 1035   0.615   2.037   0.426  0.7612 -1.0460  0.8455
  346SOL     OW 1036   0.514   0.053   1.450 -0.1044  0.8062 -0.0503
  346SOL    HW1 1037   0.471   0.139   1.476 -0.2372  1.0666 -1.1046
  346SOL    HW2 1038   0.525   0.049   1.351 -1.2860 -0.9319 -0.1601
  347SOL     OW 1039   1.273   2.008   1.248  0.4723 -0.3306  0.2359
  347SOL    HW1 1040   1.229   1.992   1.160  0.5086 -1.8587  0.4732
  347SOL    HW2 1041   1.348   1.943   1.261  0.1214 -0.5061  1.6137
  348SOL     OW 1042   1.063   2.228   0.646 -0.0400 -0.2538 -0.0458
  348SOL    HW1 1043   1.079   2.137   0.607  0.9077  0.2942 -0.9881
  348SOL    HW2 1044   1.142   2.255   0.702  0.0327  0.3110 -0.4119
  349SOL     OW 1045   1.553   1.927   2.334  0.8823  0.1278 -0.0322
  349SOL    HW1 1046   1.519   2.017   2.358  0.2290 -0.8364  3.1746
  349SOL    HW2 1047   1.478   1.870   2.300  1.1808  0.5466 -1.4823
  350SOL     OW 1048   1.287  -0.021   0.499  0.2086  0.8877 -0.4266
  350SOL    HW1 1049   1.370   0.033   0.486 -0.4054  1.9675 -0.0341
  350SOL    HW2 1050   1.232   0.020   0.571 -0.7038  0.2216 -0.7210
  351SOL     OW 1051   1.277   1.992   0.726  0.0493  0.2220  0.3845
  351SOL    HW1 1052   1.363   1.955   0.762  0.1429 -0.6064 -0.6392
  351SOL    HW2 1053   1.280   2.092   0.728  2.0029  0.2794 -1.7264
  352SOL     OW 1054   1.995   0.151   1.809 -0.0516  0.1737  0.2527
  352SOL    HW1 1055   2.032   0.226   1.754  0.3363 -0.3435 -0.2064
  352SOL    HW2 1056   2.066   0.082   1.823 -0.2942  0.0672  0.9971
  353SOL     OW 1057   0.423   2.009   2.037  0.0313  0.0320  0.1701
  353SOL    HW1 1058   0.362   2.052   1.971  0.7244  0.3427 -0.2733
  353SOL    HW2 1059   0.406   1.910   2.039  0.5900 -0.1090 -1.1121
  354SOL     OW 1060   1.274   2.317   2.259  0.3397 -0.0523 -0.2576
  354SOL    HW1 1061   1.259   2.379   2.181 -0.6235  0.7009  0.5056
  354SOL    HW2 1062   1.215   2.344   2.335 -0.5019 -2.2240 -0.0700
  355SOL     OW 1063   0.670   0.047   2.004 -0.2468  0.0691 -0.6838
  355SOL    HW1 1064   0.640   0.137   1.973  0.6555  0.3153 -0.8681
  355SOL    HW2 1065   0.769   0.039   1.992 -0.1215 -0.4637  0.5340
  356SOL     OW 1066   0.599   2.035   1.785  0.5983  0.1881  0.0723
  356SOL    HW1 1067   0.573   2.023   1.880  0.1127  0.6802  0.0081
  356SOL    HW2 1068   0.673   2.102   1.779  1.0650 -0.3111  0.1510
  357SOL     OW 1069   1.756   2.052   1.927  0.0385 -0.0483 -0.4279
  357SOL    HW1 1070   1.678   2.015   1.978 -0.3296  1.3268  0.0504
  357SOL    HW2 1071   1.829   1.984   1.924 -0.1385 -0.3842  1.4675
  358SOL     OW 1072   0.554   1.523   2.305  0.1204  0.0631  0.0957
  358SOL    HW1 1073   0.582   1.565   2.391  0.5132 -0.5125  0.2599
  358SOL    HW2 1074   0.587   1.428   2.303 -2.0915 -0.7545  0.4173
  359SOL     OW 1075   0.797   2.232   2.279 -0.6639 -0.0856  0.1370
  359SOL    HW1 1076   0.719   2.292   2.261 -0.2147  0.8619  1.2432
  359SOL    HW2 1077   0.779   2.178   2.361 -0.5292 -0.5151 -0.1177
  360SOL     OW 1078  -0.009   1.909   0.104  0.3290  0.2233 -0.0206
  360SOL    HW1 1079   0.070   1.856   0.071  1.8668  1.5510  1.3373
  360SOL    HW2 1080  -0.050   1.957   0.027  0.0116 -1.5011 -0.9710
  361SOL     OW 1081   0.549   1.758   1.783 -0.2836 -0.0433 -0.6594
  361SOL    HW1 1082   0.587   1.850   1.775 -3.0806  1.5222  1.9236
  361SOL    HW2 1083   0.604   1.704   1.847  0.5893  0.2978 -1.1152
  362SOL     OW 1084   1.120   2.101   2.198  0.4161 -0.2192 -0.5135
  362SOL    HW1 1085   1.163   2.189   2.217  2.0489 -0.8719 -1.0029
  362SOL    HW2 1086   1.070   2.070   2.278  0.6180  0.6991 -0.0157
  363SOL     OW 1087   1.805   0.095   2.102 -0.1155  0.1091  0.3959
  363SOL    HW1 1088   1.885   0.069   2.158  0.4233  1.9868  0.5467
  363SOL    HW2 1089   1.780   0.018   2.044  1.1805 -0.8742  1.0709
  364SOL     OW 1090   2.038   0.111   2.302 -0.1259  0.0383  0.4557
  364SOL    HW1 1091   2.077   0.019   2.293  0.5915  0.2765  1.0849
  364SOL    HW2 1092   2.102   0.178   2.265  0.2211  0.4612  1.7893
  365SOL     OW 1093   1.811   2.271   2.082  0.0410 -0.6091 -0.2863
  365SOL    HW1 1094   1.775   2.264   2.175  5.6669 -3.4750  2.1773
  365SOL    HW2 1095   1.763   2.207   2.023 -2.3723 -0.2088  1.1207
  366SOL     OW 1096   1.011   2.083   1.944 -0.4197  0.0798  0.0811
  366SOL    HW1 1097   1.056   2.087   2.033  0.9222  0.1096 -0.5806
  366SOL    HW2 1098   1.011   1.989   1.911 -0.8091  0.0888  0.0445
  367SOL     OW 1099   1.862   1.662   2.292  0.2870 -0.5403 -0.2777
  367SOL    HW1 1100   1.812   1.653   2.378 -0.8540 -1.6745 -1.0182
  367SOL    HW2 1101   1.955   1.691   2.311 -0.4275  0.9831  1.2003
  368SOL     OW 1102   0.059   1.963   1.692 -0.2175  0.2156  0.2173
  368SOL    HW1 1103   0.095   1.879   1.652  0.2097  0.3014  0.4251
  368SOL    HW2 1104   0.002   2.010   1.624  1.0021  0.6812 -0.4997
  369SOL     OW 1105   0.086   2.188   0.141 -0.2188 -0.3191 -0.1059
  369SOL    HW1 1106   0.022   2.112   0.137 -2.3596  1.4093 -0.5129
  369SOL    HW2 1107   0.037   2.272   0.166  2.1234  0.8769  0.7946
  370SOL     OW 1108   1.283   2.533   1.765  0.0382  0.1950  0.5167
  370SOL    HW1 1109   1.219   2.469   1.808 -1.3944  1.1528 -0.1097
  370SOL    HW2 1110   1.375   2.496   1.770 -0.7518 -2.0187  0.0364
  371SOL     OW 1111   0.504   0.142   2.253 -0.3773 -0.9753 -0.1069
  371SOL    HW1 1112   0.537   0.077   2.321  0.2988 -0.4252  0.0958
  371SOL    HW2 1113   0.492   0.096   2.166  0.4356 -1.2924 -0.0534
  372SOL     OW 1114   1.304   2.166   1.757  0.2635  0.1759  0.1638
  372SOL    HW1 1115   1.235   2.125   1.697 -0.3269 -0.1580  1.0584
  372SOL    HW2 1116   1.339   2.250   1.715  0.4968 -0.5062 -1.0543
  373SOL     OW 1117   1.522   2.492   2.093 -0.0138 -0.0226 -0.2560
  373SOL    HW1 1118   1.513   2.395   2.074  1.3136 -0.6222  1.8958
  373SOL    HW2 1119   1.439   2.524   2.140  0.3858 -0.6235  0.8889
  374SOL     OW 1120   1.840   0.686   0.540  0.1386 -0.1941  0.3775
  374SOL    HW1 1121   1.865   0.641   0.625  0.2482 -0.6100  0.1301
  374SOL    HW2 1122   1.915   0.746   0.511  0.3351 -0.4762  0.2901
  375SOL     OW 1123   2.121   0.387   0.808 -0.2954  0.1797 -0.2431
  375SOL    HW1 1124   2.049   0.320   0.794  0.6856 -0.9494 -0.0447
  375SOL    HW2 1125   2.171   0.401   0.723  0.8009 -0.9219  0.1840
  376SOL     OW 1126   1.704   0.302   0.625 -0.1555  0.0815  0.7539
  376SOL    HW1 1127   1.642   0.351   0.687 -0.8179  0.0312  0.1473
  376SOL    HW2 1128   1.728   0.362   0.548 -0.3270 -0.2724  0.4245
  377SOL     OW 1129   2.478   1.241   1.000  0.3092 -0.5923 -0.2038
  377SOL    HW1 1130   2.410   1.282   0.939  1.3835  1.0321 -0.3641
  377SOL    HW2 1131   2.439   1.231   1.091 -0.1064  0.4703 -0.2530
  378SOL     OW 1132   2.453   0.314   1.106  0.0059 -0.1301 -0.1164
  378SOL    HW1 1133   2.385   0.387   1.098  3.5950  3.5335 -0.7685
  378SOL    HW2 1134   2.461   0.287   1.202 -0.4139  1.4553  0.3938
  379SOL     OW 1135   1.905   1.780   0.610 -0.5150 -0.0618  0.2161
  379SOL    HW1 1136   1.987   1.727   0.631 -1.1764 -1.5139 -0.7202
  379SOL    HW2 1137   1.923   1.839   0.531 -0.0065  0.6091  0.8100
  380SOL     OW 1138   1.754   1.499   0.502  0.2561 -0.2560  0.5798
  380SOL    HW1 1139   1.696   1.417   0.505 -2.0362  1.2618  0.0371
  380SOL    HW2 1140   1.743   1.550   0.587  2.0756 -0.7011  1.1334
  381SOL     OW 1141   2.370   0.637   1.252 -0.7430 -0.7106  0.5029
  381SOL    HW1 1142   2.348   0.575   1.176 -1.3953  2.0218 -1.7172
  381SOL    HW2 1143   2.468   0.633   1.271 -0.3268 -0.5614 -1.3991
  382SOL     OW 1144   1.724   0.596   0.927 -0.2112  0.6504  0.3653
  382SOL    HW1 1145   1.681   0.680   0.894 -1.1096 -0.1407 -0.5257
  382SOL    HW2 1146   1.746   0.606   1.024 -2.3339  1.1460  0.8470
  383SOL     OW 1147   1.817   1.594   0.045 -0.2031  0.1856 -0.1691
  383SOL    HW1 1148   1.721   1.566   0.045 -0.2552  0.3633 -0.1625
  383SOL    HW2 1149   1.843   1.623   0.137 -0.3604  0.8815 -0.3422
  384SOL     OW 1150   1.603   0.882   1.855  0.3582  1.0872 -0.5196
  384SOL    HW1 1151   1.681   0.942   1.834  0.9199 -0.3082 -2.8892
  384SOL    HW2 1152   1.626   0.824   1.934  2.0863  0.2289 -1.5732
  385SOL     OW 1153   2.077   0.812   0.473 -1.0632 -0.3605  0.5226
  385SOL    HW1 1154   2.133   0.817   0.556  2.2119  0.6618 -1.5611
  385SOL    HW2 1155   2.028   0.898   0.460  1.0693  0.8270 -0.1951
  386SOL     OW 1156   2.085   1.181   1.337  0.2334  0.0818  0.3578
  386SOL    HW1 1157   2.111   1.103   1.280 -0.0545  0.6693 -0.5908
  386SOL    HW2 1158   2.080   1.152   1.433 -0.2017 -1.1431 -0.0210
  387SOL     OW 1159   2.477   0.228   1.373  0.0460  0.0021 -0.2903
  387SOL    HW1 1160   2.570   0.238   1.407  0.1311  0.2103 -0.5793
  387SOL    HW2 1161   2.417   0.292   1.422 -0.2999 -1.3686  1.1717
  388SOL     OW 1162   2.229   0.812   0.722  0.7985 -0.4406  0.3613
  388SOL    HW1 1163   2.267   0.719   0.723  3.0700  0.4282  1.0468
  388SOL    HW2 1164   2.290   0.873   0.772 -0.3106  1.5764 -0.6402
  389SOL     OW 1165   1.920   1.939   1.641  0.5490 -0.4843 -0.2287
  389SOL    HW1 1166   1.910   1.886   1.724 -1.4373 -1.9582 -1.3186
  389SOL    HW2 1167   1.830   1.969   1.609  1.2860  0.3672 -1.6403
  390SOL     OW 1168   0.249   0.626   0.274  0.3302  0.0461 -0.4733
  390SOL    HW1 1169   0.271   0.596   0.367 -0.3040 -0.0188 -0.3396
  390SOL    HW2 1170   0.173   0.691   0.277  1.9677  2.0440 -0.7142
  391SOL     OW 1171   2.239   0.073   1.092  0.9107 -0.0978  0.1247
  391SOL    HW1 1172   2.269   0.003   1.157  1.5004 -0.1005 -0.1446
  391SOL    HW2 1173   2.308   0.146   1.087  0.3209  0.4897  0.3785
  392SOL     OW 1174   2.323   1.303   1.253  0.1824  0.4356 -0.2533
  392SOL    HW1 1175   2.231   1.293   1.291 -0.1767 -0.0740 -1.2303
  392SOL    HW2 1176   2.389   1.308   1.327 -0.6699  1.2967  0.4809
  393SOL     OW 1177   2.339   0.553   0.180  0.1207 -0.2933  0.1075
  393SOL    HW1 1178   2.382   0.470   0.144  1.2577  0.2181  0.2449
  393SOL    HW2 1179   2.293   0.602   0.106  0.1768 -0.6066 -0.1377
  394SOL     OW 1180   2.155   1.253   1.958  0.4879 -0.2316  0.4077
  394SOL    HW1 1181   2.185   1.178   1.898 -0.3305  0.9333 -1.5588
  394SOL    HW2 1182   2.236   1.295   2.000  1.4917  0.9848 -2.4918
  395SOL     OW 1183   2.121   0.360   1.690  0.3297  0.0103 -0.1498
  395SOL    HW1 1184   2.165   0.401   1.610 -0.5672  0.5138 -0.3999
  395SOL    HW2 1185   2.137   0.417   1.771  0.0221  0.2677 -0.2691
  396SOL     OW 1186   2.356   2.033   2.401 -0.9666 -0.0754 -0.0783
  396SOL    HW1 1187   2.388   2.127   2.387 -1.6506  0.1602 -0.1131
  396SOL    HW2 1188   2.264   2.023   2.363 -2.4980  0.3022  3.1692
  397SOL     OW 1189   2.190   1.863   1.131 -0.0843  0.3152 -0.3904
  397SOL    HW1 1190   2.163   1.791   1.196  0.8982 -2.3785 -2.7521
  397SOL    HW2 1191   2.275   1.906   1.163 -0.8161  0.6833  1.1868
  398SOL     OW 1192   1.946   0.570   0.774 -0.1853 -0.3971  0.5356
  398SOL    HW1 1193   1.885   0.586   0.852  0.3828 -1.9827  1.3468
  398SOL    HW2 1194   2.024   0.515   0.803  1.6305  1.5015 -0.5012
  399SOL     OW 1195   2.426   2.311   0.363  0.2110  0.4368 -0.3087
  399SOL    HW1 1196   2.361   2.361   0.306 -0.4136 -0.0555 -0.0349
  399SOL    HW2 1197   2.380   2.235   0.409  1.1920 -0.5385 -0.8849
  400SOL     OW 1198   2.149   2.320   0.218  0.2036  0.2498  0.6008
  400SOL    HW1 1199   2.108   2.328   0.309 -0.4325  2.9345  0.1836
  400SOL    HW2 1200   2.091   2.262   0.160 -0.3507 -0.0214  1.4069
  401SOL     OW 1201   2.259   1.318   0.584 -0.2873 -0.2167  0.3319
  401SOL    HW1 1202   2.314   1.252   0.636 -1.5414  1.5261  4.2177
  401SOL    HW2 1203   2.163   1.289   0.584 -0.5230  0.5404  0.1837
  402SOL     OW 1204   1.931   0.851   1.620 -0.4206  0.3238  0.0325
  402SOL    HW1 1205   1.889   0.925   1.568 -3.9107  0.6702  2.9244
  402SOL    HW2 1206   1.894   0.764   1.589  0.6728  0.1185 -0.7444
  403SOL     OW 1207   2.403   2.466   1.322 -0.1632 -0.3788  0.1678
  403SOL    HW1 1208   2.472   2.407   1.365  0.5832  0.9613  0.8550
  403SOL    HW2 1209   2.401   2.554   1.368 -0.4493  0.5601 -1.5557
  404SOL     OW 1210   2.329   2.507   0.150  0.0781  0.9457 -0.3151
  404SOL    HW1 1211   2.268   2.429   0.157 -0.4145  1.3963  0.6481
  404SOL    HW2 1212   2.377   2.505   0.062  1.1384 -1.1933  0.2395
  405SOL     OW 1213   0.836   0.687   1.435 -0.3579  0.1037 -0.6414
  405SOL    HW1 1214   0.827   0.671   1.533 -1.5944  0.5531 -0.6637
  405SOL    HW2 1215   0.909   0.629   1.398 -1.6393 -2.0607  0.0854
  406SOL     OW 1216   2.122   0.678   1.524  0.0211 -0.3125  0.1863
  406SOL    HW1 1217   2.068   0.747   1.573 -1.3789 -1.8722  0.9543
  406SOL    HW2 1218   2.113   0.694   1.426 -1.7512 -0.4170  0.2920
  407SOL     OW 1219   2.106   1.955   1.441  0.1334  0.5841  0.6604
  407SOL    HW1 1220   2.096   2.045   1.399 -0.7693 -0.2891 -1.0805
  407SOL    HW2 1221   2.047   1.950   1.522 -2.9389  0.3450 -1.3987
  408SOL     OW 1222   1.898   0.671   0.172  0.5464  0.3103 -0.1740
  408SOL    HW1 1223   1.979   0.712   0.214  0.7870 -0.8332  0.5187
  408SOL    HW2 1224   1.901   0.572   0.182 -1.1006  0.2560  0.1610
  409SOL     OW 1225   0.094   0.369   0.583  0.2723  0.4667  0.0971
  409SOL    HW1 1226   0.029   0.299   0.551  0.0941  0.9279 -0.5692
  409SOL    HW2 1227   0.097   0.368   0.683 -1.4828  1.0720  0.1934
  410SOL     OW 1228   2.492   1.346   1.460  0.0009  0.1109  0.3912
  410SOL    HW1 1229   2.421   1.401   1.503  1.4011  0.1958  2.7890
  410SOL    HW2 1230   2.571   1.403   1.439  0.3567 -0.4421  0.2001
  411SOL     OW 1231   2.031   0.691   1.867  0.2516  0.7979 -0.1579
  411SOL    HW1 1232   2.065   0.749   1.942 -0.3948  0.1401  0.6589
  411SOL    HW2 1233   1.979   0.748   1.803  0.1869  1.2416  0.2775
  412SOL     OW 1234   2.072   2.449   1.336  0.2536 -0.0061  0.1475
  412SOL    HW1 1235   1.985   2.439   1.384  0.5180  0.8924  0.8519
  412SOL    HW2 1236   2.136   2.500   1.393  0.8088  0.4917 -0.8788
  413SOL     OW 1237   2.435   1.161   0.676 -0.2043  0.3205 -0.3424
  413SOL    HW1 1238   2.409   1.102   0.752 -0.5471  1.2829  0.3074
  413SOL    HW2 1239   2.459   1.105   0.597  2.9071 -0.8787  1.2742
  414SOL     OW 1240   2.216   0.447   1.085  0.2552  0.5351  0.2943
  414SOL    HW1 1241   2.187   0.427   0.992 -2.4612  2.2249  0.6565
  414SOL    HW2 1242   2.150   0.409   1.150  1.4327  0.4422  1.4921
  415SOL     OW 1243   1.749   1.261   1.318  0.8120 -0.3682 -0.0043
  415SOL    HW1 1244   1.816   1.277   1.246  0.7994  0.6357  0.1969
  415SOL    HW2 1245   1.694   1.343   1.331  1.9818  0.1314  2.3658
  416SOL     OW 1246   0.141   2.189   0.478  0.4503  0.1738  0.4626
  416SOL    HW1 1247   0.059   2.226   0.433  1.3607  1.9673  0.1650
  416SOL    HW2 1248   0.138   2.089   0.476 -1.9111  0.1817  0.8359
  417SOL     OW 1249   1.931   1.378   1.876 -0.2573 -0.3182  0.2658
  417SOL    HW1 1250   1.970   1.470   1.876  0.5189 -0.5965 -2.1743
  417SOL    HW2 1251   2.002   1.313   1.903 -0.1971 -0.4165 -0.1312
  418SOL     OW 1252   2.159   0.578   0.374  0.4123  0.0671  0.1914
  418SOL    HW1 1253   2.132   0.670   0.402  0.2774  0.0743  0.0382
  418SOL    HW2 1254   2.228   0.584   0.302 -0.1915  0.0524 -0.3984
  419SOL     OW 1255   2.131   0.773   1.258 -0.2927 -0.6628  0.1201
  419SOL    HW1 1256   2.221   0.730   1.260  0.3570  0.6420  1.2895
  419SOL    HW2 1257   2.112   0.807   1.166  0.9841  0.1652  0.1336
  420SOL     OW 1258   1.496   1.205   1.950  0.1115 -0.0182  0.0495
  420SOL    HW1 1259   1.491   1.289   2.003  1.3337 -0.4016  0.8137
  420SOL    HW2 1260   1.511   1.127   2.011 -2.7382 -1.0672 -0.4600
  421SOL     OW 1261   1.732   1.796   1.166  0.5314  0.0020  0.5085
  421SOL    HW1 1262   1.800   1.870   1.161  1.1726 -0.5853  0.4341
  421SOL    HW2 1263   1.775   1.709   1.143 -0.8490 -0.0378 -2.2908
  422SOL     OW 1264   2.265   0.400   1.452  0.0649 -0.0450 -0.1562
  422SOL    HW1 1265   2.217   0.339   1.389 -0.4807 -0.5745  0.7477
  422SOL    HW2 1266   2.249   0.495   1.424 -1.5756 -0.1998  0.1122
  423SOL     OW 1267   1.808   1.068   1.492 -0.6205  0.1366 -0.4443
  423SOL    HW1 1268   1.814   1.139   1.422  2.0425 -0.4337 -0.9377
  423SOL    HW2 1269   1.791   1.109   1.581 -2.4495  1.0283 -1.1729
  424SOL     OW 1270   0.015   1.111   0.298 -0.5676  0.1361 -0.0768
  424SOL    HW1 1271   0.041   1.052   0.374  0.5199 -0.2979 -0.7479
  424SOL    HW2 1272  -0.030   1.193   0.332 -0.2294 -0.1220  1.0209
  425SOL     OW 1273   2.090   1.716   1.350 -0.1506  0.5476  0.0315
  425SOL    HW1 1274   2.010   1.666   1.381  0.7183 -0.6879  0.3321
  425SOL    HW2 1275   2.091   1.806   1.393 -0.2696 -0.2033  1.6767
  426SOL     OW 1276   0.108   0.377   2.349  0.1388  0.5034 -0.0079
  426SOL    HW1 1277   0.156   0.290   2.339 -0.4326  0.1878 -0.0390
  426SOL    HW2 1278   0.172   0.448   2.380  1.0864  0.5884 -2.0595
  427SOL     OW 1279   1.939   1.296   1.618 -0.0714 -0.1011  0.3946
  427SOL    HW1 1280   1.925   1.317   1.715  0.3167  0.0947  0.4102
  427SOL    HW2 1281   1.992   1.212   1.610 -0.5395 -0.3957  0.3440
  428SOL     OW 1282   2.144   1.268   0.925 -0.0255 -0.1278  0.2722
  428SOL    HW1 1283   2.077   1.252   0.853  1.6895 -2.4214 -0.9396
  428SOL    HW2 1284   2.198   1.349   0.902  0.7957 -1.0802 -1.3199
  429SOL     OW 1285   2.319   1.060   1.796  0.0760 -0.4234 -0.4869
  429SOL    HW1 1286   2.392   1.124   1.769 -0.6991  0.2472 -1.0340
  429SOL    HW2 1287   2.337   1.027   1.889  0.0925  1.2142  0.1255
  430SOL     OW 1288   2.199   1.745   1.658  0.6102  0.1549  0.5870
  430SOL    HW1 1289   2.168   1.782   1.571 -1.3975 -0.2213  1.0909
  430SOL    HW2 1290   2.228   1.820   1.718  1.6930  0.4376 -0.2626
  431SOL     OW 1291   2.292   0.033   0.831 -0.7742 -0.7766 -0.7252
  431SOL    HW1 1292   2.222  -0.002   0.770 -1.5187 -1.5836  0.5440
  431SOL    HW2 1293   2.249   0.067   0.915  0.2277  0.1718 -0.5772
  432SOL     OW 1294   2.101   1.071   1.607  0.4749  0.0158  0.6606
  432SOL    HW1 1295   2.058   0.981   1.597 -1.1318  0.8085  0.0021
  432SOL    HW2 1296   2.186   1.062   1.658 -1.1076 -1.5258  3.2849
  433SOL     OW 1297   2.158   1.670   0.681 -0.4183 -0.4596  0.5510
  433SOL    HW1 1298   2.171   1.751   0.737  0.0435 -0.3294  0.2657
  433SOL    HW2 1299   2.166   1.588   0.737 -0.6335 -0.3146  0.7935
  434SOL     OW 1300   1.629   1.260   0.478 -0.1987  0.5066  0.0775
  434SOL    HW1 1301   1.654   1.177   0.428  0.2333  0.6465  0.0519
  434SOL    HW2 1302   1.550   1.242   0.536 -1.1534  0.5326 -1.1717
  435SOL     OW 1303   1.908   1.542   1.508 -0.5823  0.0483  0.7041
  435SOL    HW1 1304   1.879   1.588   1.591 -2.0907  0.1051  0.1693
  435SOL    HW2 1305   1.924   1.445   1.527 -0.5242  0.1401  1.1357
  436SOL     OW 1306   1.948   0.192   0.081  0.1873  0.7937 -0.5636
  436SOL    HW1 1307   1.988   0.190  -0.011  0.5713  2.4357 -0.4708
  436SOL    HW2 1308   1.969   0.280   0.124 -0.6774  0.3633  0.7943
  437SOL     OW 1309   1.950   0.091   0.359 -0.3675 -0.5265  0.4893
  437SOL    HW1 1310   1.926   0.112   0.264 -0.6669 -0.4119  0.5873
  437SOL    HW2 1311   2.048   0.104   0.373 -0.6273  1.5711  0.7226
  438SOL     OW 1312   0.200   0.507   1.598 -0.4344 -0.6785  0.5380
  438SOL    HW1 1313   0.116   0.555   1.573 -0.2729 -0.7302 -0.1168
  438SOL    HW2 1314   0.205   0.499   1.698 -1.2187 -0.6926  0.5852
  439SOL     OW 1315   2.267   1.575   1.200 -0.8802 -0.2757  0.4401
  439SOL    HW1 1316   2.303   1.484   1.222  0.5292  0.5585  1.7407
  439SOL    HW2 1317   2.198   1.600   1.267  1.0686  0.9055  2.1258
  440SOL     OW 1318   2.440   0.625   0.689 -0.3078  0.4781 -0.3368
  440SOL    HW1 1319   2.479   0.533   0.686 -1.3521 -0.0126  0.7135
  440SOL    HW2 1320   2.498   0.683   0.747 -0.3752  0.1286  0.0821
  441SOL     OW 1321   2.076   1.612   1.858  0.1297 -0.3808  0.1682
  441SOL    HW1 1322   2.133   1.639   1.781 -0.2993  0.7686  0.2417
  441SOL    HW2 1323   2.134   1.575   1.931  0.7342  0.3601  0.0669
  442SOL     OW 1324   1.386   0.990   0.860 -0.2132 -0.0563  0.1124
  442SOL    HW1 1325   1.391   1.090   0.854  1.4738 -0.1691 -0.9426
  442SOL    HW2 1326   1.291   0.961   0.847 -0.6292  1.3636 -0.2113
  443SOL     OW 1327   2.358   0.933   2.044 -0.8875 -0.0002 -0.1237
  443SOL    HW1 1328   2.362   0.837   2.071  2.3464 -0.4940 -1.9559
  443SOL    HW2 1329   2.417   0.987   2.104 -3.5923  1.2043  1.6710
  444SOL     OW 1330   2.134   0.354   0.513  0.1642 -0.3635  0.1691
  444SOL    HW1 1331   2.151   0.280   0.448 -0.9175 -0.9865  0.5604
  444SOL    HW2 1332   2.145   0.442   0.468  0.6356 -0.7745 -0.5293
  445SOL     OW 1333   2.455   0.612   1.540 -0.1025  0.5432  1.0446
  445SOL    HW1 1334   2.379   0.675   1.556  1.0674  1.7283  2.1084
  445SOL    HW2 1335   2.470   0.603   1.441 -1.0088  1.0369  0.8463
  446SOL     OW 1336   1.546   1.525   0.034 -0.2561  0.5317 -0.4121
  446SOL    HW1 1337   1.484   1.582   0.087 -0.3575 -0.0364  0.0915
  446SOL    HW2 1338   1.528   1.428   0.053  2.1433  0.3378  1.3730
  447SOL     OW 1339   2.221   0.496   1.902 -0.6402 -0.0111 -0.0189
  447SOL    HW1 1340   2.256   0.496   1.996 -0.5238 -1.5120 -0.0264
  447SOL    HW2 1341   2.158   0.572   1.889  1.1631  1.6712  0.5536
  448SOL     OW 1342   2.116   1.783   2.382  0.7156 -0.3281  0.1900
  448SOL    HW1 1343   2.183   1.736   2.325 -1.0674 -1.1201 -1.3748
  448SOL    HW2 1344   2.116   1.880   2.360  2.8085  0.1030  1.7836
  449SOL     OW 1345   2.119   1.714   0.174 -0.0217  0.4595 -0.1150
  449SOL    HW1 1346   2.102   1.734   0.077 -0.5682 -2.4175 -0.7014
  449SOL    HW2 1347   2.055   1.644   0.205  0.9730  0.4141  1.9919
  450SOL     OW 1348   1.699   1.504   1.869  0.2584 -0.1381  0.0032
  450SOL    HW1 1349   1.763   1.428   1.878  0.5029  0.0739  0.0710
  450SOL    HW2 1350   1.629   1.481   1.801 -0.8776 -1.2646  1.4851
  451SOL     OW 1351   0.232   0.309   0.232  0.5791 -0.0129  0.1273
  451SOL    HW1 1352   0.152   0.362   0.262 -0.6222 -1.1639 -0.9071
  451SOL    HW2 1353   0.260   0.339   0.141  1.5550  0.6063  0.6168
  452SOL     OW 1354   1.991   0.423   0.256  0.5459  0.4048  0.0443
  452SOL    HW1 1355   2.073   0.471   0.286 -0.0460  1.6798 -0.3121
  452SOL    HW2 1356   1.935   0.400   0.336  2.5294 -3.1023  0.6515
  453SOL     OW 1357   0.355   0.087   1.921 -0.4518  0.6591  0.0881
  453SOL    HW1 1358   0.357   0.043   1.832  0.9037 -0.0195  0.4317
  453SOL    HW2 1359   0.268   0.067   1.966 -2.1144  2.8008 -1.9083
  454SOL     OW 1360   2.377   0.670   2.171  0.5080  0.7849 -0.1224
  454SOL    HW1 1361   2.449   0.617   2.125 -1.0384 -0.8486 -0.7322
  454SOL    HW2 1362   2.353   0.626   2.257  1.2445  2.1789  0.8525
  455SOL     OW 1363   2.190   1.546   2.100  0.4071 -0.2005  0.0174
  455SOL    HW1 1364   2.228   1.636   2.124  1.5103 -0.8286  0.6900
  455SOL    HW2 1365   2.227   1.476   2.161  1.0871 -1.4247 -1.7303
  456SOL     OW 1366   2.237   0.537   2.381  0.2408 -0.5185  0.0593
  456SOL    HW1 1367   2.212   0.622   2.427 -0.6520  0.0776 -1.4632
  456SOL    HW2 1368   2.224   0.460   2.445 -0.1378  0.3469  1.0590
  457SOL     OW 1369   2.399   2.092   1.516 -0.0596 -0.1193  0.0361
  457SOL    HW1 1370   2.314   2.143   1.528  0.0442 -0.1074  0.7576
  457SOL    HW2 1371   2.391   2.032   1.436 -0.7099 -0.0554  0.0480
  458SOL     OW 1372   0.207   0.016   0.237 -0.0262 -0.3440 -0.0516
  458SOL    HW1 1373   0.149   0.031   0.317 -2.3627 -1.0917 -1.5145
  458SOL    HW2 1374   0.215   0.101   0.185  1.6088  0.1787  0.9827
  459SOL     OW 1375   0.399   2.130   2.272 -0.1565  0.1524 -0.4174
  459SOL    HW1 1376   0.402   2.074   2.188 -0.0158 -0.7228  0.1562
  459SOL    HW2 1377   0.474   2.196   2.270  1.7717 -1.8843  0.3673
  460SOL     OW 1378   1.968   0.900   2.370  0.4291 -0.6155 -0.0202
  460SOL    HW1 1379   1.978   0.974   2.302  2.5455 -1.7984 -1.1131
  460SOL    HW2 1380   1.926   0.820   2.326 -2.0203 -0.1012  1.2003
  461SOL     OW 1381   0.105   0.515   2.124 -0.1795 -0.4830 -0.1413
  461SOL    HW1 1382   0.101   0.455   2.204  1.3142  0.1880  0.4860
  461SOL    HW2 1383   0.160   0.596   2.147  0.0631 -0.1612 -1.7767
  462SOL     OW 1384   1.906   1.107   0.034 -0.4036 -0.6343  0.8650
  462SOL    HW1 1385   1.937   1.182  -0.023 -2.0215  1.0050  2.0000
  462SOL    HW2 1386   1.931   1.020  -0.008 -0.5557  0.4843 -1.7504
  463SOL     OW 1387   1.937   1.405   2.191  0.3255  0.2539 -0.3566
  463SOL    HW1 1388   1.956   1.396   2.093 -1.3050 -0.5602 -0.6320
  463SOL    HW2 1389   1.907   1.499   2.210 -0.5236  0.0978 -0.8740
  464SOL     OW 1390   0.534   0.944   0.204  0.8333  0.1726 -0.3896
  464SOL    HW1 1391   0.535   0.875   0.131 -1.1161  2.1710 -2.4547
  464SOL    HW2 1392   0.439   0.965   0.228  1.3978  1.7749  0.5303
  465SOL     OW 1393   0.242   0.143   2.309  0.3306  0.2895  0.0173
  465SOL    HW1 1394   0.341   0.137   2.325  0.3887 -1.6385 -0.8159
  465SOL    HW2 1395   0.218   0.088   2.230 -1.1985  2.1840 -0.9202
  466SOL     OW 1396   2.223   1.409   2.496 -0.3374 -0.4855  0.3327
  466SOL    HW1 1397   2.239   1.311   2.488 -1.1743 -0.5332 -0.9184
  466SOL    HW2 1398   2.125   1.426   2.509 -0.0695  0.1322  1.7389
  467SOL     OW 1399   1.949   1.354   2.439 -0.3872  0.1713 -0.1547
  467SOL    HW1 1400   1.968   1.369   2.342  1.4058  2.6756  0.4758
  467SOL    HW2 1401   1.874   1.413   2.469 -0.1173  0.3260  0.2298
  468SOL     OW 1402   2.171   0.375   2.169 -0.2206 -0.5631 -0.4129
  468SOL    HW1 1403   2.193   0.424   2.253 -2.0534  0.4044 -0.4537
  468SOL    HW2 1404   2.095   0.420   2.123  1.4560 -0.3650 -3.2240
  469SOL     OW 1405   2.460   0.082   2.392  0.2821  0.6415 -0.3141
  469SOL    HW1 1406   2.418   0.115   2.307  0.7721  1.5459 -0.2252
  469SOL    HW2 1407   2.558   0.070   2.377 -0.2442 -4.2488 -1.3875
  470SOL     OW 1408   0.307   0.676   2.289 -0.3145 -0.0239 -0.2946
  470SOL    HW1 1409   0.313   0.775   2.291  0.2807  0.0428 -2.7995
  470SOL    HW2 1410   0.391   0.637   2.252 -0.0692 -1.5776  1.7000
  471SOL     OW 1411   2.423   0.339   0.030 -0.1504  0.3529 -0.2408
  471SOL    HW1 1412   2.413   0.241   0.012 -0.2672  0.3603 -0.2164
  471SOL    HW2 1413   2.495   0.376  -0.029 -0.1598  0.2678 -0.3066
  472SOL     OW 1414   2.076   1.121   2.199  0.3147  0.3584  0.2619
  472SOL    HW1 1415   2.136   1.126   2.279 -0.1342  0.6062  0.5893
  472SOL    HW2 1416   2.119   1.169   2.123  0.4564  0.6952  0.5469
  473SOL     OW 1417   1.942   1.986   1.156  0.4839 -0.1229 -0.2332
  473SOL    HW1 1418   1.987   2.048   1.220  0.9464  1.9458 -2.3931
  473SOL    HW2 1419   2.008   1.920   1.120  1.0664  0.8498 -1.0029
  474SOL     OW 1420   1.599   2.010   0.488 -0.0407 -0.3162  0.5562
  474SOL    HW1 1421   1.660   1.975   0.417 -0.7853  1.3040 -0.9701
  474SOL    HW2 1422   1.506   1.974   0.473  0.2522 -1.9424  2.2472
  475SOL     OW 1423   2.383   2.169   1.214  0.1996 -0.1582 -0.1561
  475SOL    HW1 1424   2.413   2.078   1.187  0.8584  0.0640 -0.1925
  475SOL    HW2 1425   2.434   2.238   1.162 -1.3848  0.2231 -1.2545
  476SOL     OW 1426   1.825   2.326   0.795  0.2276 -0.4179 -0.7218
  476SOL    HW1 1427   1.817   2.275   0.880  0.1155 -0.7341 -0.9210
  476SOL    HW2 1428   1.767   2.408   0.800 -0.0477 -0.6147 -0.6242
  477SOL     OW 1429   2.001   2.213   1.697  0.1972 -0.0540  0.6741
  477SOL    HW1 1430   1.977   2.117   1.688  1.9321 -0.6634  2.0512
  477SOL    HW2 1431   1.980   2.260   1.611 -0.2952 -1.7333 -0.1758
  478SOL     OW 1432   1.964   0.206   0.648  0.5242  0.1254  0.0822
  478SOL    HW1 1433   2.042   0.247   0.600 -0.4982  1.2874 -0.6634
  478SOL    HW2 1434   1.881   0.256   0.623 -0.5893 -1.6365  0.1696
  479SOL     OW 1435   0.444   2.380   0.187 -0.3085 -0.1455 -0.2924
  479SOL    HW1 1436   0.410   2.286   0.183 -1.7204  0.3746 -1.3758
  479SOL    HW2 1437   0.367   2.443   0.192  0.5548  1.0194 -1.0938
  480SOL     OW 1438   2.455   2.080   0.811  0.1890  0.3547 -0.3075
  480SOL    HW1 1439   2.375   2.022   0.822 -0.4201  0.5943 -2.8288
  480SOL    HW2 1440   2.532   2.024   0.779  0.0105  0.6715 -1.3206
  481SOL     OW 1441   1.830   1.547   1.126 -0.1753 -0.4960 -0.1031
  481SOL    HW1 1442   1.897   1.475   1.143 -0.8816 -0.8834  1.1179
  481SOL    HW2 1443   1.757   1.542   1.194  0.1850  1.9020  0.5521
  482SOL     OW 1444   2.379   1.713   0.240  0.0135  0.0364  0.0700
  482SOL    HW1 1445   2.280   1.704   0.223  0.0933 -1.2944  0.1489
  482SOL    HW2 1446   2.410   1.804   0.212 -1.4535  0.9193  1.1548
  483SOL     OW 1447   0.042   1.917   0.502  1.1542 -0.5026 -0.2262
  483SOL    HW1 1448  -0.029   1.986   0.508  1.0900 -0.4645 -1.1989
  483SOL    HW2 1449   0.000   1.826   0.501  1.2947 -0.6645  2.2765
  484SOL     OW 1450   2.305   2.054   0.479  0.3274  0.1771 -0.2297
  484SOL    HW1 1451   2.227   2.029   0.422 -0.6779  1.4493  0.5295
  484SOL    HW2 1452   2.273   2.093   0.565  1.7753 -3.0460  1.9680
  485SOL     OW 1453   2.207   0.074   1.561  0.2145 -0.6506  0.2934
  485SOL    HW1 1454   2.183   0.170   1.568  0.5548 -0.6040  0.8813
  485SOL    HW2 1455   2.293   0.057   1.609  0.4677 -1.1364 -0.3102
  486SOL     OW 1456   2.446   1.912   1.137 -0.0137 -0.2696 -0.2561
  486SOL    HW1 1457   2.542   1.933   1.154  0.2856  0.8828 -2.8457
  486SOL    HW2 1458   2.438   1.857   1.054 -1.5808 -0.3162 -0.1097
  487SOL     OW 1459   2.113   2.031   2.255  0.7302 -0.3631 -0.2080
  487SOL    HW1 1460   2.166   2.081   2.186  0.2225  0.7886  0.1984
  487SOL    HW2 1461   2.047   2.094   2.296 -0.1521 -1.4779  0.1053
  488SOL     OW 1462   2.042   2.453   0.690 -0.2078  0.0410  0.1901
  488SOL    HW1 1463   2.012   2.548   0.680 -0.0350  0.0258 -0.5174
  488SOL    HW2 1464   1.967   2.399   0.729 -0.8864  0.1319 -0.9569
  489SOL     OW 1465   2.298   1.512   1.568 -0.0760  0.0195 -0.4122
  489SOL    HW1 1466   2.264   1.600   1.600 -0.8402 -0.7797  1.0734
  489SOL    HW2 1467   2.224   1.462   1.522 -0.2758 -0.7295  0.6906
  490SOL     OW 1468   2.102   2.182   1.296  0.0618 -0.2722  0.0802
  490SOL    HW1 1469   2.092   2.278   1.319 -0.5522 -0.6764  1.5942
  490SOL    HW2 1470   2.188   2.168   1.246  0.1384  1.0445 -0.1847
  491SOL     OW 1471   2.233   1.896   0.855  0.2206  0.1248 -0.1161
  491SOL    HW1 1472   2.171   1.964   0.815 -0.8290 -1.0465 -0.5281
  491SOL    HW2 1473   2.214   1.887   0.953 -0.0265  0.0026 -0.1765
  492SOL     OW 1474   1.804   2.171   1.041  0.3582 -0.3245 -0.5998
  492SOL    HW1 1475   1.851   2.087   1.068  0.3372 -0.0850  0.2197
  492SOL    HW2 1476   1.867   2.248   1.050  0.0285 -0.0975 -0.1784
  493SOL     OW 1477   1.546   2.191   0.930 -0.2878  0.0672  0.1250
  493SOL    HW1 1478   1.513   2.101   0.901 -0.0747 -0.1882  0.6636
  493SOL    HW2 1479   1.638   2.183   0.967 -0.5732  0.3704  0.9266
  494SOL     OW 1480   2.268   2.515   1.930  0.9464 -0.1480  0.1279
  494SOL    HW1 1481   2.285   2.416   1.922  1.4337 -0.2358  1.7595
  494SOL    HW2 1482   2.333   2.565   1.873  1.6627 -0.7436  0.3928
  495SOL     OW 1483   0.626   1.879   0.648  0.9052 -0.1661  0.3658
  495SOL    HW1 1484   0.562   1.862   0.573  1.9583  1.8071 -1.0518
  495SOL    HW2 1485   0.716   1.901   0.611  1.6493  0.1526  2.2518
  496SOL     OW 1486   2.004   2.003   0.754 -0.2875 -0.2272 -0.1883
  496SOL    HW1 1487   1.964   1.919   0.719 -0.9397  0.8556 -2.2693
  496SOL    HW2 1488   1.966   2.081   0.704  0.4034  1.3073  1.5480
  497SOL     OW 1489   1.958   2.163   0.130 -0.2144 -0.2699 -0.2613
  497SOL    HW1 1490   1.879   2.208   0.171  0.5014  0.9954 -0.1988
  497SOL    HW2 1491   1.963   2.186   0.033  1.5980  2.0880  0.2743
  498SOL     OW 1492   1.789   1.927   0.311  0.5389  0.2185  0.5282
  498SOL    HW1 1493   1.742   1.961   0.229 -0.0738 -1.2516  0.2352
  498SOL    HW2 1494   1.869   1.985   0.330 -0.3449  1.6773 -0.0259
  499SOL     OW 1495   2.079   2.273   0.501 -0.1940 -0.2057  0.0386
  499SOL    HW1 1496   2.073   2.349   0.566  0.5457  0.2764 -0.4451
  499SOL    HW2 1497   2.011   2.204   0.524 -0.4204  0.2932  0.8935
  500SOL     OW 1498   2.125   0.246   1.280  0.3884 -0.1277  0.4779
  500SOL    HW1 1499   2.027   0.263   1.293  0.2918  1.5168 -1.8296
  500SOL    HW2 1500   2.139   0.163   1.227  0.1700  0.1912 -0.0862
  501SOL     OW 1501   1.519   0.226   0.258 -0.5604 -0.1968 -0.0436
  501SOL    HW1 1502   1.528   0.164   0.335 -0.8146 -0.3485 -0.1348
  501SOL    HW2 1503   1.566   0.312   0.278 -0.0233 -0.4995 -0.0052
  502SOL     OW 1504   0.043   1.518   1.951  0.0951  0.7405 -0.3604
  502SOL    HW1 1505   0.017   1.615   1.951  1.2067  1.0516 -0.6475
  502SOL    HW2 1506   0.138   1.509   1.921 -0.2201 -0.5104 -1.0429
  503SOL     OW 1507   2.489   1.782   2.023 -0.2015  0.4019 -0.0142
  503SOL    HW1 1508   2.419   1.818   1.961 -1.0654  0.6416  1.0623
  503SOL    HW2 1509   2.455   1.786   2.117  1.0048 -0.1273  0.4635
  504SOL     OW 1510   2.091   1.953   0.314 -0.6464 -0.1968 -1.0395
  504SOL    HW1 1511   2.106   1.868   0.263  0.3712 -1.3514  1.0708
  504SOL    HW2 1512   2.078   2.028   0.249  0.5544 -1.5646 -2.9887
  505SOL     OW 1513   2.275   2.124   2.032  0.0702  0.1919  0.8029
  505SOL    HW1 1514   2.192   2.175   2.013  0.5165  0.2732 -1.0643
  505SOL    HW2 1515   2.341   2.184   2.078 -0.3716  0.5140  1.0260
  506SOL     OW 1516   2.134   2.359   2.245 -0.7248 -0.8346  0.0765
  506SOL    HW1 1517   2.227   2.337   2.274 -1.1891 -0.8397  1.6843
  506SOL    HW2 1518   2.124   2.344   2.147  0.6606 -1.8832  0.0776
  507SOL     OW 1519   2.367   1.734   2.282  0.3595  0.3937  0.1281
  507SOL    HW1 1520   2.391   1.814   2.336 -1.1206  1.0118 -0.1066
  507SOL    HW2 1521   2.400   1.651   2.328 -1.9169  0.7917  2.6478
  508SOL     OW 1522   2.048   2.267   1.966 -0.6192  0.3441  0.2821
  508SOL    HW1 1523   2.037   2.251   1.868 -1.1179 -0.1123  0.4082
  508SOL    HW2 1524   1.959   2.271   2.009 -0.4177  0.9804  0.6596
  509SOL     OW 1525   2.318   1.920   1.848 -0.3407  0.1423  0.2343
  509SOL    HW1 1526   2.301   1.988   1.920  2.4237  1.8231 -0.5332
  509SOL    HW2 1527   2.394   1.951   1.791 -2.4821 -1.0061 -3.6011
  510SOL     OW 1528   0.111   0.036   2.111 -0.0572  0.1749 -0.1952
  510SOL    HW1 1529   0.024   0.084   2.119  0.1499  0.6476 -0.7163
  510SOL    HW2 1530   0.094  -0.063   2.107 -0.5882  0.2764 -0.5435
   2.50000   2.50000   2.50000
