integrator              = md
nsteps                  = 5000
dt                      = 0.002

nstxout-compressed      = 500
nstenergy               = 100
nstlog                  = 100

continuation            = no
constraint_algorithm    = lincs
constraints             = h-bonds
lincs_iter              = 1
lincs_order             = 4

cutoff-scheme           = Verlet
nstlist                 = 20
rlist                   = 0.9
coulombtype             = PME
rcoulomb                = 0.9
vdwtype                 = Cut-off
rvdw                    = 0.9
pbc                     = xyz

tcoupl                  = V-rescale
tc-grps                 = System
tau_t                   = 0.1
ref_t                   = 300

pcoupl                  = no

gen_vel                 = yes
gen_temp                = 300
gen_seed                = -1
