L3P1 short trajectory practice
 1650
    1Li+     Li    1   4.378   4.256   4.859
    2Li+     Li    2   0.823   5.182   5.345
    3Li+     Li    3   3.630   1.350   1.778
    4Li+     Li    4   3.393   1.234   0.591
    5Li+     Li    5   4.079   0.746   5.525
    6Li+     Li    6   2.156   1.362   2.457
    7Li+     Li    7   2.961   5.389   5.755
    8Li+     Li    8   3.121   5.767   1.040
    9Li+     Li    9   1.873   3.973   4.042
   10Li+     Li   10   5.778   4.468   4.749
   11Li+     Li   11   5.352   2.739   4.375
   12Li+     Li   12   5.003   2.196   5.193
   13Li+     Li   13   1.533   5.538   3.353
   14Li+     Li   14   3.760   1.348   2.511
   15Li+     Li   15   1.616   5.544   4.211
   16Li+     Li   16   3.590   5.128   3.991
   17Li+     Li   17   0.823   1.787   4.008
   18Li+     Li   18   4.820   5.005   4.595
   19Li+     Li   19   0.561   3.465   1.549
   20Li+     Li   20   5.144   2.088   1.088
   21Li+     Li   21   1.446   1.363   0.991
   22Li+     Li   22   5.441   5.476   4.628
   23Li+     Li   23   3.433   1.320   2.862
   24Li+     Li   24   4.609   4.932   5.123
   25Li+     Li   25   2.014   4.146   3.667
   26Li+     Li   26   4.131   0.282   1.733
   27Li+     Li   27   4.068   5.397   2.486
   28Li+     Li   28   1.080   2.852   0.133
   29Li+     Li   29   1.849   1.347   4.212
   30Li+     Li   30   5.794   2.889   0.984
   31Li+     Li   31   5.272   2.700   4.834
   32Li+     Li   32   1.289   2.030   0.967
   33Li+     Li   33   0.763   2.383   3.500
   34Li+     Li   34   1.345   5.558   5.120
   35Li+     Li   35   5.386   3.870   1.323
   36Li+     Li   36   5.000   2.026   4.818
   37Li+     Li   37   1.796   5.724   1.808
   38Li+     Li   38   0.885   4.957   1.501
   39Li+     Li   39   1.344   2.306   5.414
   40Li+     Li   40   0.346   1.148   0.591
   41Li+     Li   41   3.026   5.399   4.670
   42Li+     Li   42   5.329   2.358   5.068
   43Li+     Li   43   0.715   1.387   2.617
   44Li+     Li   44   2.883   5.127   2.093
   45Li+     Li   45   3.958   3.903   3.652
   46Li+     Li   46   4.431   5.692   0.912
   47Li+     Li   47   0.767   0.983   3.022
   48Li+     Li   48   1.930   1.275   2.909
   49Li+     Li   49   4.145   4.922   4.116
   50Li+     Li   50   4.355   5.323   3.176
   51Li+     Li   51   3.776   4.089   5.213
   52Li+     Li   52   3.488   0.683   1.643
   53Li+     Li   53   5.591   2.064   2.356
   54Li+     Li   54   0.840   4.010   1.416
   55Li+     Li   55   1.033   4.342   1.241
   56Li+     Li   56   1.974   3.465   2.216
   57Li+     Li   57   1.740   0.383   2.902
   58Li+     Li   58   1.655   4.103   1.178
   59Li+     Li   59   2.711   5.397   4.364
   60Li+     Li   60   2.225   0.531   2.677
   61Li+     Li   61   4.078   2.946   5.001
   62Li+     Li   62   3.677   5.764   2.262
   63Li+     Li   63   2.290   1.772   2.879
   64Li+     Li   64   3.018   4.209   4.854
   65Li+     Li   65   5.798   1.169   1.835
   66Li+     Li   66   4.308   3.608   3.467
   67Li+     Li   67   5.492   4.129   2.386
   68Li+     Li   68   5.631   3.610   1.777
   69Li+     Li   69   2.181   5.253   1.174
   70Li+     Li   70   3.612   5.327   5.811
   71Li+     Li   71   0.392   0.828   4.526
   72Li+     Li   72   0.743   5.569   3.281
   73Li+     Li   73   4.405   4.147   1.038
   74Li+     Li   74   1.753   3.500   2.489
   75Li+     Li   75   4.548   1.351   3.215
   76c3c     N4   76   2.449   1.334   1.049
   76c3c     C1   77   2.373   1.236   0.968
   76c3c     C1   78   2.557   1.393   0.968
   76c3c     C2   79   2.442   1.224   0.832
   76c3c     C2   80   2.558   1.323   0.832
   76c3c     C1   81   2.358   1.441   1.091
   76c3c     C1   82   2.505   1.269   1.169
   76c3c     H1   83   2.269   1.265   0.954
   76c3c     H1   84   2.365   1.138   1.015
   76c3c     H1   85   2.546   1.501   0.954
   76c3c     H1   86   2.655   1.386   1.015
   76c3c     HC   87   2.372   1.248   0.752
   76c3c     HC   88   2.478   1.123   0.815
   76c3c     HC   89   2.546   1.397   0.752
   76c3c     HC   90   2.653   1.271   0.815
   76c3c     H1   91   2.275   1.403   1.150
   76c3c     H1   92   2.409   1.517   1.150
   76c3c     H1   93   2.316   1.491   1.004
   76c3c     H1   94   2.555   1.343   1.231
   76c3c     H1   95   2.424   1.230   1.231
   76c3c     C2   96   2.603   1.154   1.136
   76c3c     HC   97   2.687   1.188   1.076
   76c3c     HC   98   2.556   1.075   1.076
   76c3c     CT   99   2.658   1.089   1.261
   76c3c     HC  100   2.577   1.047   1.321
   76c3c     HC  101   2.712   1.162   1.321
   76c3c     HC  102   2.726   1.009   1.234
   77c3c     N4  103   3.801   2.226   5.094
   77c3c     C1  104   3.775   2.371   5.092
   77c3c     C1  105   3.946   2.201   5.097
   77c3c     C2  106   3.910   2.443   5.082
   77c3c     C2  107   4.018   2.336   5.086
   77c3c     C1  108   3.741   2.170   5.216
   77c3c     C1  109   3.740   2.161   4.977
   77c3c     H1  110   3.721   2.406   5.180
   77c3c     H1  111   3.710   2.402   5.010
   77c3c     H1  112   3.978   2.149   5.188
   77c3c     H1  113   3.980   2.134   5.019
   77c3c     HC  114   3.921   2.512   5.166
   77c3c     HC  115   3.917   2.501   4.990
   77c3c     HC  116   4.084   2.350   5.171
   77c3c     HC  117   4.079   2.339   4.996
   77c3c     H1  118   3.633   2.186   5.220
   77c3c     H1  119   3.758   2.062   5.224
   77c3c     H1  120   3.784   2.215   5.305
   77c3c     H1  121   3.755   2.053   4.982
   77c3c     H1  122   3.632   2.175   4.978
   77c3c     C2  123   3.797   2.214   4.842
   77c3c     HC  124   3.905   2.199   4.834
   77c3c     HC  125   3.782   2.321   4.830
   77c3c     CT  126   3.732   2.145   4.724
   77c3c     HC  127   3.624   2.163   4.723
   77c3c     HC  128   3.750   2.038   4.727
   77c3c     HC  129   3.774   2.184   4.631
   78c3c     N4  130   1.795   2.774   4.006
   78c3c     C1  131   1.657   2.796   4.052
   78c3c     C1  132   1.886   2.764   4.122
   78c3c     C2  133   1.660   2.812   4.204
   78c3c     C2  134   1.805   2.792   4.248
   78c3c     C1  135   1.800   2.647   3.932
   78c3c     C1  136   1.838   2.882   3.916
   78c3c     H1  137   1.590   2.714   4.025
   78c3c     H1  138   1.609   2.882   4.006
   78c3c     H1  139   1.934   2.666   4.129
   78c3c     H1  140   1.971   2.832   4.115
   78c3c     HC  141   1.595   2.738   4.251
   78c3c     HC  142   1.624   2.911   4.233
   78c3c     HC  143   1.812   2.708   4.317
   78c3c     HC  144   1.842   2.881   4.299
   78c3c     H1  145   1.733   2.647   3.846
   78c3c     H1  146   1.900   2.624   3.896
   78c3c     H1  147   1.769   2.564   3.995
   78c3c     H1  148   1.938   2.862   3.878
   78c3c     H1  149   1.773   2.885   3.828
   78c3c     C2  150   1.836   3.021   3.985
   78c3c     HC  151   1.902   3.025   4.072
   78c3c     HC  152   1.737   3.048   4.022
   78c3c     CT  153   1.880   3.131   3.890
   78c3c     HC  154   1.814   3.136   3.804
   78c3c     HC  155   1.982   3.112   3.855
   78c3c     HC  156   1.878   3.227   3.942
   79c3c     N4  157   4.199   1.390   4.995
   79c3c     C1  158   4.183   1.442   5.132
   79c3c     C1  159   4.319   1.449   4.932
   79c3c     C2  160   4.291   1.548   5.155
   79c3c     C2  161   4.377   1.552   5.029
   79c3c     C1  162   4.217   1.244   5.003
   79c3c     C1  163   4.079   1.419   4.914
   79c3c     H1  164   4.190   1.365   5.208
   79c3c     H1  165   4.084   1.484   5.150
   79c3c     H1  166   4.395   1.374   4.908
   79c3c     H1  167   4.299   1.494   4.835
   79c3c     HC  168   4.351   1.521   5.242
   79c3c     HC  169   4.247   1.646   5.174
   79c3c     HC  170   4.480   1.527   5.052
   79c3c     HC  171   4.376   1.652   4.985
   79c3c     H1  172   4.132   1.195   5.049
   79c3c     H1  173   4.231   1.199   4.904
   79c3c     H1  174   4.305   1.219   5.062
   79c3c     H1  175   4.090   1.374   4.815
   79c3c     H1  176   3.992   1.370   4.958
   79c3c     C2  177   4.051   1.571   4.900
   79c3c     HC  178   4.134   1.623   4.853
   79c3c     HC  179   4.037   1.619   4.996
   79c3c     CT  180   3.928   1.597   4.816
   79c3c     HC  181   3.840   1.551   4.862
   79c3c     HC  182   3.940   1.556   4.716
   79c3c     HC  183   3.911   1.704   4.808
   80c3c     N4  184   3.426   5.571   4.534
   80c3c     C1  185   3.354   5.626   4.417
   80c3c     C1  186   3.563   5.627   4.539
   80c3c     C2  187   3.452   5.712   4.337
   80c3c     C2  188   3.584   5.713   4.414
   80c3c     C1  189   3.355   5.612   4.655
   80c3c     C1  190   3.431   5.424   4.527
   80c3c     H1  191   3.268   5.686   4.445
   80c3c     H1  192   3.311   5.549   4.352
   80c3c     H1  193   3.581   5.687   4.628
   80c3c     H1  194   3.641   5.551   4.546
   80c3c     HC  195   3.413   5.813   4.327
   80c3c     HC  196   3.467   5.672   4.237
   80c3c     HC  197   3.611   5.814   4.443
   80c3c     HC  198   3.664   5.673   4.353
   80c3c     H1  199   3.252   5.576   4.657
   80c3c     H1  200   3.405   5.576   4.745
   80c3c     H1  201   3.351   5.720   4.663
   80c3c     H1  202   3.480   5.385   4.616
   80c3c     H1  203   3.330   5.383   4.529
   80c3c     C2  204   3.505   5.371   4.401
   80c3c     HC  205   3.608   5.406   4.397
   80c3c     HC  206   3.458   5.406   4.309
   80c3c     CT  207   3.507   5.219   4.398
   80c3c     HC  208   3.406   5.179   4.396
   80c3c     HC  209   3.559   5.180   4.485
   80c3c     HC  210   3.560   5.186   4.309
   81c3c     N4  211   3.320   3.034   5.041
   81c3c     C1  212   3.324   2.988   4.901
   81c3c     C1  213   3.374   2.929   5.130
   81c3c     C2  214   3.371   2.843   4.900
   81c3c     C2  215   3.402   2.805   5.044
   81c3c     C1  216   3.406   3.153   5.053
   81c3c     C1  217   3.183   3.070   5.080
   81c3c     H1  218   3.389   3.048   4.838
   81c3c     H1  219   3.228   2.997   4.850
   81c3c     H1  220   3.464   2.959   5.182
   81c3c     H1  221   3.306   2.904   5.212
   81c3c     HC  222   3.459   2.832   4.837
   81c3c     HC  223   3.294   2.777   4.859
   81c3c     HC  224   3.507   2.776   5.054
   81c3c     HC  225   3.341   2.721   5.076
   81c3c     H1  226   3.373   3.234   4.988
   81c3c     H1  227   3.409   3.191   5.155
   81c3c     H1  228   3.509   3.129   5.024
   81c3c     H1  229   3.183   3.110   5.182
   81c3c     H1  230   3.147   3.152   5.018
   81c3c     C2  231   3.084   2.951   5.071
   81c3c     HC  232   3.114   2.868   5.134
   81c3c     HC  233   3.079   2.910   4.970
   81c3c     CT  234   2.944   2.991   5.112
   81c3c     HC  235   2.907   3.070   5.047
   81c3c     HC  236   2.943   3.027   5.215
   81c3c     HC  237   2.878   2.906   5.105
   82c3c     N4  238   4.209   2.131   2.782
   82c3c     C1  239   4.091   2.086   2.705
   82c3c     C1  240   4.331   2.066   2.729
   82c3c     C2  241   4.137   1.978   2.607
   82c3c     C2  242   4.288   1.966   2.622
   82c3c     C1  243   4.223   2.276   2.764
   82c3c     C1  244   4.192   2.102   2.925
   82c3c     H1  245   4.042   2.167   2.651
   82c3c     H1  246   4.011   2.048   2.768
   82c3c     H1  247   4.402   2.137   2.687
   82c3c     H1  248   4.389   2.016   2.807
   82c3c     HC  249   4.111   2.007   2.505
   82c3c     HC  250   4.088   1.883   2.627
   82c3c     HC  251   4.338   1.988   2.528
   82c3c     HC  252   4.316   1.864   2.650
   82c3c     H1  253   4.135   2.330   2.799
   82c3c     H1  254   4.309   2.316   2.817
   82c3c     H1  255   4.235   2.302   2.659
   82c3c     H1  256   4.277   2.141   2.981
   82c3c     H1  257   4.105   2.155   2.964
   82c3c     C2  258   4.177   1.950   2.954
   82c3c     HC  259   4.263   1.893   2.920
   82c3c     HC  260   4.091   1.907   2.903
   82c3c     CT  261   4.160   1.923   3.102
   82c3c     HC  262   4.071   1.974   3.140
   82c3c     HC  263   4.246   1.959   3.158
   82c3c     HC  264   4.149   1.816   3.120
   83c3c     N4  265   3.695   1.131   1.317
   83c3c     C1  266   3.589   1.132   1.421
   83c3c     C1  267   3.728   0.991   1.282
   83c3c     C2  268   3.561   0.987   1.462
   83c3c     C2  269   3.649   0.898   1.374
   83c3c     C1  270   3.643   1.198   1.198
   83c3c     C1  271   3.814   1.201   1.365
   83c3c     H1  272   3.497   1.179   1.386
   83c3c     H1  273   3.616   1.192   1.508
   83c3c     H1  274   3.706   0.967   1.178
   83c3c     H1  275   3.835   0.969   1.289
   83c3c     HC  276   3.456   0.964   1.446
   83c3c     HC  277   3.584   0.972   1.567
   83c3c     HC  278   3.588   0.831   1.315
   83c3c     HC  279   3.716   0.838   1.435
   83c3c     H1  280   3.616   1.301   1.217
   83c3c     H1  281   3.717   1.199   1.117
   83c3c     H1  282   3.555   1.147   1.160
   83c3c     H1  283   3.890   1.204   1.286
   83c3c     H1  284   3.791   1.306   1.385
   83c3c     C2  285   3.877   1.137   1.492
   83c3c     HC  286   3.906   1.034   1.475
   83c3c     HC  287   3.806   1.134   1.575
   83c3c     CT  288   3.999   1.213   1.538
   83c3c     HC  289   3.974   1.317   1.562
   83c3c     HC  290   4.076   1.213   1.460
   83c3c     HC  291   4.041   1.166   1.627
   84c3c     N4  292   3.447   1.725   3.712
   84c3c     C1  293   3.303   1.697   3.693
   84c3c     C1  294   3.527   1.606   3.676
   84c3c     C2  295   3.289   1.550   3.653
   84c3c     C2  296   3.430   1.493   3.642
   84c3c     C1  297   3.485   1.836   3.623
   84c3c     C1  298   3.474   1.764   3.851
   84c3c     H1  299   3.257   1.761   3.617
   84c3c     H1  300   3.243   1.718   3.781
   84c3c     H1  301   3.594   1.624   3.592
   84c3c     H1  302   3.596   1.575   3.754
   84c3c     HC  303   3.237   1.543   3.557
   84c3c     HC  304   3.231   1.496   3.727
   84c3c     HC  305   3.449   1.456   3.541
   84c3c     HC  306   3.442   1.409   3.711
   84c3c     H1  307   3.429   1.927   3.644
   84c3c     H1  308   3.591   1.860   3.632
   84c3c     H1  309   3.467   1.810   3.519
   84c3c     H1  310   3.579   1.790   3.863
   84c3c     H1  311   3.419   1.856   3.876
   84c3c     C2  312   3.437   1.654   3.954
   84c3c     HC  313   3.491   1.561   3.936
   84c3c     HC  314   3.331   1.626   3.948
   84c3c     CT  315   3.465   1.698   4.096
   84c3c     HC  316   3.407   1.786   4.121
   84c3c     HC  317   3.571   1.720   4.108
   84c3c     HC  318   3.438   1.618   4.165
   85c3c     N4  319   0.729   3.076   1.248
   85c3c     C1  320   0.817   2.996   1.336
   85c3c     C1  321   0.613   2.994   1.206
   85c3c     C2  322   0.761   2.854   1.342
   85c3c     C2  323   0.633   2.853   1.260
   85c3c     C1  324   0.680   3.191   1.324
   85c3c     C1  325   0.804   3.124   1.131
   85c3c     H1  326   0.825   3.036   1.437
   85c3c     H1  327   0.921   2.994   1.304
   85c3c     H1  328   0.518   3.034   1.241
   85c3c     H1  329   0.600   2.992   1.098
   85c3c     HC  330   0.740   2.826   1.446
   85c3c     HC  331   0.833   2.782   1.303
   85c3c     HC  332   0.547   2.825   1.322
   85c3c     HC  333   0.640   2.780   1.179
   85c3c     H1  334   0.762   3.253   1.359
   85c3c     H1  335   0.613   3.253   1.264
   85c3c     H1  336   0.624   3.157   1.411
   85c3c     H1  337   0.741   3.187   1.069
   85c3c     H1  338   0.886   3.188   1.163
   85c3c     C2  339   0.861   3.008   1.044
   85c3c     HC  340   0.782   2.942   1.007
   85c3c     HC  341   0.928   2.944   1.100
   85c3c     CT  342   0.937   3.061   0.924
   85c3c     HC  343   1.021   3.122   0.956
   85c3c     HC  344   0.872   3.122   0.861
   85c3c     HC  345   0.975   2.978   0.865
   86c3c     N4  346   1.845   1.975   3.044
   86c3c     C1  347   1.880   1.973   2.901
   86c3c     C1  348   1.756   2.090   3.072
   86c3c     C2  349   1.820   2.098   2.835
   86c3c     C2  350   1.742   2.171   2.944
   86c3c     C1  351   1.774   1.852   3.077
   86c3c     C1  352   1.967   1.984   3.127
   86c3c     H1  353   1.844   1.884   2.850
   86c3c     H1  354   1.988   1.971   2.882
   86c3c     H1  355   1.658   2.059   3.109
   86c3c     H1  356   1.791   2.153   3.153
   86c3c     HC  357   1.754   2.069   2.753
   86c3c     HC  358   1.898   2.162   2.794
   86c3c     HC  359   1.636   2.179   2.917
   86c3c     HC  360   1.780   2.272   2.957
   86c3c     H1  361   1.834   1.763   3.057
   86c3c     H1  362   1.745   1.849   3.182
   86c3c     H1  363   1.682   1.844   3.019
   86c3c     H1  364   1.939   1.981   3.232
   86c3c     H1  365   2.030   1.896   3.111
   86c3c     C2  366   2.050   2.112   3.100
   86c3c     HC  367   1.993   2.203   3.119
   86c3c     HC  368   2.081   2.120   2.996
   86c3c     CT  369   2.174   2.117   3.186
   86c3c     HC  370   2.239   2.031   3.166
   86c3c     HC  371   2.147   2.117   3.291
   86c3c     HC  372   2.229   2.209   3.165
   87c3c     N4  373   1.167   1.831   2.621
   87c3c     C1  374   1.239   1.894   2.734
   87c3c     C1  375   1.173   1.684   2.633
   87c3c     C2  376   1.304   1.782   2.816
   87c3c     C2  377   1.263   1.650   2.752
   87c3c     C1  378   1.026   1.872   2.629
   87c3c     C1  379   1.223   1.875   2.493
   87c3c     H1  380   1.175   1.953   2.799
   87c3c     H1  381   1.314   1.966   2.703
   87c3c     H1  382   1.075   1.639   2.647
   87c3c     H1  383   1.210   1.636   2.543
   87c3c     HC  384   1.270   1.787   2.919
   87c3c     HC  385   1.413   1.793   2.816
   87c3c     HC  386   1.209   1.589   2.824
   87c3c     HC  387   1.351   1.594   2.720
   87c3c     H1  388   1.015   1.981   2.622
   87c3c     H1  389   0.967   1.829   2.548
   87c3c     H1  390   0.982   1.842   2.723
   87c3c     H1  391   1.166   1.834   2.410
   87c3c     H1  392   1.213   1.983   2.483
   87c3c     C2  393   1.372   1.837   2.476
   87c3c     HC  394   1.388   1.729   2.482
   87c3c     HC  395   1.435   1.879   2.554
   87c3c     CT  396   1.427   1.883   2.343
   87c3c     HC  397   1.420   1.992   2.335
   87c3c     HC  398   1.372   1.838   2.260
   87c3c     HC  399   1.532   1.855   2.334
   88c3c     N4  400   2.770   4.038   5.434
   88c3c     C1  401   2.891   4.072   5.356
   88c3c     C1  402   2.720   3.905   5.394
   88c3c     C2  403   2.914   3.960   5.254
   88c3c     C2  404   2.806   3.855   5.278
   88c3c     C1  405   2.805   4.034   5.576
   88c3c     C1  406   2.665   4.140   5.413
   88c3c     H1  407   2.979   4.084   5.420
   88c3c     H1  408   2.884   4.169   5.307
   88c3c     H1  409   2.722   3.833   5.476
   88c3c     H1  410   2.615   3.905   5.366
   88c3c     HC  411   3.013   3.917   5.268
   88c3c     HC  412   2.909   3.999   5.152
   88c3c     HC  413   2.851   3.759   5.304
   88c3c     HC  414   2.746   3.841   5.188
   88c3c     H1  415   2.844   4.130   5.612
   88c3c     H1  416   2.720   4.009   5.639
   88c3c     H1  417   2.882   3.960   5.595
   88c3c     H1  418   2.579   4.118   5.475
   88c3c     H1  419   2.701   4.237   5.448
   88c3c     C2  420   2.621   4.153   5.265
   88c3c     HC  421   2.581   4.059   5.226
   88c3c     HC  422   2.704   4.178   5.199
   88c3c     CT  423   2.514   4.258   5.247
   88c3c     HC  424   2.551   4.356   5.279
   88c3c     HC  425   2.426   4.233   5.306
   88c3c     HC  426   2.485   4.264   5.142
   89c3c     N4  427   5.143   1.065   2.679
   89c3c     C1  428   5.236   1.075   2.794
   89c3c     C1  429   5.214   1.010   2.562
   89c3c     C2  430   5.375   1.036   2.746
   89c3c     C2  431   5.362   0.995   2.599
   89c3c     C1  432   5.035   0.972   2.715
   89c3c     C1  433   5.085   1.196   2.648
   89c3c     H1  434   5.207   1.011   2.877
   89c3c     H1  435   5.238   1.174   2.839
   89c3c     H1  436   5.175   0.914   2.529
   89c3c     H1  437   5.204   1.072   2.472
   89c3c     HC  438   5.413   0.953   2.805
   89c3c     HC  439   5.445   1.119   2.756
   89c3c     HC  440   5.393   0.891   2.585
   89c3c     HC  441   5.425   1.057   2.536
   89c3c     H1  442   4.979   1.006   2.802
   89c3c     H1  443   4.964   0.959   2.633
   89c3c     H1  444   5.075   0.873   2.738
   89c3c     H1  445   5.013   1.186   2.566
   89c3c     H1  446   5.028   1.233   2.733
   89c3c     C2  447   5.192   1.302   2.609
   89c3c     HC  448   5.250   1.271   2.522
   89c3c     HC  449   5.265   1.317   2.688
   89c3c     CT  450   5.129   1.436   2.577
   89c3c     HC  451   5.075   1.474   2.664
   89c3c     HC  452   5.060   1.427   2.493
   89c3c     HC  453   5.207   1.507   2.550
   90c3c     N4  454   2.066   2.613   4.712
   90c3c     C1  455   1.961   2.717   4.712
   90c3c     C1  456   2.171   2.649   4.810
   90c3c     C2  457   2.006   2.830   4.805
   90c3c     C2  458   2.138   2.787   4.867
   90c3c     C1  459   2.006   2.486   4.753
   90c3c     C1  460   2.124   2.598   4.577
   90c3c     H1  461   1.864   2.679   4.743
   90c3c     H1  462   1.940   2.757   4.613
   90c3c     H1  463   2.180   2.576   4.890
   90c3c     H1  464   2.271   2.649   4.767
   90c3c     HC  465   1.931   2.846   4.883
   90c3c     HC  466   2.017   2.923   4.751
   90c3c     HC  467   2.130   2.781   4.975
   90c3c     HC  468   2.217   2.859   4.843
   90c3c     H1  469   1.926   2.455   4.685
   90c3c     H1  470   2.079   2.405   4.756
   90c3c     H1  471   1.962   2.494   4.852
   90c3c     H1  472   2.197   2.518   4.577
   90c3c     H1  473   2.047   2.567   4.507
   90c3c     C2  474   2.191   2.728   4.525
   90c3c     HC  475   2.271   2.762   4.590
   90c3c     HC  476   2.121   2.811   4.520
   90c3c     CT  477   2.249   2.709   4.387
   90c3c     HC  478   2.171   2.681   4.316
   90c3c     HC  479   2.325   2.631   4.388
   90c3c     HC  480   2.295   2.802   4.353
   91c3c     N4  481   2.997   2.391   5.016
   91c3c     C1  482   3.091   2.474   4.938
   91c3c     C1  483   3.059   2.260   5.046
   91c3c     C2  484   3.214   2.389   4.905
   91c3c     C2  485   3.194   2.254   4.974
   91c3c     C1  486   2.970   2.459   5.143
   91c3c     C1  487   2.871   2.372   4.943
   91c3c     H1  488   3.121   2.565   4.989
   91c3c     H1  489   3.047   2.512   4.845
   91c3c     H1  490   3.073   2.242   5.152
   91c3c     H1  491   2.998   2.175   5.016
   91c3c     HC  492   3.304   2.438   4.942
   91c3c     HC  493   3.225   2.376   4.798
   91c3c     HC  494   3.274   2.234   5.045
   91c3c     HC  495   3.195   2.173   4.900
   91c3c     H1  496   2.925   2.557   5.128
   91c3c     H1  497   2.903   2.401   5.206
   91c3c     H1  498   3.062   2.473   5.200
   91c3c     H1  499   2.801   2.315   5.004
   91c3c     H1  500   2.823   2.469   4.927
   91c3c     C2  501   2.889   2.301   4.807
   91c3c     HC  502   2.933   2.201   4.818
   91c3c     HC  503   2.956   2.355   4.741
   91c3c     CT  504   2.757   2.284   4.735
   91c3c     HC  505   2.711   2.381   4.716
   91c3c     HC  506   2.688   2.224   4.795
   91c3c     HC  507   2.773   2.233   4.641
   92c3c     N4  508   4.974   2.092   2.648
   92c3c     C1  509   4.856   2.043   2.573
   92c3c     C1  510   5.054   1.977   2.694
   92c3c     C2  511   4.854   1.891   2.581
   92c3c     C2  512   4.978   1.849   2.658
   92c3c     C1  513   5.056   2.172   2.557
   92c3c     C1  514   4.932   2.175   2.761
   92c3c     H1  515   4.856   2.075   2.468
   92c3c     H1  516   4.762   2.085   2.609
   92c3c     H1  517   5.154   1.974   2.651
   92c3c     H1  518   5.074   1.979   2.801
   92c3c     HC  519   4.854   1.848   2.481
   92c3c     HC  520   4.764   1.856   2.632
   92c3c     HC  521   5.041   1.784   2.596
   92c3c     HC  522   4.951   1.792   2.747
   92c3c     H1  523   5.002   2.258   2.518
   92c3c     H1  524   5.146   2.210   2.606
   92c3c     H1  525   5.089   2.113   2.471
   92c3c     H1  526   5.020   2.215   2.812
   92c3c     H1  527   4.878   2.263   2.725
   92c3c     C2  528   4.844   2.099   2.863
   92c3c     HC  529   4.895   2.012   2.905
   92c3c     HC  530   4.753   2.060   2.818
   92c3c     CT  531   4.803   2.188   2.979
   92c3c     HC  532   4.746   2.273   2.943
   92c3c     HC  533   4.891   2.224   3.032
   92c3c     HC  534   4.741   2.131   3.049
   93c3c     N4  535   0.585   3.026   0.512
   93c3c     C1  536   0.672   3.020   0.631
   93c3c     C1  537   0.567   2.890   0.457
   93c3c     C2  538   0.721   2.875   0.647
   93c3c     C2  539   0.654   2.794   0.537
   93c3c     C1  540   0.454   3.078   0.553
   93c3c     C1  541   0.643   3.116   0.411
   93c3c     H1  542   0.622   3.052   0.722
   93c3c     H1  543   0.757   3.088   0.626
   93c3c     H1  544   0.463   2.857   0.460
   93c3c     H1  545   0.590   2.883   0.350
   93c3c     HC  546   0.693   2.837   0.745
   93c3c     HC  547   0.829   2.870   0.639
   93c3c     HC  548   0.593   2.714   0.579
   93c3c     HC  549   0.729   2.747   0.473
   93c3c     H1  550   0.461   3.178   0.596
   93c3c     H1  551   0.385   3.083   0.469
   93c3c     H1  552   0.409   3.013   0.628
   93c3c     H1  553   0.575   3.124   0.326
   93c3c     H1  554   0.651   3.217   0.450
   93c3c     C2  555   0.782   3.069   0.361
   93c3c     HC  556   0.779   2.970   0.317
   93c3c     HC  557   0.855   3.063   0.442
   93c3c     CT  558   0.839   3.164   0.257
   93c3c     HC  559   0.850   3.264   0.298
   93c3c     HC  560   0.773   3.169   0.170
   93c3c     HC  561   0.937   3.129   0.224
   94c3c     N4  562   3.371   4.601   3.003
   94c3c     C1  563   3.420   4.712   2.919
   94c3c     C1  564   3.250   4.644   3.077
   94c3c     C2  565   3.335   4.835   2.948
   94c3c     C2  566   3.228   4.793   3.048
   94c3c     C1  567   3.333   4.489   2.915
   94c3c     C1  568   3.475   4.556   3.097
   94c3c     H1  569   3.417   4.689   2.813
   94c3c     H1  570   3.526   4.734   2.935
   94c3c     H1  571   3.161   4.588   3.049
   94c3c     H1  572   3.257   4.627   3.184
   94c3c     HC  573   3.290   4.872   2.856
   94c3c     HC  574   3.396   4.916   2.989
   94c3c     HC  575   3.128   4.808   3.006
   94c3c     HC  576   3.234   4.852   3.139
   94c3c     H1  577   3.418   4.454   2.857
   94c3c     H1  578   3.294   4.404   2.971
   94c3c     H1  579   3.256   4.519   2.845
   94c3c     H1  580   3.439   4.470   3.154
   94c3c     H1  581   3.561   4.519   3.041
   94c3c     C2  582   3.521   4.668   3.194
   94c3c     HC  583   3.439   4.706   3.254
   94c3c     HC  584   3.561   4.754   3.141
   94c3c     CT  585   3.628   4.618   3.289
   94c3c     HC  586   3.716   4.585   3.233
   94c3c     HC  587   3.591   4.535   3.349
   94c3c     HC  588   3.658   4.699   3.356
   95c3c     N4  589   3.343   2.718   5.606
   95c3c     C1  590   3.244   2.772   5.512
   95c3c     C1  591   3.278   2.686   5.735
   95c3c     C2  592   3.111   2.787   5.586
   95c3c     C2  593   3.132   2.733   5.727
   95c3c     C1  594   3.398   2.593   5.551
   95c3c     C1  595   3.453   2.814   5.627
   95c3c     H1  596   3.230   2.709   5.424
   95c3c     H1  597   3.274   2.868   5.469
   95c3c     H1  598   3.281   2.580   5.760
   95c3c     H1  599   3.327   2.732   5.821
   95c3c     HC  600   3.033   2.731   5.535
   95c3c     HC  601   3.080   2.891   5.590
   95c3c     HC  602   3.065   2.649   5.746
   95c3c     HC  603   3.112   2.810   5.801
   95c3c     H1  604   3.447   2.610   5.455
   95c3c     H1  605   3.470   2.548   5.617
   95c3c     H1  606   3.318   2.520   5.535
   95c3c     H1  607   3.528   2.770   5.693
   95c3c     H1  608   3.505   2.832   5.533
   95c3c     C2  609   3.406   2.949   5.686
   95c3c     HC  610   3.357   2.936   5.783
   95c3c     HC  611   3.332   2.998   5.623
   95c3c     CT  612   3.521   3.045   5.705
   95c3c     HC  613   3.570   3.066   5.610
   95c3c     HC  614   3.594   3.003   5.774
   95c3c     HC  615   3.484   3.138   5.748
   96c3c     N4  616   2.243   2.210   1.922
   96c3c     C1  617   2.298   2.347   1.906
   96c3c     C1  618   2.096   2.216   1.927
   96c3c     C2  619   2.181   2.445   1.912
   96c3c     C2  620   2.054   2.363   1.925
   96c3c     C1  621   2.284   2.131   1.806
   96c3c     C1  622   2.296   2.148   2.044
   96c3c     H1  623   2.353   2.360   1.813
   96c3c     H1  624   2.373   2.373   1.981
   96c3c     H1  625   2.050   2.162   1.844
   96c3c     H1  626   2.054   2.165   2.014
   96c3c     HC  627   2.179   2.506   1.821
   96c3c     HC  628   2.191   2.514   1.996
   96c3c     HC  629   1.987   2.381   1.841
   96c3c     HC  630   2.000   2.389   2.016
   96c3c     H1  631   2.392   2.125   1.796
   96c3c     H1  632   2.246   2.029   1.811
   96c3c     H1  633   2.246   2.175   1.714
   96c3c     H1  634   2.260   2.045   2.052
   96c3c     H1  635   2.405   2.140   2.037
   96c3c     C2  636   2.259   2.225   2.173
   96c3c     HC  637   2.151   2.234   2.187
   96c3c     HC  638   2.296   2.328   2.172
   96c3c     CT  639   2.315   2.158   2.297
   96c3c     HC  640   2.424   2.154   2.292
   96c3c     HC  641   2.276   2.057   2.307
   96c3c     HC  642   2.287   2.215   2.386
   97c3c     N4  643   1.582   4.928   0.415
   97c3c     C1  644   1.487   5.010   0.336
   97c3c     C1  645   1.566   4.786   0.379
   97c3c     C2  646   1.399   4.916   0.255
   97c3c     C2  647   1.448   4.774   0.282
   97c3c     C1  648   1.719   4.970   0.381
   97c3c     C1  649   1.560   4.949   0.559
   97c3c     H1  650   1.538   5.081   0.270
   97c3c     H1  651   1.427   5.076   0.398
   97c3c     H1  652   1.656   4.743   0.335
   97c3c     H1  653   1.551   4.722   0.466
   97c3c     HC  654   1.406   4.939   0.149
   97c3c     HC  655   1.294   4.926   0.284
   97c3c     HC  656   1.481   4.726   0.190
   97c3c     HC  657   1.369   4.713   0.325
   97c3c     H1  658   1.737   5.075   0.403
   97c3c     H1  659   1.794   4.912   0.434
   97c3c     H1  660   1.738   4.956   0.274
   97c3c     H1  661   1.635   4.893   0.616
   97c3c     H1  662   1.578   5.053   0.585
   97c3c     C2  663   1.418   4.908   0.605
   97c3c     HC  664   1.397   4.803   0.584
   97c3c     HC  665   1.341   4.964   0.554
   97c3c     CT  666   1.400   4.929   0.754
   97c3c     HC  667   1.414   5.034   0.779
   97c3c     HC  668   1.472   4.870   0.810
   97c3c     HC  669   1.299   4.900   0.783
   98c3c     N4  670   3.515   0.301   3.972
   98c3c     C1  671   3.636   0.386   3.968
   98c3c     C1  672   3.394   0.386   3.966
   98c3c     C2  673   3.591   0.532   3.971
   98c3c     C2  674   3.439   0.532   3.970
   98c3c     C1  675   3.516   0.214   3.854
   98c3c     C1  676   3.515   0.219   4.093
   98c3c     H1  677   3.698   0.369   3.879
   98c3c     H1  678   3.706   0.367   4.049
   98c3c     H1  679   3.334   0.368   3.878
   98c3c     H1  680   3.324   0.367   4.048
   98c3c     HC  681   3.630   0.585   3.884
   98c3c     HC  682   3.629   0.583   4.060
   98c3c     HC  683   3.401   0.585   3.883
   98c3c     HC  684   3.400   0.583   4.059
   98c3c     H1  685   3.604   0.150   3.851
   98c3c     H1  686   3.428   0.150   3.850
   98c3c     H1  687   3.516   0.273   3.762
   98c3c     H1  688   3.428   0.153   4.093
   98c3c     H1  689   3.602   0.153   4.093
   98c3c     C2  690   3.514   0.302   4.224
   98c3c     HC  691   3.428   0.368   4.230
   98c3c     HC  692   3.601   0.368   4.231
   98c3c     CT  693   3.514   0.213   4.347
   98c3c     HC  694   3.603   0.151   4.349
   98c3c     HC  695   3.425   0.150   4.348
   98c3c     HC  696   3.513   0.276   4.436
   99c3c     N4  697   1.396   2.771   0.514
   99c3c     C1  698   1.276   2.807   0.592
   99c3c     C1  699   1.436   2.632   0.546
   99c3c     C2  700   1.243   2.690   0.686
   99c3c     C2  701   1.344   2.580   0.656
   99c3c     C1  702   1.363   2.778   0.371
   99c3c     C1  703   1.506   2.864   0.543
   99c3c     H1  704   1.189   2.829   0.529
   99c3c     H1  705   1.288   2.899   0.649
   99c3c     H1  706   1.431   2.566   0.459
   99c3c     H1  707   1.540   2.623   0.576
   99c3c     HC  708   1.142   2.655   0.668
   99c3c     HC  709   1.249   2.721   0.790
   99c3c     HC  710   1.294   2.489   0.624
   99c3c     HC  711   1.402   2.556   0.746
   99c3c     H1  712   1.333   2.879   0.343
   99c3c     H1  713   1.449   2.751   0.310
   99c3c     H1  714   1.283   2.709   0.347
   99c3c     H1  715   1.593   2.840   0.482
   99c3c     H1  716   1.478   2.966   0.515
   99c3c     C2  717   1.548   2.863   0.692
   99c3c     HC  718   1.581   2.765   0.725
   99c3c     HC  719   1.466   2.890   0.759
   99c3c     CT  720   1.661   2.960   0.718
   99c3c     HC  721   1.632   3.062   0.693
   99c3c     HC  722   1.749   2.934   0.659
   99c3c     HC  723   1.689   2.957   0.824
  100c3c     N4  724   2.750   3.810   4.640
  100c3c     C1  725   2.828   3.686   4.624
  100c3c     C1  726   2.791   3.880   4.763
  100c3c     C2  727   2.916   3.670   4.748
  100c3c     C2  728   2.893   3.792   4.836
  100c3c     C1  729   2.778   3.897   4.525
  100c3c     C1  730   2.606   3.780   4.644
  100c3c     H1  731   2.890   3.685   4.535
  100c3c     H1  732   2.766   3.598   4.610
  100c3c     H1  733   2.834   3.978   4.742
  100c3c     H1  734   2.708   3.904   4.828
  100c3c     HC  735   3.021   3.662   4.719
  100c3c     HC  736   2.891   3.579   4.803
  100c3c     HC  737   2.986   3.847   4.851
  100c3c     HC  738   2.856   3.763   4.934
  100c3c     H1  739   2.751   3.849   4.430
  100c3c     H1  740   2.724   3.991   4.530
  100c3c     H1  741   2.884   3.921   4.518
  100c3c     H1  742   2.549   3.873   4.649
  100c3c     H1  743   2.575   3.733   4.550
  100c3c     C2  744   2.566   3.689   4.762
  100c3c     HC  745   2.592   3.733   4.859
  100c3c     HC  746   2.618   3.593   4.759
  100c3c     CT  747   2.418   3.660   4.763
  100c3c     HC  748   2.388   3.610   4.671
  100c3c     HC  749   2.361   3.753   4.772
  100c3c     HC  750   2.393   3.596   4.847
  101fsi    FSI  751   0.422   2.450   3.380
  101fsi    SBT  752   0.551   2.538   3.358
  101fsi    NBT  753   0.493   2.663   3.285
  101fsi    OBT  754   0.603   2.558   3.490
  101fsi    OBT  755   0.633   2.454   3.274
  101fsi    SBT  756   0.422   2.786   3.354
  101fsi    OBT  757   0.376   2.758   3.488
  101fsi    OBT  758   0.332   2.855   3.267
  101fsi    FSI  759   0.542   2.886   3.374
  102fsi    FSI  760   4.955   1.899   5.480
  102fsi    SBT  761   5.010   1.976   5.354
  102fsi    NBT  762   5.034   2.122   5.404
  102fsi    OBT  763   5.131   1.910   5.315
  102fsi    OBT  764   4.904   1.977   5.258
  102fsi    SBT  765   5.156   2.169   5.491
  102fsi    OBT  766   5.235   2.064   5.549
  102fsi    OBT  767   5.127   2.284   5.571
  102fsi    FSI  768   5.249   2.227   5.378
  103fsi    FSI  769   2.690   2.356   1.403
  103fsi    SBT  770   2.606   2.284   1.515
  103fsi    NBT  771   2.709   2.271   1.632
  103fsi    OBT  772   2.496   2.373   1.543
  103fsi    OBT  773   2.572   2.157   1.457
  103fsi    SBT  774   2.748   2.384   1.733
  103fsi    OBT  775   2.712   2.517   1.692
  103fsi    OBT  776   2.878   2.365   1.792
  103fsi    FSI  777   2.649   2.354   1.852
  104fsi    FSI  778   3.372   2.608   3.363
  104fsi    SBT  779   3.453   2.742   3.377
  104fsi    NBT  780   3.599   2.688   3.394
  104fsi    OBT  781   3.430   2.810   3.252
  104fsi    OBT  782   3.402   2.800   3.497
  104fsi    SBT  783   3.696   2.645   3.278
  104fsi    OBT  784   3.630   2.611   3.155
  104fsi    OBT  785   3.799   2.556   3.323
  104fsi    FSI  786   3.772   2.779   3.247
  105fsi    FSI  787   1.676   0.158   0.797
  105fsi    SBT  788   1.719   0.259   0.684
  105fsi    NBT  789   1.583   0.333   0.655
  105fsi    OBT  790   1.818   0.343   0.747
  105fsi    OBT  791   1.762   0.176   0.576
  105fsi    SBT  792   1.524   0.453   0.735
  105fsi    OBT  793   1.577   0.469   0.868
  105fsi    OBT  794   1.382   0.466   0.721
  105fsi    FSI  795   1.581   0.577   0.657
  106fsi    FSI  796   3.451   4.897   2.541
  106fsi    SBT  797   3.586   4.949   2.477
  106fsi    NBT  798   3.601   4.855   2.353
  106fsi    OBT  799   3.561   5.087   2.445
  106fsi    OBT  800   3.683   4.924   2.580
  106fsi    SBT  801   3.529   4.872   2.215
  106fsi    OBT  802   3.415   4.959   2.219
  106fsi    OBT  803   3.517   4.749   2.143
  106fsi    FSI  804   3.636   4.953   2.133
  107fsi    FSI  805   3.309   0.765   5.109
  107fsi    SBT  806   3.154   0.791   5.112
  107fsi    NBT  807   3.147   0.948   5.111
  107fsi    OBT  808   3.104   0.728   4.993
  107fsi    OBT  809   3.113   0.735   5.238
  107fsi    SBT  810   3.159   1.039   4.984
  107fsi    OBT  811   3.218   0.975   4.869
  107fsi    OBT  812   3.203   1.172   5.017
  107fsi    FSI  813   3.007   1.058   4.944
  108fsi    FSI  814   2.147   1.638   2.048
  108fsi    SBT  815   2.041   1.742   1.997
  108fsi    NBT  816   1.918   1.650   1.967
  108fsi    OBT  817   2.021   1.831   2.109
  108fsi    OBT  818   2.100   1.798   1.879
  108fsi    SBT  819   1.813   1.599   2.072
  108fsi    OBT  820   1.857   1.602   2.209
  108fsi    OBT  821   1.745   1.480   2.030
  108fsi    FSI  822   1.702   1.710   2.064
  109fsi    FSI  823   1.003   3.385   2.519
  109fsi    SBT  824   1.152   3.422   2.551
  109fsi    NBT  825   1.227   3.291   2.510
  109fsi    OBT  826   1.179   3.535   2.465
  109fsi    OBT  827   1.152   3.445   2.692
  109fsi    SBT  828   1.271   3.251   2.365
  109fsi    OBT  829   1.199   3.319   2.260
  109fsi    OBT  830   1.289   3.110   2.349
  109fsi    FSI  831   1.416   3.310   2.357
  110fsi    FSI  832   1.183   3.939   5.295
  110fsi    SBT  833   1.031   3.974   5.316
  110fsi    NBT  834   1.038   4.125   5.357
  110fsi    OBT  835   0.970   3.949   5.188
  110fsi    OBT  836   0.992   3.889   5.425
  110fsi    SBT  837   1.050   4.246   5.258
  110fsi    OBT  838   1.099   4.213   5.127
  110fsi    OBT  839   1.104   4.363   5.321
  110fsi    FSI  840   0.899   4.284   5.234
  111fsi    FSI  841   1.161   3.786   4.427
  111fsi    SBT  842   1.069   3.905   4.379
  111fsi    NBT  843   1.150   4.030   4.430
  111fsi    OBT  844   1.065   3.892   4.236
  111fsi    OBT  845   0.946   3.885   4.451
  111fsi    SBT  846   1.270   4.098   4.356
  111fsi    OBT  847   1.336   4.015   4.258
  111fsi    OBT  848   1.355   4.173   4.443
  111fsi    FSI  849   1.197   4.209   4.270
  112fsi    FSI  850   2.194   4.972   1.377
  112fsi    SBT  851   2.340   4.987   1.322
  112fsi    NBT  852   2.411   5.063   1.440
  112fsi    OBT  853   2.382   4.853   1.299
  112fsi    OBT  854   2.321   5.074   1.208
  112fsi    SBT  855   2.468   4.996   1.570
  112fsi    OBT  856   2.412   4.868   1.602
  112fsi    OBT  857   2.480   5.091   1.678
  112fsi    FSI  858   2.618   4.967   1.531
  113fsi    FSI  859   2.951   4.435   0.566
  113fsi    SBT  860   2.953   4.494   0.421
  113fsi    NBT  861   2.804   4.488   0.376
  113fsi    OBT  862   3.001   4.626   0.439
  113fsi    OBT  863   3.038   4.403   0.347
  113fsi    SBT  864   2.694   4.595   0.411
  113fsi    OBT  865   2.724   4.682   0.521
  113fsi    OBT  866   2.561   4.541   0.402
  113fsi    FSI  867   2.701   4.690   0.286
  114fsi    FSI  868   3.940   1.568   3.634
  114fsi    SBT  869   4.023   1.533   3.762
  114fsi    NBT  870   3.923   1.440   3.839
  114fsi    OBT  871   4.140   1.466   3.710
  114fsi    OBT  872   4.042   1.660   3.825
  114fsi    SBT  873   3.902   1.287   3.815
  114fsi    OBT  874   3.946   1.241   3.686
  114fsi    OBT  875   3.773   1.242   3.859
  114fsi    FSI  876   4.003   1.222   3.917
  115fsi    FSI  877   4.739   4.697   3.105
  115fsi    SBT  878   4.895   4.683   3.115
  115fsi    NBT  879   4.912   4.531   3.147
  115fsi    OBT  880   4.943   4.725   2.987
  115fsi    OBT  881   4.928   4.767   3.227
  115fsi    SBT  882   4.911   4.414   3.042
  115fsi    OBT  883   4.855   4.447   2.915
  115fsi    OBT  884   4.873   4.288   3.100
  115fsi    FSI  885   5.065   4.396   3.012
  116fsi    FSI  886   1.606   5.125   2.211
  116fsi    SBT  887   1.491   5.229   2.238
  116fsi    NBT  888   1.498   5.321   2.111
  116fsi    OBT  889   1.371   5.150   2.246
  116fsi    OBT  890   1.533   5.298   2.357
  116fsi    SBT  891   1.434   5.289   1.972
  116fsi    OBT  892   1.403   5.151   1.947
  116fsi    OBT  893   1.496   5.363   1.865
  116fsi    FSI  894   1.293   5.358   1.985
  117fsi    FSI  895   5.582   2.785   1.843
  117fsi    SBT  896   5.606   2.762   1.689
  117fsi    NBT  897   5.720   2.654   1.690
  117fsi    OBT  898   5.481   2.713   1.638
  117fsi    OBT  899   5.653   2.889   1.641
  117fsi    SBT  900   5.700   2.500   1.708
  117fsi    OBT  901   5.577   2.461   1.771
  117fsi    OBT  902   5.820   2.435   1.755
  117fsi    FSI  903   5.687   2.450   1.560
  118fsi    FSI  904   4.708   5.440   4.497
  118fsi    SBT  905   4.748   5.592   4.477
  118fsi    NBT  906   4.904   5.584   4.488
  118fsi    OBT  907   4.698   5.624   4.347
  118fsi    OBT  908   4.687   5.656   4.590
  118fsi    SBT  909   5.003   5.547   4.373
  118fsi    OBT  910   4.943   5.471   4.266
  118fsi    OBT  911   5.130   5.500   4.422
  118fsi    FSI  912   5.036   5.687   4.309
  119fsi    FSI  913   3.430   2.602   1.255
  119fsi    SBT  914   3.397   2.645   1.403
  119fsi    NBT  915   3.411   2.801   1.395
  119fsi    OBT  916   3.262   2.598   1.425
  119fsi    OBT  917   3.500   2.583   1.480
  119fsi    SBT  918   3.302   2.901   1.343
  119fsi    OBT  919   3.200   2.840   1.262
  119fsi    OBT  920   3.358   3.025   1.297
  119fsi    FSI  921   3.228   2.941   1.476
  120fsi    FSI  922   2.702   4.484   1.224
  120fsi    SBT  923   2.680   4.540   1.369
  120fsi    NBT  924   2.826   4.576   1.413
  120fsi    OBT  925   2.596   4.655   1.352
  120fsi    OBT  926   2.625   4.429   1.441
  120fsi    SBT  927   2.902   4.708   1.378
  120fsi    OBT  928   2.851   4.782   1.266
  120fsi    OBT  929   3.045   4.695   1.387
  120fsi    FSI  930   2.868   4.800   1.502
  121fsi    FSI  931   1.248   2.425   3.701
  121fsi    SBT  932   1.098   2.473   3.690
  121fsi    NBT  933   1.114   2.622   3.644
  121fsi    OBT  934   1.037   2.387   3.592
  121fsi    OBT  935   1.048   2.462   3.824
  121fsi    SBT  936   1.140   2.670   3.497
  121fsi    OBT  937   1.189   2.568   3.409
  121fsi    OBT  938   1.201   2.799   3.490
  121fsi    FSI  939   0.993   2.696   3.446
  122fsi    FSI  940   4.460   0.363   4.420
  122fsi    SBT  941   4.329   0.422   4.357
  122fsi    NBT  942   4.217   0.338   4.428
  122fsi    OBT  943   4.331   0.562   4.391
  122fsi    OBT  944   4.340   0.389   4.217
  122fsi    SBT  945   4.161   0.366   4.572
  122fsi    OBT  946   4.250   0.444   4.653
  122fsi    OBT  947   4.102   0.250   4.632
  122fsi    FSI  948   4.038   0.460   4.541
  123fsi    FSI  949   2.840   5.592   3.463
  123fsi    SBT  950   2.925   5.720   3.497
  123fsi    NBT  951   3.071   5.669   3.475
  123fsi    OBT  952   2.881   5.819   3.401
  123fsi    OBT  953   2.895   5.745   3.635
  123fsi    SBT  954   3.145   5.658   3.337
  123fsi    OBT  955   3.058   5.656   3.223
  123fsi    OBT  956   3.252   5.563   3.340
  123fsi    FSI  957   3.218   5.798   3.328
  124fsi    FSI  958   3.643   4.883   0.498
  124fsi    SBT  959   3.749   4.909   0.611
  124fsi    NBT  960   3.808   5.049   0.570
  124fsi    OBT  961   3.673   4.912   0.733
  124fsi    OBT  962   3.844   4.803   0.595
  124fsi    SBT  963   3.744   5.188   0.602
  124fsi    OBT  964   3.605   5.187   0.636
  124fsi    OBT  965   3.790   5.292   0.513
  124fsi    FSI  966   3.815   5.225   0.738
  125fsi    FSI  967   4.795   4.743   5.567
  125fsi    SBT  968   4.918   4.777   5.474
  125fsi    NBT  969   4.928   4.648   5.387
  125fsi    OBT  970   4.875   4.894   5.400
  125fsi    OBT  971   5.027   4.792   5.565
  125fsi    SBT  972   4.845   4.616   5.258
  125fsi    OBT  973   4.724   4.694   5.242
  125fsi    OBT  974   4.836   4.476   5.230
  125fsi    FSI  975   4.939   4.671   5.144
  126fsi    FSI  976   4.577   0.589   1.315
  126fsi    SBT  977   4.447   0.665   1.363
  126fsi    NBT  978   4.336   0.598   1.275
  126fsi    OBT  979   4.436   0.635   1.503
  126fsi    OBT  980   4.471   0.801   1.327
  126fsi    SBT  981   4.264   0.462   1.306
  126fsi    OBT  982   4.332   0.376   1.400
  126fsi    OBT  983   4.209   0.400   1.189
  126fsi    FSI  984   4.137   0.510   1.385
  127fsi    FSI  985   3.830   0.750   5.411
  127fsi    SBT  986   3.935   0.778   5.298
  127fsi    NBT  987   3.844   0.795   5.172
  127fsi    OBT  988   4.003   0.896   5.345
  127fsi    OBT  989   4.015   0.659   5.301
  127fsi    SBT  990   3.767   0.925   5.131
  127fsi    OBT  991   3.753   1.020   5.239
  127fsi    OBT  992   3.651   0.901   5.050
  127fsi    FSI  993   3.869   0.994   5.033
  128fsi    FSI  994   3.312   0.232   1.313
  128fsi    SBT  995   3.413   0.352   1.303
  128fsi    NBT  996   3.536   0.286   1.233
  128fsi    OBT  997   3.345   0.451   1.224
  128fsi    OBT  998   3.440   0.388   1.440
  128fsi    SBT  999   3.552   0.262   1.079
  128fsi    OBT 1000   3.429   0.265   1.006
  128fsi    OBT 1001   3.644   0.155   1.049
  128fsi    FSI 1002   3.628   0.392   1.033
  129fsi    FSI 1003   5.138   3.492   1.288
  129fsi    SBT 1004   5.081   3.350   1.250
  129fsi    NBT 1005   4.970   3.331   1.358
  129fsi    OBT 1006   5.033   3.368   1.115
  129fsi    OBT 1007   5.195   3.264   1.267
  129fsi    SBT 1008   4.824   3.389   1.353
  129fsi    OBT 1009   4.810   3.501   1.264
  129fsi    OBT 1010   4.766   3.402   1.484
  129fsi    FSI 1011   4.744   3.272   1.285
  130fsi    FSI 1012   5.426   1.900   1.460
  130fsi    SBT 1013   5.293   1.944   1.389
  130fsi    NBT 1014   5.191   1.838   1.442
  130fsi    OBT 1015   5.269   2.078   1.435
  130fsi    OBT 1016   5.320   1.930   1.249
  130fsi    SBT 1017   5.115   1.844   1.579
  130fsi    OBT 1018   5.175   1.930   1.677
  130fsi    OBT 1019   5.072   1.715   1.626
  130fsi    FSI 1020   4.981   1.917   1.540
  131fsi    FSI 1021   4.128   2.016   4.739
  131fsi    SBT 1022   4.233   2.051   4.627
  131fsi    NBT 1023   4.142   2.056   4.501
  131fsi    OBT 1024   4.286   2.178   4.670
  131fsi    OBT 1025   4.322   1.938   4.633
  131fsi    SBT 1026   4.055   2.178   4.453
  131fsi    OBT 1027   4.026   2.272   4.559
  131fsi    OBT 1028   3.946   2.140   4.369
  131fsi    FSI 1029   4.153   2.255   4.357
  132fsi    FSI 1030   2.423   0.492   2.924
  132fsi    SBT 1031   2.318   0.375   2.932
  132fsi    NBT 1032   2.382   0.280   3.037
  132fsi    OBT 1033   2.196   0.441   2.972
  132fsi    OBT 1034   2.316   0.326   2.797
  132fsi    SBT 1035   2.376   0.298   3.193
  132fsi    OBT 1036   2.338   0.430   3.235
  132fsi    OBT 1037   2.485   0.236   3.263
  132fsi    FSI 1038   2.252   0.209   3.231
  133fsi    FSI 1039   0.971   1.542   0.590
  133fsi    SBT 1040   1.063   1.670   0.593
  133fsi    NBT 1041   0.958   1.785   0.613
  133fsi    OBT 1042   1.150   1.651   0.707
  133fsi    OBT 1043   1.124   1.673   0.464
  133fsi    SBT 1044   0.894   1.829   0.749
  133fsi    OBT 1045   0.905   1.732   0.855
  133fsi    OBT 1046   0.769   1.897   0.733
  133fsi    FSI 1047   0.992   1.944   0.794
  134fsi    FSI 1048   1.561   5.224   0.897
  134fsi    SBT 1049   1.460   5.344   0.875
  134fsi    NBT 1050   1.557   5.461   0.839
  134fsi    OBT 1051   1.375   5.300   0.767
  134fsi    OBT 1052   1.398   5.359   1.004
  134fsi    SBT 1053   1.617   5.489   0.697
  134fsi    OBT 1054   1.613   5.376   0.607
  134fsi    OBT 1055   1.738   5.566   0.700
  134fsi    FSI 1056   1.512   5.589   0.637
  135fsi    FSI 1057   5.181   4.507   2.446
  135fsi    SBT 1058   5.270   4.459   2.567
  135fsi    NBT 1059   5.293   4.593   2.646
  135fsi    OBT 1060   5.190   4.361   2.634
  135fsi    OBT 1061   5.390   4.410   2.503
  135fsi    SBT 1062   5.189   4.659   2.744
  135fsi    OBT 1063   5.056   4.611   2.726
  135fsi    OBT 1064   5.209   4.801   2.758
  135fsi    FSI 1065   5.235   4.600   2.883
  136fsi    FSI 1066   2.261   3.517   4.183
  136fsi    SBT 1067   2.301   3.437   4.313
  136fsi    NBT 1068   2.231   3.299   4.291
  136fsi    OBT 1069   2.445   3.433   4.312
  136fsi    OBT 1070   2.241   3.513   4.419
  136fsi    SBT 1071   2.286   3.181   4.202
  136fsi    OBT 1072   2.387   3.220   4.108
  136fsi    OBT 1073   2.182   3.093   4.157
  136fsi    FSI 1074   2.364   3.096   4.309
  137fsi    FSI 1075   4.034   4.742   4.850
  137fsi    SBT 1076   4.145   4.742   4.739
  137fsi    NBT 1077   4.266   4.676   4.813
  137fsi    OBT 1078   4.089   4.661   4.633
  137fsi    OBT 1079   4.165   4.881   4.710
  137fsi    SBT 1080   4.289   4.522   4.830
  137fsi    OBT 1081   4.174   4.438   4.814
  137fsi    OBT 1082   4.377   4.486   4.938
  137fsi    FSI 1083   4.376   4.488   4.704
  138fsi    FSI 1084   4.227   5.056   3.483
  138fsi    SBT 1085   4.341   5.163   3.501
  138fsi    NBT 1086   4.258   5.295   3.515
  138fsi    OBT 1087   4.407   5.119   3.621
  138fsi    OBT 1088   4.411   5.160   3.376
  138fsi    SBT 1089   4.193   5.349   3.647
  138fsi    OBT 1090   4.169   5.249   3.748
  138fsi    OBT 1091   4.085   5.439   3.620
  138fsi    FSI 1092   4.306   5.441   3.706
  139fsi    FSI 1093   3.445   0.838   2.832
  139fsi    SBT 1094   3.520   0.802   2.698
  139fsi    NBT 1095   3.463   0.911   2.601
  139fsi    OBT 1096   3.659   0.820   2.729
  139fsi    OBT 1097   3.475   0.669   2.668
  139fsi    SBT 1098   3.516   1.057   2.586
  139fsi    OBT 1099   3.590   1.109   2.698
  139fsi    OBT 1100   3.420   1.149   2.531
  139fsi    FSI 1101   3.624   1.043   2.473
  140fsi    FSI 1102   1.990   3.739   1.852
  140fsi    SBT 1103   1.878   3.695   1.953
  140fsi    NBT 1104   1.867   3.815   2.052
  140fsi    OBT 1105   1.760   3.675   1.871
  140fsi    OBT 1106   1.930   3.578   2.019
  140fsi    SBT 1107   1.788   3.949   2.028
  140fsi    OBT 1108   1.757   3.976   1.890
  140fsi    OBT 1109   1.831   4.056   2.113
  140fsi    FSI 1110   1.649   3.912   2.091
  141fsi    FSI 1111   5.270   4.892   4.884
  141fsi    SBT 1112   5.125   4.950   4.864
  141fsi    NBT 1113   5.153   5.102   4.840
  141fsi    OBT 1114   5.073   4.881   4.748
  141fsi    OBT 1115   5.059   4.924   4.989
  141fsi    SBT 1116   5.195   5.168   4.704
  141fsi    OBT 1117   5.250   5.075   4.609
  141fsi    OBT 1118   5.264   5.294   4.720
  141fsi    FSI 1119   5.055   5.207   4.643
  142fsi    FSI 1120   0.885   5.433   4.701
  142fsi    SBT 1121   1.014   5.524   4.696
  142fsi    NBT 1122   1.128   5.419   4.678
  142fsi    OBT 1123   0.994   5.610   4.582
  142fsi    OBT 1124   1.018   5.586   4.826
  142fsi    SBT 1125   1.172   5.352   4.543
  142fsi    OBT 1126   1.074   5.360   4.438
  142fsi    OBT 1127   1.239   5.227   4.562
  142fsi    FSI 1128   1.287   5.449   4.495
  143fsi    FSI 1129   0.567   5.439   4.056
  143fsi    SBT 1130   0.670   5.351   4.135
  143fsi    NBT 1131   0.629   5.207   4.091
  143fsi    OBT 1132   0.799   5.394   4.086
  143fsi    OBT 1133   0.639   5.379   4.273
  143fsi    SBT 1134   0.672   5.134   3.960
  143fsi    OBT 1135   0.719   5.222   3.856
  143fsi    OBT 1136   0.582   5.030   3.921
  143fsi    FSI 1137   0.802   5.057   4.006
  144fsi    FSI 1138   2.909   4.716   5.519
  144fsi    SBT 1139   3.044   4.794   5.546
  144fsi    NBT 1140   2.992   4.930   5.605
  144fsi    OBT 1141   3.115   4.710   5.638
  144fsi    OBT 1142   3.100   4.809   5.415
  144fsi    SBT 1143   2.949   4.954   5.754
  144fsi    OBT 1144   2.914   4.835   5.825
  144fsi    OBT 1145   2.862   5.069   5.765
  144fsi    FSI 1146   3.083   5.004   5.819
  145fsi    FSI 1147   4.031   1.128   0.446
  145fsi    SBT 1148   3.921   1.198   0.358
  145fsi    NBT 1149   3.814   1.085   0.343
  145fsi    OBT 1150   3.876   1.309   0.438
  145fsi    OBT 1151   3.989   1.229   0.236
  145fsi    SBT 1152   3.704   1.048   0.447
  145fsi    OBT 1153   3.725   1.096   0.581
  145fsi    OBT 1154   3.655   0.913   0.434
  145fsi    FSI 1155   3.582   1.135   0.398
  146fsi    FSI 1156   4.090   0.738   4.993
  146fsi    SBT 1157   4.079   0.614   4.897
  146fsi    NBT 1158   3.932   0.566   4.921
  146fsi    OBT 1159   4.102   0.672   4.767
  146fsi    OBT 1160   4.176   0.523   4.949
  146fsi    SBT 1161   3.803   0.626   4.854
  146fsi    OBT 1162   3.820   0.758   4.799
  146fsi    OBT 1163   3.684   0.599   4.929
  146fsi    FSI 1164   3.787   0.534   4.727
  147fsi    FSI 1165   0.818   0.984   2.048
  147fsi    SBT 1166   0.789   1.075   2.174
  147fsi    NBT 1167   0.664   1.006   2.238
  147fsi    OBT 1168   0.908   1.067   2.255
  147fsi    OBT 1169   0.758   1.204   2.118
  147fsi    SBT 1170   0.666   0.880   2.330
  147fsi    OBT 1171   0.788   0.803   2.325
  147fsi    OBT 1172   0.542   0.808   2.331
  147fsi    FSI 1173   0.671   0.946   2.473
  148fsi    FSI 1174   2.038   3.151   0.678
  148fsi    SBT 1175   2.086   3.191   0.534
  148fsi    NBT 1176   2.110   3.344   0.549
  148fsi    OBT 1177   2.204   3.112   0.512
  148fsi    OBT 1178   1.972   3.159   0.452
  148fsi    SBT 1179   2.237   3.412   0.610
  148fsi    OBT 1180   2.316   3.324   0.692
  148fsi    OBT 1181   2.209   3.543   0.661
  148fsi    FSI 1182   2.326   3.438   0.482
  149fsi    FSI 1183   2.808   1.874   4.621
  149fsi    SBT 1184   2.815   1.802   4.761
  149fsi    NBT 1185   2.683   1.847   4.830
  149fsi    OBT 1186   2.813   1.663   4.729
  149fsi    OBT 1187   2.931   1.859   4.824
  149fsi    SBT 1188   2.546   1.775   4.811
  149fsi    OBT 1189   2.530   1.703   4.687
  149fsi    OBT 1190   2.438   1.861   4.850
  149fsi    FSI 1191   2.548   1.663   4.923
  150fsi    FSI 1192   4.042   4.510   5.541
  150fsi    SBT 1193   3.962   4.560   5.667
  150fsi    NBT 1194   3.986   4.715   5.659
  150fsi    OBT 1195   3.827   4.519   5.641
  150fsi    OBT 1196   4.031   4.498   5.776
  150fsi    SBT 1197   3.905   4.816   5.571
  150fsi    OBT 1198   3.835   4.756   5.461
  150fsi    OBT 1199   3.978   4.937   5.543
  150fsi    FSI 1200   3.792   4.863   5.670
  151fsi    FSI 1201   4.946   5.408   2.669
  151fsi    SBT 1202   5.063   5.496   2.727
  151fsi    NBT 1203   5.015   5.641   2.692
  151fsi    OBT 1204   5.065   5.467   2.868
  151fsi    OBT 1205   5.178   5.456   2.649
  151fsi    SBT 1206   4.914   5.726   2.775
  151fsi    OBT 1207   4.829   5.651   2.864
  151fsi    OBT 1208   4.851   5.829   2.697
  151fsi    FSI 1209   5.010   5.806   2.871
  152fsi    FSI 1210   1.448   1.849   3.873
  152fsi    SBT 1211   1.455   1.692   3.865
  152fsi    NBT 1212   1.610   1.668   3.857
  152fsi    OBT 1213   1.394   1.648   3.988
  152fsi    OBT 1214   1.387   1.660   3.743
  152fsi    SBT 1215   1.709   1.667   3.979
  152fsi    OBT 1216   1.660   1.731   4.098
  152fsi    OBT 1217   1.845   1.694   3.942
  152fsi    FSI 1218   1.713   1.514   4.017
  153fsi    FSI 1219   2.721   5.029   4.867
  153fsi    SBT 1220   2.710   4.915   4.759
  153fsi    NBT 1221   2.566   4.860   4.782
  153fsi    OBT 1222   2.729   4.984   4.633
  153fsi    OBT 1223   2.813   4.822   4.796
  153fsi    SBT 1224   2.433   4.922   4.728
  153fsi    OBT 1225   2.446   5.059   4.683
  153fsi    OBT 1226   2.318   4.888   4.806
  153fsi    FSI 1227   2.413   4.841   4.594
  154fsi    FSI 1228   1.912   2.181   3.631
  154fsi    SBT 1229   1.819   2.179   3.503
  154fsi    NBT 1230   1.716   2.293   3.535
  154fsi    OBT 1231   1.908   2.208   3.393
  154fsi    OBT 1232   1.763   2.047   3.504
  154fsi    SBT 1233   1.740   2.446   3.513
  154fsi    OBT 1234   1.878   2.483   3.501
  154fsi    OBT 1235   1.658   2.528   3.598
  154fsi    FSI 1236   1.680   2.468   3.369
  155fsi    FSI 1237   4.701   2.688   4.515
  155fsi    SBT 1238   4.752   2.644   4.657
  155fsi    NBT 1239   4.907   2.665   4.647
  155fsi    OBT 1240   4.687   2.733   4.749
  155fsi    OBT 1241   4.718   2.505   4.667
  155fsi    SBT 1242   4.982   2.801   4.665
  155fsi    OBT 1243   4.901   2.919   4.651
  155fsi    OBT 1244   5.113   2.799   4.604
  155fsi    FSI 1245   5.017   2.796   4.818
  156fsi    FSI 1246   2.083   5.818   5.662
  156fsi    SBT 1247   2.183   5.699   5.645
  156fsi    NBT 1248   2.087   5.579   5.615
  156fsi    OBT 1249   2.267   5.736   5.533
  156fsi    OBT 1250   2.247   5.689   5.773
  156fsi    SBT 1251   2.025   5.543   5.476
  156fsi    OBT 1252   2.025   5.650   5.380
  156fsi    OBT 1253   1.904   5.465   5.486
  156fsi    FSI 1254   2.130   5.440   5.419
  157fsi    FSI 1255   3.249   1.347   4.524
  157fsi    SBT 1256   3.254   1.331   4.681
  157fsi    NBT 1257   3.253   1.481   4.728
  157fsi    OBT 1258   3.135   1.257   4.712
  157fsi    OBT 1259   3.381   1.269   4.704
  157fsi    SBT 1260   3.126   1.569   4.733
  157fsi    OBT 1261   3.022   1.516   4.649
  157fsi    OBT 1262   3.157   1.709   4.721
  157fsi    FSI 1263   3.076   1.552   4.882
  158fsi    FSI 1264   2.775   2.881   3.295
  158fsi    SBT 1265   2.763   3.027   3.350
  158fsi    NBT 1266   2.621   3.068   3.299
  158fsi    OBT 1267   2.773   3.012   3.493
  158fsi    OBT 1268   2.870   3.095   3.284
  158fsi    SBT 1269   2.485   3.038   3.370
  158fsi    OBT 1270   2.491   2.926   3.462
  158fsi    OBT 1271   2.372   3.042   3.282
  158fsi    FSI 1272   2.466   3.163   3.464
  159fsi    FSI 1273   0.674   3.418   4.653
  159fsi    SBT 1274   0.819   3.396   4.709
  159fsi    NBT 1275   0.852   3.536   4.770
  159fsi    OBT 1276   0.804   3.290   4.806
  159fsi    OBT 1277   0.897   3.365   4.592
  159fsi    SBT 1278   0.808   3.588   4.911
  159fsi    OBT 1279   0.697   3.516   4.969
  159fsi    OBT 1280   0.803   3.731   4.920
  159fsi    FSI 1281   0.931   3.548   5.001
  160fsi    FSI 1282   1.371   4.423   1.844
  160fsi    SBT 1283   1.429   4.465   1.985
  160fsi    NBT 1284   1.370   4.609   1.999
  160fsi    OBT 1285   1.373   4.367   2.075
  160fsi    OBT 1286   1.571   4.462   1.963
  160fsi    SBT 1287   1.228   4.645   2.053
  160fsi    OBT 1288   1.132   4.538   2.041
  160fsi    OBT 1289   1.183   4.774   2.008
  160fsi    FSI 1290   1.251   4.661   2.207
  161fsi    FSI 1291   5.350   3.024   1.848
  161fsi    SBT 1292   5.220   2.947   1.893
  161fsi    NBT 1293   5.260   2.901   2.038
  161fsi    OBT 1294   5.117   3.048   1.889
  161fsi    OBT 1295   5.211   2.839   1.801
  161fsi    SBT 1296   5.250   2.988   2.168
  161fsi    OBT 1297   5.248   3.130   2.145
  161fsi    OBT 1298   5.338   2.940   2.271
  161fsi    FSI 1299   5.106   2.953   2.221
  162fsi    FSI 1300   2.127   5.731   0.853
  162fsi    SBT 1301   2.001   5.692   0.939
  162fsi    NBT 1302   1.978   5.544   0.896
  162fsi    OBT 1303   2.045   5.708   1.076
  162fsi    OBT 1304   1.899   5.783   0.893
  162fsi    SBT 1305   2.049   5.417   0.953
  162fsi    OBT 1306   2.172   5.441   1.025
  162fsi    OBT 1307   2.047   5.305   0.864
  162fsi    FSI 1308   1.951   5.373   1.068
  163fsi    FSI 1309   1.192   1.404   3.927
  163fsi    SBT 1310   1.270   1.308   3.830
  163fsi    NBT 1311   1.411   1.298   3.898
  163fsi    OBT 1312   1.194   1.185   3.833
  163fsi    OBT 1313   1.271   1.377   3.705
  163fsi    SBT 1314   1.450   1.205   4.018
  163fsi    OBT 1315   1.337   1.155   4.093
  163fsi    OBT 1316   1.564   1.251   4.092
  163fsi    FSI 1317   1.504   1.078   3.942
  164fsi    FSI 1318   5.012   0.540   1.947
  164fsi    SBT 1319   5.132   0.544   1.845
  164fsi    NBT 1320   5.158   0.698   1.832
  164fsi    OBT 1321   5.238   0.472   1.910
  164fsi    OBT 1322   5.076   0.486   1.726
  164fsi    SBT 1323   5.243   0.785   1.930
  164fsi    OBT 1324   5.263   0.728   2.061
  164fsi    OBT 1325   5.210   0.925   1.926
  164fsi    FSI 1326   5.386   0.779   1.863
  165fsi    FSI 1327   3.104   3.410   1.437
  165fsi    SBT 1328   3.140   3.524   1.539
  165fsi    NBT 1329   3.150   3.649   1.445
  165fsi    OBT 1330   3.029   3.526   1.631
  165fsi    OBT 1331   3.268   3.484   1.591
  165fsi    SBT 1332   3.030   3.736   1.394
  165fsi    OBT 1333   2.902   3.669   1.402
  165fsi    OBT 1334   3.060   3.805   1.272
  165fsi    FSI 1335   3.022   3.849   1.502
  166fsi    FSI 1336   2.621   1.434   1.934
  166fsi    SBT 1337   2.480   1.505   1.942
  166fsi    NBT 1338   2.386   1.398   1.877
  166fsi    OBT 1339   2.458   1.525   2.083
  166fsi    OBT 1340   2.496   1.622   1.860
  166fsi    SBT 1341   2.324   1.275   1.950
  166fsi    OBT 1342   2.389   1.236   2.073
  166fsi    OBT 1343   2.287   1.169   1.860
  166fsi    FSI 1344   2.186   1.332   1.999
  167fsi    FSI 1345   2.736   4.008   0.962
  167fsi    SBT 1346   2.597   4.019   0.890
  167fsi    NBT 1347   2.599   4.166   0.838
  167fsi    OBT 1348   2.602   3.919   0.786
  167fsi    OBT 1349   2.501   3.998   0.996
  167fsi    SBT 1350   2.668   4.217   0.707
  167fsi    OBT 1351   2.768   4.128   0.654
  167fsi    OBT 1352   2.700   4.357   0.712
  167fsi    FSI 1353   2.551   4.209   0.603
  168fsi    FSI 1354   1.283   4.404   0.652
  168fsi    SBT 1355   1.289   4.310   0.778
  168fsi    NBT 1356   1.360   4.182   0.723
  168fsi    OBT 1357   1.364   4.383   0.877
  168fsi    OBT 1358   1.150   4.286   0.810
  168fsi    SBT 1359   1.515   4.165   0.703
  168fsi    OBT 1360   1.587   4.289   0.701
  168fsi    OBT 1361   1.546   4.066   0.605
  168fsi    FSI 1362   1.557   4.098   0.840
  169fsi    FSI 1363   1.374   0.539   0.347
  169fsi    SBT 1364   1.282   0.667   0.341
  169fsi    NBT 1365   1.385   0.783   0.365
  169fsi    OBT 1366   1.225   0.665   0.209
  169fsi    OBT 1367   1.191   0.651   0.451
  169fsi    SBT 1368   1.477   0.847   0.256
  169fsi    OBT 1369   1.496   0.768   0.138
  169fsi    OBT 1370   1.593   0.912   0.312
  169fsi    FSI 1371   1.389   0.968   0.207
  170fsi    FSI 1372   0.582   2.336   4.845
  170fsi    SBT 1373   0.531   2.480   4.884
  170fsi    NBT 1374   0.377   2.468   4.859
  170fsi    OBT 1375   0.568   2.494   5.023
  170fsi    OBT 1376   0.597   2.566   4.791
  170fsi    SBT 1377   0.272   2.407   4.957
  170fsi    OBT 1378   0.327   2.321   5.058
  170fsi    OBT 1379   0.152   2.363   4.891
  170fsi    FSI 1380   0.225   2.534   5.037
  171fsi    FSI 1381   3.162   3.430   3.269
  171fsi    SBT 1382   3.213   3.290   3.219
  171fsi    NBT 1383   3.086   3.232   3.150
  171fsi    OBT 1384   3.320   3.323   3.127
  171fsi    OBT 1385   3.250   3.223   3.340
  171fsi    SBT 1386   3.032   3.264   3.007
  171fsi    OBT 1387   3.086   3.384   2.949
  171fsi    OBT 1388   2.891   3.243   2.991
  171fsi    FSI 1389   3.096   3.148   2.922
  172fsi    FSI 1390   5.382   1.503   3.911
  172fsi    SBT 1391   5.399   1.659   3.906
  172fsi    NBT 1392   5.255   1.709   3.944
  172fsi    OBT 1393   5.500   1.688   4.003
  172fsi    OBT 1394   5.432   1.685   3.768
  172fsi    SBT 1395   5.198   1.721   4.089
  172fsi    OBT 1396   5.269   1.644   4.187
  172fsi    OBT 1397   5.054   1.716   4.092
  172fsi    FSI 1398   5.231   1.871   4.125
  173fsi    FSI 1399   2.374   0.370   5.097
  173fsi    SBT 1400   2.288   0.502   5.089
  173fsi    NBT 1401   2.375   0.602   5.172
  173fsi    OBT 1402   2.281   0.531   4.948
  173fsi    OBT 1403   2.166   0.467   5.155
  173fsi    SBT 1404   2.499   0.682   5.120
  173fsi    OBT 1405   2.558   0.627   5.000
  173fsi    OBT 1406   2.588   0.722   5.225
  173fsi    FSI 1407   2.434   0.817   5.072
  174fsi    FSI 1408   2.266   5.601   2.264
  174fsi    SBT 1409   2.285   5.447   2.238
  174fsi    NBT 1410   2.165   5.417   2.142
  174fsi    OBT 1411   2.415   5.438   2.177
  174fsi    OBT 1412   2.269   5.390   2.369
  174fsi    SBT 1413   2.162   5.439   1.987
  174fsi    OBT 1414   2.261   5.534   1.940
  174fsi    OBT 1415   2.029   5.457   1.935
  174fsi    FSI 1416   2.210   5.300   1.931
  175fsi    FSI 1417   4.404   1.415   1.198
  175fsi    SBT 1418   4.502   1.454   1.315
  175fsi    NBT 1419   4.619   1.523   1.238
  175fsi    OBT 1420   4.424   1.543   1.398
  175fsi    OBT 1421   4.538   1.328   1.373
  175fsi    SBT 1422   4.622   1.671   1.187
  175fsi    OBT 1423   4.492   1.733   1.178
  175fsi    OBT 1424   4.713   1.693   1.078
  175fsi    FSI 1425   4.691   1.745   1.308
  176fsi    FSI 1426   4.610   1.665   0.602
  176fsi    SBT 1427   4.734   1.759   0.581
  176fsi    NBT 1428   4.824   1.724   0.704
  176fsi    OBT 1429   4.789   1.720   0.454
  176fsi    OBT 1430   4.678   1.892   0.589
  176fsi    SBT 1431   4.921   1.602   0.715
  176fsi    OBT 1432   4.895   1.496   0.621
  176fsi    OBT 1433   4.950   1.564   0.851
  176fsi    FSI 1434   5.056   1.664   0.666
  177fsi    FSI 1435   3.276   1.106   2.289
  177fsi    SBT 1436   3.295   1.046   2.145
  177fsi    NBT 1437   3.382   1.156   2.074
  177fsi    OBT 1438   3.365   0.922   2.165
  177fsi    OBT 1439   3.161   1.039   2.094
  177fsi    SBT 1440   3.537   1.171   2.083
  177fsi    OBT 1441   3.599   1.107   2.195
  177fsi    OBT 1442   3.584   1.302   2.048
  177fsi    FSI 1443   3.584   1.085   1.960
  178fsi    FSI 1444   4.379   4.639   2.791
  178fsi    SBT 1445   4.527   4.694   2.794
  178fsi    NBT 1446   4.608   4.561   2.786
  178fsi    OBT 1447   4.535   4.778   2.677
  178fsi    OBT 1448   4.532   4.761   2.921
  178fsi    SBT 1449   4.646   4.482   2.655
  178fsi    OBT 1450   4.561   4.512   2.543
  178fsi    OBT 1451   4.674   4.343   2.678
  178fsi    FSI 1452   4.784   4.544   2.615
  179fsi    FSI 1453   1.174   1.358   4.732
  179fsi    SBT 1454   1.028   1.345   4.675
  179fsi    NBT 1455   0.953   1.460   4.751
  179fsi    OBT 1456   1.041   1.368   4.533
  179fsi    OBT 1457   0.985   1.215   4.716
  179fsi    SBT 1458   0.953   1.612   4.711
  179fsi    OBT 1459   1.060   1.652   4.624
  179fsi    OBT 1460   0.922   1.698   4.821
  179fsi    FSI 1461   0.824   1.621   4.620
  180fsi    FSI 1462   0.915   5.394   2.441
  180fsi    SBT 1463   1.005   5.264   2.450
  180fsi    NBT 1464   1.131   5.322   2.523
  180fsi    OBT 1465   0.925   5.174   2.529
  180fsi    OBT 1466   1.026   5.231   2.312
  180fsi    SBT 1467   1.149   5.338   2.678
  180fsi    OBT 1468   1.025   5.346   2.752
  180fsi    OBT 1469   1.248   5.436   2.714
  180fsi    FSI 1470   1.212   5.201   2.721
  181fsi    FSI 1471   4.003   2.666   0.645
  181fsi    SBT 1472   4.004   2.764   0.768
  181fsi    NBT 1473   3.862   2.828   0.757
  181fsi    OBT 1474   4.024   2.677   0.881
  181fsi    OBT 1475   4.111   2.854   0.735
  181fsi    SBT 1476   3.729   2.766   0.812
  181fsi    OBT 1477   3.735   2.623   0.833
  181fsi    OBT 1478   3.612   2.815   0.744
  181fsi    FSI 1479   3.719   2.827   0.957
  182fsi    FSI 1480   3.175   4.170   1.817
  182fsi    SBT 1481   3.199   4.318   1.766
  182fsi    NBT 1482   3.354   4.333   1.784
  182fsi    OBT 1483   3.155   4.316   1.629
  182fsi    OBT 1484   3.125   4.398   1.859
  182fsi    SBT 1485   3.463   4.284   1.683
  182fsi    OBT 1486   3.420   4.181   1.592
  182fsi    OBT 1487   3.591   4.266   1.745
  182fsi    FSI 1488   3.484   4.411   1.592
  183fsi    FSI 1489   4.653   3.745   3.457
  183fsi    SBT 1490   4.688   3.871   3.369
  183fsi    NBT 1491   4.587   3.853   3.251
  183fsi    OBT 1492   4.658   3.982   3.457
  183fsi    OBT 1493   4.825   3.850   3.333
  183fsi    SBT 1494   4.437   3.898   3.249
  183fsi    OBT 1495   4.378   3.910   3.380
  183fsi    OBT 1496   4.359   3.824   3.154
  183fsi    FSI 1497   4.444   4.044   3.191
  184fsi    FSI 1498   2.842   3.532   3.299
  184fsi    SBT 1499   2.774   3.471   3.428
  184fsi    NBT 1500   2.653   3.568   3.450
  184fsi    OBT 1501   2.734   3.339   3.390
  184fsi    OBT 1502   2.874   3.484   3.530
  184fsi    SBT 1503   2.515   3.558   3.376
  184fsi    OBT 1504   2.516   3.487   3.251
  184fsi    OBT 1505   2.443   3.683   3.380
  184fsi    FSI 1506   2.431   3.465   3.473
  185fsi    FSI 1507   1.396   2.120   3.515
  185fsi    SBT 1508   1.361   1.970   3.545
  185fsi    NBT 1509   1.298   1.924   3.408
  185fsi    OBT 1510   1.488   1.909   3.573
  185fsi    OBT 1511   1.264   1.977   3.650
  185fsi    SBT 1512   1.378   1.876   3.282
  185fsi    OBT 1513   1.515   1.918   3.275
  185fsi    OBT 1514   1.303   1.887   3.160
  185fsi    FSI 1515   1.388   1.721   3.305
  186fsi    FSI 1516   1.101   0.537   4.706
  186fsi    SBT 1517   1.229   0.592   4.634
  186fsi    NBT 1518   1.333   0.595   4.751
  186fsi    OBT 1519   1.257   0.495   4.531
  186fsi    OBT 1520   1.189   0.723   4.591
  186fsi    SBT 1521   1.417   0.473   4.802
  186fsi    OBT 1522   1.364   0.344   4.764
  186fsi    OBT 1523   1.461   0.488   4.937
  186fsi    FSI 1524   1.549   0.486   4.717
  187fsi    FSI 1525   2.375   4.412   0.756
  187fsi    SBT 1526   2.224   4.402   0.713
  187fsi    NBT 1527   2.150   4.474   0.830
  187fsi    OBT 1528   2.215   4.471   0.587
  187fsi    OBT 1529   2.196   4.261   0.711
  187fsi    SBT 1530   2.134   4.630   0.847
  187fsi    OBT 1531   2.224   4.709   0.768
  187fsi    OBT 1532   2.110   4.670   0.982
  187fsi    FSI 1533   1.995   4.654   0.777
  188fsi    FSI 1534   3.735   3.094   0.604
  188fsi    SBT 1535   3.726   3.207   0.713
  188fsi    NBT 1536   3.867   3.198   0.781
  188fsi    OBT 1537   3.706   3.327   0.636
  188fsi    OBT 1538   3.619   3.165   0.797
  188fsi    SBT 1539   3.999   3.262   0.728
  188fsi    OBT 1540   3.998   3.297   0.588
  188fsi    OBT 1541   4.118   3.199   0.778
  188fsi    FSI 1542   3.999   3.402   0.802
  189fsi    FSI 1543   4.910   5.537   0.472
  189fsi    SBT 1544   4.958   5.440   0.357
  189fsi    NBT 1545   5.104   5.406   0.403
  189fsi    OBT 1546   4.867   5.330   0.363
  189fsi    OBT 1547   4.954   5.523   0.240
  189fsi    SBT 1548   5.145   5.297   0.508
  189fsi    OBT 1549   5.038   5.257   0.597
  189fsi    OBT 1550   5.273   5.322   0.567
  189fsi    FSI 1551   5.169   5.171   0.417
  190fsi    FSI 1552   5.072   1.848   4.689
  190fsi    SBT 1553   5.195   1.910   4.613
  190fsi    NBT 1554   5.315   1.852   4.695
  190fsi    OBT 1555   5.183   1.863   4.479
  190fsi    OBT 1556   5.176   2.051   4.639
  190fsi    SBT 1557   5.376   1.709   4.678
  190fsi    OBT 1558   5.288   1.614   4.615
  190fsi    OBT 1559   5.446   1.666   4.796
  190fsi    FSI 1560   5.491   1.733   4.573
  191fsi    FSI 1561   4.607   3.157   3.526
  191fsi    SBT 1562   4.587   3.010   3.580
  191fsi    NBT 1563   4.431   2.996   3.575
  191fsi    OBT 1564   4.658   2.927   3.487
  191fsi    OBT 1565   4.638   3.016   3.714
  191fsi    SBT 1566   4.347   2.958   3.448
  191fsi    OBT 1567   4.414   2.980   3.323
  191fsi    OBT 1568   4.211   3.003   3.458
  191fsi    FSI 1569   4.336   2.801   3.460
  192fsi    FSI 1570   3.255   4.793   0.525
  192fsi    SBT 1571   3.180   4.877   0.414
  192fsi    NBT 1572   3.275   4.999   0.394
  192fsi    OBT 1573   3.176   4.793   0.297
  192fsi    OBT 1574   3.056   4.917   0.474
  192fsi    SBT 1575   3.401   5.000   0.301
  192fsi    OBT 1576   3.457   4.872   0.269
  192fsi    OBT 1577   3.492   5.106   0.333
  192fsi    FSI 1578   3.338   5.049   0.165
  193fsi    FSI 1579   1.585   2.862   2.351
  193fsi    SBT 1580   1.741   2.881   2.360
  193fsi    NBT 1581   1.756   3.037   2.338
  193fsi    OBT 1582   1.774   2.836   2.492
  193fsi    OBT 1583   1.791   2.804   2.250
  193fsi    SBT 1584   1.740   3.147   2.449
  193fsi    OBT 1585   1.663   3.106   2.563
  193fsi    OBT 1586   1.717   3.279   2.397
  193fsi    FSI 1587   1.886   3.158   2.504
  194fsi    FSI 1588   2.747   1.843   2.207
  194fsi    SBT 1589   2.768   1.761   2.340
  194fsi    NBT 1590   2.767   1.874   2.449
  194fsi    OBT 1591   2.654   1.673   2.349
  194fsi    OBT 1592   2.897   1.700   2.325
  194fsi    SBT 1593   2.640   1.941   2.512
  194fsi    OBT 1594   2.518   1.922   2.438
  194fsi    OBT 1595   2.664   2.071   2.566
  194fsi    FSI 1596   2.617   1.852   2.640
  195fsi    FSI 1597   4.049   4.144   4.644
  195fsi    SBT 1598   3.946   4.044   4.710
  195fsi    NBT 1599   3.853   4.140   4.791
  195fsi    OBT 1600   3.881   3.979   4.599
  195fsi    OBT 1601   4.027   3.962   4.795
  195fsi    SBT 1602   3.734   4.224   4.732
  195fsi    OBT 1603   3.736   4.241   4.589
  195fsi    OBT 1604   3.701   4.338   4.813
  195fsi    FSI 1605   3.612   4.127   4.757
  196fsi    FSI 1606   5.205   0.638   4.767
  196fsi    SBT 1607   5.202   0.790   4.807
  196fsi    NBT 1608   5.201   0.783   4.963
  196fsi    OBT 1609   5.323   0.844   4.751
  196fsi    OBT 1610   5.078   0.837   4.752
  196fsi    SBT 1611   5.326   0.764   5.056
  196fsi    OBT 1612   5.442   0.710   4.989
  196fsi    OBT 1613   5.293   0.709   5.184
  196fsi    FSI 1614   5.366   0.913   5.087
  197fsi    FSI 1615   4.394   5.206   3.926
  197fsi    SBT 1616   4.535   5.220   3.993
  197fsi    NBT 1617   4.628   5.148   3.890
  197fsi    OBT 1618   4.554   5.362   4.003
  197fsi    OBT 1619   4.519   5.147   4.116
  197fsi    SBT 1620   4.688   5.211   3.759
  197fsi    OBT 1621   4.620   5.329   3.713
  197fsi    OBT 1622   4.723   5.112   3.662
  197fsi    FSI 1623   4.827   5.264   3.810
  198fsi    FSI 1624   2.307   4.349   2.051
  198fsi    SBT 1625   2.284   4.344   1.895
  198fsi    NBT 1626   2.283   4.189   1.868
  198fsi    OBT 1627   2.157   4.409   1.876
  198fsi    OBT 1628   2.401   4.409   1.842
  198fsi    SBT 1629   2.160   4.095   1.889
  198fsi    OBT 1630   2.061   4.151   1.976
  198fsi    OBT 1631   2.195   3.958   1.911
  198fsi    FSI 1632   2.091   4.095   1.747
  199fsi    FSI 1633   4.349   2.030   4.298
  199fsi    SBT 1634   4.503   2.038   4.326
  199fsi    NBT 1635   4.562   2.004   4.186
  199fsi    OBT 1636   4.526   2.174   4.369
  199fsi    OBT 1637   4.529   1.935   4.422
  199fsi    SBT 1638   4.581   2.103   4.067
  199fsi    OBT 1639   4.502   2.223   4.075
  199fsi    OBT 1640   4.586   2.037   3.939
  199fsi    FSI 1641   4.729   2.152   4.090
  200fsi    FSI 1642   1.457   4.979   2.499
  200fsi    SBT 1643   1.394   4.845   2.447
  200fsi    NBT 1644   1.494   4.803   2.334
  200fsi    OBT 1645   1.396   4.758   2.563
  200fsi    OBT 1646   1.265   4.884   2.399
  200fsi    SBT 1647   1.630   4.729   2.354
  200fsi    OBT 1648   1.683   4.736   2.488
  200fsi    OBT 1649   1.723   4.751   2.247
  200fsi    FSI 1650   1.588   4.578   2.337
   5.96390   5.96390   5.96390
