L3P1 short trajectory practice
 1650
    1Li+     Li    1   3.874   5.171   4.982  0.8206  0.3177 -0.8885
    2Li+     Li    2   1.760   4.625   5.284  1.8803 -1.1962  1.1458
    3Li+     Li    3   3.194   2.480   2.502  0.3813  0.2604  0.5330
    4Li+     Li    4   4.038   1.247   2.026  0.7689  0.2400  0.3096
    5Li+     Li    5   3.904   0.695   3.989 -1.3678  1.8074 -0.0443
    6Li+     Li    6   2.829   2.245   2.421  0.0103  0.3566 -0.4586
    7Li+     Li    7   2.599   4.962   0.718  0.5112  0.6309  0.2555
    8Li+     Li    8   2.566   4.592   0.538 -0.1166 -0.2934 -0.3666
    9Li+     Li    9   0.570   3.421   0.015 -0.9034  0.3971  0.2635
   10Li+     Li   10   1.262   4.325   5.017 -0.1407 -0.0791 -0.3395
   11Li+     Li   11   4.559   2.001   2.777 -0.4355  1.5013  0.6074
   12Li+     Li   12   4.258   1.466   4.141 -0.6268  0.5638 -0.0885
   13Li+     Li   13   2.395   4.159   1.827  0.3595 -0.0107 -0.8472
   14Li+     Li   14   4.073   1.785   2.142  0.1417 -0.0607 -0.0390
   15Li+     Li   15   2.261   5.066   4.982  0.0530  0.2974  0.4476
   16Li+     Li   16   4.586   0.613   2.308  0.4839  0.3195  0.6449
   17Li+     Li   17   1.723   1.977   3.417  0.0805 -0.6404  0.0695
   18Li+     Li   18   3.754   5.363   4.426 -0.1069  0.1249 -0.6585
   19Li+     Li   19   0.740   4.125   4.840  0.2688  0.4251  1.1831
   20Li+     Li   20   3.613   1.179   2.364  0.7252  1.2038 -0.2187
   21Li+     Li   21   1.232   5.793   0.083 -0.4631  0.2687  2.0114
   22Li+     Li   22   3.812   5.573   3.945  0.7995  0.2752  0.4269
   23Li+     Li   23   4.714   1.557   2.646  0.2642  0.8146  0.0358
   24Li+     Li   24   4.152   5.503   4.551 -0.4101  0.7026 -0.6546
   25Li+     Li   25   1.953   3.115   1.407 -0.8318  0.9061  1.0831
   26Li+     Li   26   3.608   1.505   2.633  0.9636 -1.1470  0.2864
   27Li+     Li   27   4.441   5.002   3.629  0.1217  0.0259 -0.6213
   28Li+     Li   28   1.015   3.975   4.617 -0.0666  1.3256  0.4507
   29Li+     Li   29   1.688   1.575   3.847 -0.8044 -0.8146 -0.1946
   30Li+     Li   30   3.449   2.273   0.385  0.7632 -0.5353 -0.5159
   31Li+     Li   31   4.393   1.013   4.860 -0.1916 -0.7854 -0.2561
   32Li+     Li   32   1.413   3.261   1.361  0.5770  0.1857 -0.0052
   33Li+     Li   33   1.800   2.585   2.832 -0.1697 -0.1138  0.3061
   34Li+     Li   34   1.182   1.417   4.404  0.5832  1.1398  0.0404
   35Li+     Li   35   3.462   2.778   0.399 -0.0571 -0.3207 -0.8992
   36Li+     Li   36   4.204   1.259   3.751  0.6098 -0.6600 -0.4597
   37Li+     Li   37   2.243   3.593   1.925  0.1222  0.8524  0.2692
   38Li+     Li   38   2.495   4.815   2.496 -0.3491  0.3731 -0.4446
   39Li+     Li   39   2.200   2.197   3.198  0.5425 -0.8485  0.1054
   40Li+     Li   40   1.409   5.401   0.555  0.6786  0.3548 -0.1512
   41Li+     Li   41   1.034   5.818   0.559  0.1110  0.4852  0.6184
   42Li+     Li   42   4.631   1.179   3.859 -0.8676 -0.8940 -0.7233
   43Li+     Li   43   0.824   0.386   2.754  0.4823  0.5742 -0.4745
   44Li+     Li   44   2.412   5.019   1.158 -0.4691 -0.4576 -0.3346
   45Li+     Li   45   2.504   3.248   4.169  0.5432 -0.7151  0.4807
   46Li+     Li   46   4.606   5.035   1.052  0.3399 -0.4492 -0.1040
   47Li+     Li   47   2.201   5.055   5.498  0.2088 -1.8171  1.0725
   48Li+     Li   48   2.113   1.575   3.309 -0.8795 -0.1166  1.0880
   49Li+     Li   49   4.177   5.071   4.065 -1.2788  1.6055 -0.0212
   50Li+     Li   50   4.698   5.083   4.159  0.1127 -0.6077 -0.4134
   51Li+     Li   51   3.560   4.637   5.392 -0.5376 -0.5435 -0.0739
   52Li+     Li   52   3.490   1.954   2.327 -0.6567  0.4306  0.5150
   53Li+     Li   53   4.521   2.974   2.553  0.9310  0.2771  0.5051
   54Li+     Li   54   2.060   4.765   1.980 -0.7051  0.2272  0.5837
   55Li+     Li   55   2.076   5.057   1.696  1.3143  1.0055  1.3567
   56Li+     Li   56   2.569   5.304   2.869  0.2824 -1.4451 -0.9565
   57Li+     Li   57   2.262   5.072   2.206  0.2275  1.2504  1.0042
   58Li+     Li   58   4.314   2.122   2.366 -0.6962  0.7331  0.4632
   59Li+     Li   59   3.451   5.080   5.697 -0.0838  1.1267  1.0433
   60Li+     Li   60   3.841   0.689   2.817  0.4509 -1.0339  0.6551
   61Li+     Li   61   4.696   1.355   4.571  0.1052  0.1172  0.4263
   62Li+     Li   62   3.352   3.667   1.482  0.3871 -0.2675 -1.5422
   63Li+     Li   63   2.300   2.812   3.951  0.6038  1.0346 -0.1798
   64Li+     Li   64   1.746   4.138   5.328 -0.1602  0.7540  0.9346
   65Li+     Li   65   4.003   0.699   2.415 -0.1920  0.8177 -0.2482
   66Li+     Li   66   4.159   4.591   3.773 -0.2434 -0.1060  0.3275
   67Li+     Li   67   4.507   4.520   3.959  0.2941  0.0290  0.1752
   68Li+     Li   68   4.674   2.534   2.392 -1.5264 -0.0271 -0.6138
   69Li+     Li   69   1.162   5.324   1.007 -0.6398  0.4735  1.9099
   70Li+     Li   70   2.877   5.020   0.314  0.4873 -0.4517 -0.3805
   71Li+     Li   71   1.256   1.190   3.999  0.9845 -0.0889 -0.1657
   72Li+     Li   72   2.565   4.748   1.738 -0.3089  0.2903 -1.5727
   73Li+     Li   73   3.572   4.035   1.724  0.8292  0.3939  0.5632
   74Li+     Li   74   2.106   3.090   1.881 -0.5148 -0.4113 -0.6955
   75Li+     Li   75   4.195   0.955   4.410  0.7729 -0.8835  0.6035
   76c3c     N4   76   3.581   2.611   1.886  0.2731 -0.2234  0.0179
   76c3c     C1   77   3.526   2.626   2.019 -0.2751  0.3619 -0.0052
   76c3c     C1   78   3.718   2.662   1.901  0.2544 -0.0096 -0.1430
   76c3c     C2   79   3.635   2.582   2.114  0.3115  0.2670  0.2634
   76c3c     C2   80   3.762   2.617   2.042  0.2227  0.1692  0.4506
   76c3c     C1   81   3.594   2.470   1.852  0.4916  0.0611  0.4366
   76c3c     C1   82   3.509   2.680   1.777  0.3018  0.3336 -0.4030
   76c3c     H1   83   3.432   2.573   2.033 -0.2971  0.5704  0.6588
   76c3c     H1   84   3.504   2.730   2.044 -0.0305  0.6362 -0.9002
   76c3c     H1   85   3.789   2.632   1.825  0.2914 -0.0117 -0.1071
   76c3c     H1   86   3.724   2.771   1.894  0.7842  0.0221  0.6798
   76c3c     HC   87   3.641   2.474   2.130 -0.6081  0.1085 -0.4598
   76c3c     HC   88   3.623   2.627   2.213 -1.4492  0.0506  0.1676
   76c3c     HC   89   3.817   2.524   2.037 -1.4665 -0.8682  0.8273
   76c3c     HC   90   3.818   2.693   2.097  1.9818 -0.5960 -0.2597
   76c3c     H1   91   3.495   2.430   1.827  0.1931 -0.0727  1.7997
   76c3c     H1   92   3.657   2.446   1.766 -1.1648 -1.8559 -0.2858
   76c3c     H1   93   3.632   2.403   1.929  1.2212  0.1951  0.1971
   76c3c     H1   94   3.564   2.675   1.683  0.2864  0.8078 -0.4366
   76c3c     H1   95   3.417   2.623   1.761  0.4493 -0.0703  0.1711
   76c3c     C2   96   3.465   2.825   1.809  0.1205  0.0751 -0.0333
   76c3c     HC   97   3.547   2.888   1.841  0.3779 -0.3257  0.0982
   76c3c     HC   98   3.385   2.829   1.883 -0.4896  0.6655 -0.7142
   76c3c     CT   99   3.414   2.888   1.678  0.1204 -0.0562 -0.2283
   76c3c     HC  100   3.375   2.816   1.606  0.7037  0.1496 -0.7619
   76c3c     HC  101   3.493   2.947   1.631 -0.3181  0.1721 -0.6833
   76c3c     HC  102   3.333   2.957   1.702  0.1665  0.0240 -0.3016
   77c3c     N4  103   3.742   1.217   4.457 -0.2194 -0.5237 -0.3753
   77c3c     C1  104   3.597   1.213   4.472  0.0444 -0.4656 -0.2892
   77c3c     C1  105   3.786   1.203   4.595 -0.0830 -0.8203 -0.5238
   77c3c     C2  106   3.565   1.111   4.583 -0.1308 -0.0945 -0.5524
   77c3c     C2  107   3.695   1.101   4.663  0.0683  0.4425 -0.0936
   77c3c     C1  108   3.786   1.094   4.380 -0.0691 -0.6584  0.2494
   77c3c     C1  109   3.793   1.339   4.392 -0.1364 -0.3893 -0.4159
   77c3c     H1  110   3.542   1.188   4.381  0.4928 -0.0427 -0.6864
   77c3c     H1  111   3.561   1.311   4.503  0.8713 -0.2987  0.1373
   77c3c     H1  112   3.892   1.180   4.605  0.2560  0.6890 -0.5687
   77c3c     H1  113   3.773   1.298   4.645 -0.7925 -0.5763 -1.1631
   77c3c     HC  114   3.539   1.014   4.540 -0.8527  0.3023 -1.0141
   77c3c     HC  115   3.483   1.148   4.644  0.1547  0.3127 -0.4096
   77c3c     HC  116   3.743   1.004   4.654  0.2038  0.4261  0.6965
   77c3c     HC  117   3.685   1.119   4.771 -1.1270  0.3536 -0.1786
   77c3c     H1  118   3.771   1.103   4.272  1.6264  0.1067  0.0583
   77c3c     H1  119   3.895   1.095   4.387 -0.0386 -0.1154 -0.2949
   77c3c     H1  120   3.748   0.997   4.413  0.4682 -0.6613  0.8547
   77c3c     H1  121   3.890   1.321   4.346  0.1743  0.7649 -0.2235
   77c3c     H1  122   3.730   1.353   4.304 -0.8951 -0.6799  0.0772
   77c3c     C2  123   3.808   1.475   4.465 -0.2958 -0.3497 -0.6170
   77c3c     HC  124   3.869   1.469   4.555 -0.6907  0.5642 -0.2790
   77c3c     HC  125   3.712   1.514   4.499  0.0566  0.2775 -0.3275
   77c3c     CT  126   3.860   1.589   4.370 -0.0252 -0.3888 -0.2175
   77c3c     HC  127   3.784   1.616   4.298  0.3710  0.5710 -0.2855
   77c3c     HC  128   3.950   1.564   4.314  0.7757 -0.2528  0.9959
   77c3c     HC  129   3.879   1.676   4.433 -0.1939 -0.4027 -0.1463
   78c3c     N4  130   2.229   2.952   3.186  0.2531  0.3695  0.3513
   78c3c     C1  131   2.255   2.839   3.095  0.3303  0.3608  0.5987
   78c3c     C1  132   2.085   2.946   3.210  0.2172 -0.4411  0.0777
   78c3c     C2  133   2.161   2.729   3.140 -0.2794  0.2237  0.1702
   78c3c     C2  134   2.052   2.798   3.216 -0.1281  0.3772 -0.0911
   78c3c     C1  135   2.307   2.930   3.309  0.2222  0.4222  0.2200
   78c3c     C1  136   2.270   3.083   3.131  0.2786  1.3351  0.2449
   78c3c     H1  137   2.360   2.808   3.094  0.0856 -0.4780 -0.4750
   78c3c     H1  138   2.230   2.867   2.992  0.9235 -0.0692  0.3349
   78c3c     H1  139   2.053   3.002   3.298  0.8052 -0.4842  0.3215
   78c3c     H1  140   2.030   2.986   3.125  1.0177 -1.2752 -0.8444
   78c3c     HC  141   2.216   2.663   3.206 -1.1823 -0.5224  0.1825
   78c3c     HC  142   2.120   2.672   3.056 -0.7590  0.0825  0.4950
   78c3c     HC  143   2.050   2.766   3.321  0.4131 -0.0069 -0.1952
   78c3c     HC  144   1.956   2.768   3.174 -0.0265 -1.4987  0.9508
   78c3c     H1  145   2.413   2.951   3.291  0.4920 -0.2153  1.0219
   78c3c     H1  146   2.277   2.999   3.388 -0.4811 -1.4785  1.6376
   78c3c     H1  147   2.296   2.829   3.347  1.8736 -0.4195 -1.4352
   78c3c     H1  148   2.246   3.158   3.206 -0.7236  0.4477  0.8150
   78c3c     H1  149   2.379   3.081   3.121  0.3618  0.3798  1.2251
   78c3c     C2  150   2.207   3.140   2.999 -0.1132  0.3064  0.3692
   78c3c     HC  151   2.101   3.162   3.012 -0.2538  0.5899 -1.2223
   78c3c     HC  152   2.214   3.070   2.917  0.6745 -0.2401  0.8969
   78c3c     CT  153   2.273   3.269   2.945  0.7417 -0.2454 -0.3169
   78c3c     HC  154   2.227   3.305   2.853  0.9054  0.9323  0.0479
   78c3c     HC  155   2.380   3.254   2.926  0.4414 -1.0922 -1.3664
   78c3c     HC  156   2.259   3.352   3.014  1.9888  0.1696 -0.5501
   79c3c     N4  157   3.658   1.178   3.476 -0.0708 -0.0704 -0.2411
   79c3c     C1  158   3.678   1.297   3.392 -0.0462  0.1551 -0.5482
   79c3c     C1  159   3.786   1.109   3.474  0.2142  0.2788 -0.6051
   79c3c     C2  160   3.825   1.342   3.414 -0.3024 -0.4778 -0.1781
   79c3c     C2  161   3.892   1.223   3.480  0.2119 -0.2078 -0.4719
   79c3c     C1  162   3.630   1.217   3.615  0.3666  0.3494 -0.3031
   79c3c     C1  163   3.540   1.102   3.434 -0.1322  0.1341  0.1919
   79c3c     H1  164   3.609   1.377   3.419  0.9512  0.3775  1.4607
   79c3c     H1  165   3.663   1.280   3.285 -1.9409  0.3988 -0.3392
   79c3c     H1  166   3.796   1.027   3.545 -0.0596  0.3998 -0.4293
   79c3c     H1  167   3.797   1.063   3.376 -0.2037 -1.2270  0.0463
   79c3c     HC  168   3.832   1.426   3.484  1.0685 -1.0300  0.3754
   79c3c     HC  169   3.876   1.366   3.321  0.2377  0.4362  0.3439
   79c3c     HC  170   3.915   1.246   3.584  1.1323  2.0356 -1.1538
   79c3c     HC  171   3.986   1.194   3.434  0.0406  0.6510 -1.3760
   79c3c     H1  172   3.532   1.264   3.621 -0.0655 -0.6252  0.4397
   79c3c     H1  173   3.630   1.129   3.679  0.7292  0.4620 -0.1431
   79c3c     H1  174   3.701   1.286   3.660 -0.0990  1.3108 -1.0407
   79c3c     H1  175   3.517   1.027   3.510 -0.5834 -0.3929 -0.4620
   79c3c     H1  176   3.453   1.167   3.436  0.7216  1.3384 -1.2705
   79c3c     C2  177   3.546   1.029   3.300 -0.1248 -0.6407 -0.0494
   79c3c     HC  178   3.608   0.940   3.311 -1.0755 -1.1695  1.1598
   79c3c     HC  179   3.591   1.089   3.221 -0.8670 -0.2443 -0.1761
   79c3c     CT  180   3.406   0.980   3.253 -0.1229  0.0613  0.1969
   79c3c     HC  181   3.331   1.058   3.245  0.5031  0.6960  0.5187
   79c3c     HC  182   3.374   0.902   3.322  0.7783 -0.9768 -0.5265
   79c3c     HC  183   3.411   0.938   3.153  0.3150  0.9036 -0.1372
   80c3c     N4  184   3.904   0.234   4.387 -0.5644  0.4725 -0.3206
   80c3c     C1  185   3.849   0.102   4.426 -0.2201  0.8115 -0.3272
   80c3c     C1  186   4.012   0.199   4.291 -0.3053  0.0643  0.1691
   80c3c     C2  187   3.848   0.022   4.300  0.0022  0.0127 -0.1620
   80c3c     C2  188   3.966   0.075   4.213  0.5868  0.0045 -0.5547
   80c3c     C1  189   3.802   0.313   4.318  0.0976  0.3582 -0.6728
   80c3c     C1  190   3.941   0.316   4.504 -0.2702  0.7604  0.3210
   80c3c     H1  191   3.751   0.105   4.474 -0.3277 -0.1447 -0.4765
   80c3c     H1  192   3.916   0.045   4.491 -1.0400  1.3543  1.0230
   80c3c     H1  193   4.048   0.284   4.232  1.3248 -0.5182  0.2923
   80c3c     H1  194   4.099   0.159   4.344 -0.7454 -1.2793 -0.1114
   80c3c     HC  195   3.755   0.036   4.244 -0.0900 -0.2177 -0.0678
   80c3c     HC  196   3.855  -0.084   4.325  0.2382  0.2053  0.6048
   80c3c     HC  197   3.934   0.100   4.112 -0.6722  0.3648 -0.0714
   80c3c     HC  198   4.048   0.004   4.200  1.3485  0.8358 -0.3147
   80c3c     H1  199   3.721   0.324   4.389 -0.5616 -2.4997 -0.9029
   80c3c     H1  200   3.839   0.411   4.289 -1.0887  1.3551  1.0787
   80c3c     H1  201   3.764   0.264   4.228  0.8968 -0.6427 -0.4701
   80c3c     H1  202   3.961   0.419   4.474  1.3320  0.5113  0.4912
   80c3c     H1  203   3.860   0.325   4.576  0.3373  1.8654  0.8849
   80c3c     C2  204   4.065   0.261   4.573 -0.6174  0.0083 -0.1006
   80c3c     HC  205   4.156   0.253   4.513 -0.7856 -1.0729 -0.2086
   80c3c     HC  206   4.050   0.160   4.611 -0.7819  0.5954  1.4135
   80c3c     CT  207   4.108   0.347   4.685 -0.3623 -0.3210 -0.6798
   80c3c     HC  208   4.041   0.350   4.771  0.9825  0.6764  0.3534
   80c3c     HC  209   4.123   0.449   4.649 -0.8161 -0.3307 -0.8957
   80c3c     HC  210   4.203   0.305   4.717  0.2978  0.2986 -1.7972
   81c3c     N4  211   4.497   5.362   4.855 -0.6480  0.2262  0.1154
   81c3c     C1  212   4.523   5.509   4.851 -0.0972  0.4659  0.5647
   81c3c     C1  213   4.557   5.322   4.982 -0.0699  0.8881 -0.0843
   81c3c     C2  214   4.521   5.561   4.996  0.0303  0.2996  0.0944
   81c3c     C2  215   4.524   5.436   5.080 -0.5683  0.4646  0.3903
   81c3c     C1  216   4.352   5.343   4.864 -0.8891  0.2491 -0.1211
   81c3c     C1  217   4.544   5.286   4.739 -0.5511  0.5430 -0.2798
   81c3c     H1  218   4.448   5.567   4.795  0.2327  0.5359  0.1904
   81c3c     H1  219   4.621   5.526   4.806 -0.6726  0.4099 -0.7613
   81c3c     H1  220   4.527   5.226   5.022  0.8355  0.6813  0.1133
   81c3c     H1  221   4.666   5.310   4.985 -0.1611  0.0061 -0.3478
   81c3c     HC  222   4.433   5.621   5.016  0.1418 -0.0112  1.5895
   81c3c     HC  223   4.607   5.625   5.013  0.1429  0.4872 -1.1617
   81c3c     HC  224   4.427   5.416   5.126 -1.2354  0.7363 -0.8635
   81c3c     HC  225   4.598   5.436   5.160 -0.5134  0.4071  0.3398
   81c3c     H1  226   4.308   5.386   4.775  0.7102  2.1088 -0.0590
   81c3c     H1  227   4.328   5.237   4.875 -0.1774  0.0572 -0.3468
   81c3c     H1  228   4.305   5.396   4.947  0.0471 -1.3138  1.4495
   81c3c     H1  229   4.518   5.181   4.749  0.3222  0.1974 -1.3940
   81c3c     H1  230   4.490   5.317   4.649 -0.1502  1.1300 -0.3192
   81c3c     C2  231   4.702   5.282   4.722 -0.4862 -0.4702 -0.2818
   81c3c     HC  232   4.736   5.230   4.811 -0.5870  1.3400  0.8393
   81c3c     HC  233   4.753   5.378   4.714  0.7302 -1.0657  0.2274
   81c3c     CT  234   4.743   5.196   4.605 -0.3235  0.0968  0.2688
   81c3c     HC  235   4.850   5.177   4.596 -0.4604 -0.2650 -0.6398
   81c3c     HC  236   4.713   5.243   4.511 -1.7326 -1.4052 -0.0568
   81c3c     HC  237   4.694   5.099   4.610 -0.0427 -0.0236  0.6947
   82c3c     N4  238   4.282   1.191   2.894  0.1717  0.3028  0.5330
   82c3c     C1  239   4.217   1.065   2.851  0.7291 -0.0497  0.0701
   82c3c     C1  240   4.357   1.221   2.773  0.1634  0.1175  0.0438
   82c3c     C2  241   4.165   1.092   2.707  0.4486  0.2230 -0.4544
   82c3c     C2  242   4.266   1.192   2.652 -0.1881  0.0062 -0.0171
   82c3c     C1  243   4.186   1.297   2.931 -0.5007 -0.1220  0.3645
   82c3c     C1  244   4.365   1.164   3.015 -0.2296 -0.3054  0.8427
   82c3c     H1  245   4.142   1.036   2.924  0.1529  0.9533 -0.1156
   82c3c     H1  246   4.292   0.985   2.848 -0.0013 -0.7275 -0.1668
   82c3c     H1  247   4.414   1.313   2.766 -0.7320  0.7562  1.0610
   82c3c     H1  248   4.435   1.146   2.761  0.4056  0.3510  0.1820
   82c3c     HC  249   4.066   1.135   2.720  0.5077  0.4320 -0.7087
   82c3c     HC  250   4.146   0.998   2.654 -1.0158  0.8512 -1.0406
   82c3c     HC  251   4.218   1.283   2.617  0.9913  0.7453  0.2385
   82c3c     HC  252   4.325   1.154   2.567  0.4522  0.5805  0.1646
   82c3c     H1  253   4.140   1.279   3.028  0.9601  2.4108  1.5899
   82c3c     H1  254   4.234   1.394   2.945 -0.5718 -0.0142 -0.1238
   82c3c     H1  255   4.111   1.312   2.854 -0.9693 -0.0182  0.8412
   82c3c     H1  256   4.388   1.257   3.068  0.3383 -1.3187  2.4034
   82c3c     H1  257   4.308   1.098   3.080  1.2060 -1.4137  1.0018
   82c3c     C2  258   4.501   1.094   2.993 -0.4226  0.4203  0.2843
   82c3c     HC  259   4.560   1.157   2.927  0.0379  0.4397  0.7138
   82c3c     HC  260   4.484   0.996   2.947 -1.9895  1.5687 -1.6656
   82c3c     CT  261   4.575   1.073   3.127 -0.2439  0.0100  0.2910
   82c3c     HC  262   4.661   1.007   3.110 -0.8917 -0.6050 -0.6459
   82c3c     HC  263   4.504   1.031   3.199 -1.5633  1.6429 -0.0335
   82c3c     HC  264   4.614   1.164   3.171  1.1750 -0.2369 -0.4217
   83c3c     N4  265   3.164   1.637   2.062  0.0456  0.5711  0.2742
   83c3c     C1  266   3.102   1.723   1.959  0.3170  0.1136  0.4255
   83c3c     C1  267   3.132   1.502   2.019  0.4688  0.2076  0.3081
   83c3c     C2  268   3.123   1.649   1.826  0.3201  0.7080  0.7818
   83c3c     C2  269   3.129   1.500   1.868 -0.0757  0.0136  0.2818
   83c3c     C1  270   3.310   1.648   2.067  0.6042 -0.1428  0.7656
   83c3c     C1  271   3.105   1.668   2.196 -0.1454 -0.7019 -0.0126
   83c3c     H1  272   3.149   1.821   1.957 -0.7336  0.6158 -0.3204
   83c3c     H1  273   2.997   1.745   1.983  0.3691  0.5342  0.2813
   83c3c     H1  274   3.202   1.428   2.059  0.6240  0.3878  0.3670
   83c3c     H1  275   3.038   1.463   2.060  0.8174  0.3980  1.2979
   83c3c     HC  276   3.221   1.671   1.783  0.1456 -0.1758 -0.0995
   83c3c     HC  277   3.047   1.669   1.751  0.3212  0.3764  0.6931
   83c3c     HC  278   3.211   1.443   1.824 -0.9474 -0.3905 -0.8616
   83c3c     HC  279   3.038   1.450   1.836 -0.8195  0.2996  1.9544
   83c3c     H1  280   3.346   1.745   2.099 -0.0738  0.4072 -0.1123
   83c3c     H1  281   3.351   1.574   2.137  1.7822 -0.5694 -0.3739
   83c3c     H1  282   3.360   1.630   1.973  2.4674 -2.0152  2.0720
   83c3c     H1  283   3.153   1.598   2.265  0.5494 -1.0144 -0.8026
   83c3c     H1  284   3.143   1.767   2.222 -1.7828 -0.0599 -0.0229
   83c3c     C2  285   2.949   1.668   2.234 -0.5893  0.0189  0.2925
   83c3c     HC  286   2.902   1.571   2.217  0.0678 -0.2349 -0.0803
   83c3c     HC  287   2.891   1.733   2.169 -0.4055  0.1605  0.2694
   83c3c     CT  288   2.923   1.705   2.382  0.2782  0.0196  0.3035
   83c3c     HC  289   2.941   1.812   2.399 -0.2415  0.3227 -1.0018
   83c3c     HC  290   2.986   1.651   2.453 -0.5224 -0.6062  0.5386
   83c3c     HC  291   2.819   1.685   2.408 -0.2349  1.7647 -0.3066
   84c3c     N4  292   4.961   1.021   3.425 -0.1591  0.3678 -0.7022
   84c3c     C1  293   4.879   1.103   3.516 -0.2956 -0.4087 -0.7938
   84c3c     C1  294   5.100   1.030   3.477  0.0681  0.1215  0.2967
   84c3c     C2  295   4.942   1.082   3.655 -0.1224  0.2512 -0.1291
   84c3c     C2  296   5.075   1.006   3.628 -1.1110  0.0838  0.4525
   84c3c     C1  297   4.914   0.880   3.428  0.3727 -0.4330 -0.7543
   84c3c     C1  298   4.949   1.065   3.285  0.8044  0.0739 -0.3470
   84c3c     H1  299   4.774   1.075   3.510 -0.1818 -0.8668 -0.6290
   84c3c     H1  300   4.879   1.208   3.487 -1.4441 -0.7014 -1.8920
   84c3c     H1  301   5.162   0.954   3.428  0.6499  1.4980 -1.1675
   84c3c     H1  302   5.144   1.129   3.463  0.3639  0.0228  0.5317
   84c3c     HC  303   4.876   1.027   3.723 -0.0864  2.3853  1.7110
   84c3c     HC  304   4.969   1.176   3.704  0.0109 -0.1489  0.5697
   84c3c     HC  305   5.058   0.903   3.657 -2.1237  0.6109  1.7570
   84c3c     HC  306   5.157   1.049   3.685 -0.9311  1.1761 -0.6090
   84c3c     H1  307   4.811   0.872   3.391  0.2476  1.1606 -0.8049
   84c3c     H1  308   4.974   0.820   3.360  2.6920  0.4118  0.4853
   84c3c     H1  309   4.911   0.824   3.521 -1.8345 -1.0552 -1.1671
   84c3c     H1  310   4.987   0.989   3.217  0.0597  0.1094 -0.8161
   84c3c     H1  311   4.842   1.070   3.263  0.6843  1.7584  0.5378
   84c3c     C2  312   5.011   1.202   3.241  0.6718  0.2890 -0.1842
   84c3c     HC  313   5.116   1.207   3.269  0.6199  0.1222  0.0401
   84c3c     HC  314   4.957   1.287   3.283  0.1533 -0.3626  0.4832
   84c3c     CT  315   5.014   1.228   3.086 -0.4285 -0.3233 -0.3304
   84c3c     HC  316   4.938   1.167   3.037  0.2983 -1.3272 -0.2298
   84c3c     HC  317   5.111   1.201   3.044 -0.8429 -0.5309 -1.1797
   84c3c     HC  318   4.994   1.332   3.063 -1.3411 -0.4975 -0.3733
   85c3c     N4  319   1.681   3.116   2.318  0.1531 -0.0584  0.0031
   85c3c     C1  320   1.694   3.146   2.173  0.4953  0.2064 -0.2093
   85c3c     C1  321   1.545   3.059   2.336 -0.0428  0.3384 -0.0639
   85c3c     C2  322   1.613   3.030   2.106  0.2981  0.0518  0.0255
   85c3c     C2  323   1.516   2.977   2.210  0.2370  0.2329 -0.4842
   85c3c     C1  324   1.771   3.006   2.362 -0.6167  0.1594  0.9528
   85c3c     C1  325   1.716   3.229   2.405  0.0124  0.3193 -0.2177
   85c3c     H1  326   1.798   3.154   2.143  0.8580 -0.3100  0.8905
   85c3c     H1  327   1.643   3.239   2.147 -0.2215 -0.0091  0.4120
   85c3c     H1  328   1.536   2.998   2.426 -0.1835 -0.5547 -0.6823
   85c3c     H1  329   1.472   3.139   2.346  0.2728  0.6178  0.0557
   85c3c     HC  330   1.685   2.955   2.075  0.2889 -0.2064  0.6297
   85c3c     HC  331   1.560   3.067   2.018  0.2454  0.0622  0.0618
   85c3c     HC  332   1.542   2.872   2.220  1.0130  0.3900 -0.8061
   85c3c     HC  333   1.412   2.979   2.177  0.1455 -0.3363 -0.2249
   85c3c     H1  334   1.875   3.020   2.333 -0.2611  0.5532  2.4163
   85c3c     H1  335   1.774   2.992   2.470 -1.9533  1.1328  1.1308
   85c3c     H1  336   1.745   2.906   2.325  0.4336 -0.1320  0.9915
   85c3c     H1  337   1.701   3.197   2.508 -0.9536  1.6594  0.0705
   85c3c     H1  338   1.823   3.245   2.389 -0.0465  0.4824 -0.4597
   85c3c     C2  339   1.640   3.362   2.396 -0.3671  0.2415  0.2154
   85c3c     HC  340   1.531   3.350   2.399 -0.2762 -0.3674  0.9677
   85c3c     HC  341   1.661   3.410   2.300 -0.4673 -0.0634  0.0398
   85c3c     CT  342   1.679   3.453   2.512  0.4009  0.4235 -0.0847
   85c3c     HC  343   1.778   3.497   2.495 -0.4591  1.6445 -2.0126
   85c3c     HC  344   1.690   3.395   2.604  1.0781  0.3713 -0.1944
   85c3c     HC  345   1.603   3.529   2.527  0.6556  0.5765  0.4681
   86c3c     N4  346   2.824   2.079   3.094 -0.3431  0.2918  0.0510
   86c3c     C1  347   2.932   2.068   2.997  0.2678 -0.1921  0.1966
   86c3c     C1  348   2.703   2.113   3.016 -0.0818 -0.0962 -0.3550
   86c3c     C2  349   2.860   2.013   2.867  0.2267  0.2863  0.0030
   86c3c     C2  350   2.710   2.023   2.892  0.2794 -0.0940 -0.4891
   86c3c     C1  351   2.815   1.947   3.160 -0.1921  0.6447 -0.1396
   86c3c     C1  352   2.855   2.174   3.204  0.5891  0.3321  0.3275
   86c3c     H1  353   3.014   2.002   3.028  1.0255  0.9496  0.6368
   86c3c     H1  354   2.979   2.161   2.968  1.2107 -0.5848  0.4310
   86c3c     H1  355   2.618   2.085   3.078 -0.5245 -0.4292 -1.0925
   86c3c     H1  356   2.695   2.218   2.989 -1.0960 -0.3984 -1.3077
   86c3c     HC  357   2.891   1.910   2.852  0.1731  0.2149  0.3527
   86c3c     HC  358   2.893   2.071   2.781  1.7273 -0.8440 -0.1962
   86c3c     HC  359   2.667   1.924   2.907 -0.3615  0.0400 -1.4366
   86c3c     HC  360   2.660   2.065   2.805  1.3751  1.6392 -0.3128
   86c3c     H1  361   2.907   1.924   3.215 -0.2997  0.9019  0.1497
   86c3c     H1  362   2.731   1.938   3.229 -0.2258  1.2297 -0.0993
   86c3c     H1  363   2.808   1.865   3.089 -0.4450  0.9380 -0.4542
   86c3c     H1  364   2.774   2.172   3.276 -0.3894 -0.0182 -0.7634
   86c3c     H1  365   2.940   2.138   3.262  0.4254  0.1397  0.4460
   86c3c     C2  366   2.884   2.321   3.167  0.5695 -0.1613  0.5464
   86c3c     HC  367   2.801   2.362   3.110  0.0537  0.2998  1.6099
   86c3c     HC  368   2.970   2.329   3.100 -0.4418  1.1490 -0.6213
   86c3c     CT  369   2.913   2.411   3.287  0.4336  0.4203  0.7733
   86c3c     HC  370   3.010   2.383   3.327 -0.3739 -0.4933  2.1267
   86c3c     HC  371   2.830   2.409   3.358  0.2288  0.2332  0.5295
   86c3c     HC  372   2.919   2.515   3.253 -0.4821  0.7151  1.4477
   87c3c     N4  373   1.895   2.073   2.637  0.1131 -0.8629  0.4970
   87c3c     C1  374   1.925   2.161   2.744  0.0333 -0.4073  0.6056
   87c3c     C1  375   2.027   2.033   2.584  0.1376 -0.3811 -0.1770
   87c3c     C2  376   2.058   2.114   2.805  0.2991 -0.1777  0.1019
   87c3c     C2  377   2.113   2.006   2.709 -0.1534  0.1439 -0.1578
   87c3c     C1  378   1.821   1.960   2.694  0.2405 -0.2243  0.5053
   87c3c     C1  379   1.808   2.134   2.531  0.3139 -0.1489  0.2894
   87c3c     H1  380   1.842   2.175   2.813  0.2449 -0.9715  0.9759
   87c3c     H1  381   1.948   2.261   2.709  0.7243 -0.7466  0.0954
   87c3c     H1  382   2.019   1.952   2.512 -0.6486 -0.7383  0.3090
   87c3c     H1  383   2.076   2.114   2.530 -1.0619  0.5531  0.0971
   87c3c     HC  384   2.044   2.078   2.907  0.7956 -0.7789 -0.0374
   87c3c     HC  385   2.123   2.201   2.811  0.2387 -0.0821 -0.6244
   87c3c     HC  386   2.085   1.908   2.749  1.9747  0.1182  1.3373
   87c3c     HC  387   2.221   2.007   2.694 -0.0359 -0.5282  0.6171
   87c3c     H1  388   1.718   1.987   2.720  0.6216  0.8803  0.8920
   87c3c     H1  389   1.811   1.878   2.623  0.5683 -0.1158  0.3319
   87c3c     H1  390   1.859   1.920   2.788  0.0087  0.8859  1.0820
   87c3c     H1  391   1.775   2.061   2.457 -0.2320  0.5686 -0.1690
   87c3c     H1  392   1.716   2.163   2.581 -0.6740  0.0942 -1.6139
   87c3c     C2  393   1.864   2.259   2.462 -0.0015  0.1217  0.5987
   87c3c     HC  394   1.952   2.233   2.402 -0.1710 -1.1189  0.8757
   87c3c     HC  395   1.896   2.334   2.534  0.3469 -0.7089  1.3120
   87c3c     CT  396   1.758   2.322   2.368  0.7277  0.9700  0.7843
   87c3c     HC  397   1.659   2.293   2.402  0.8985  2.3104  2.4565
   87c3c     HC  398   1.765   2.279   2.268 -1.8936  0.1475  0.9340
   87c3c     HC  399   1.768   2.430   2.365  0.0769  1.0422  1.1875
   88c3c     N4  400   3.248   4.712   0.220 -0.3830 -0.0686 -0.0768
   88c3c     C1  401   3.373   4.729   0.139 -0.7122  0.7540 -0.2593
   88c3c     C1  402   3.246   4.575   0.277 -0.4965 -0.6030  0.0485
   88c3c     C2  403   3.459   4.602   0.159 -0.5499  0.6890 -0.1539
   88c3c     C2  404   3.392   4.527   0.278 -0.6451 -0.3539 -0.6064
   88c3c     C1  405   3.268   4.801   0.336 -0.1125 -0.3747  0.0407
   88c3c     C1  406   3.126   4.748   0.147 -0.1188  0.3561 -0.2714
   88c3c     H1  407   3.430   4.817   0.170 -1.5085  1.0370  0.4322
   88c3c     H1  408   3.354   4.760   0.036  1.2688 -1.0963 -1.2365
   88c3c     H1  409   3.198   4.568   0.375 -0.7794 -0.6588 -0.0930
   88c3c     H1  410   3.187   4.509   0.212 -1.4572 -0.5126  0.8203
   88c3c     HC  411   3.563   4.621   0.186 -1.1964  1.7578  1.7309
   88c3c     HC  412   3.465   4.549   0.065 -3.2618 -0.8131  0.4677
   88c3c     HC  413   3.443   4.549   0.372  0.1620 -0.1411 -1.0834
   88c3c     HC  414   3.397   4.418   0.276  0.9438 -0.2879 -1.7343
   88c3c     H1  415   3.286   4.904   0.305 -0.9141  0.0489  0.9490
   88c3c     H1  416   3.184   4.798   0.406 -0.5376  0.4706 -0.4289
   88c3c     H1  417   3.355   4.784   0.399  0.4095 -0.0239 -0.5802
   88c3c     H1  418   3.041   4.737   0.214 -0.0626  2.7331  0.2367
   88c3c     H1  419   3.129   4.854   0.122 -0.1802 -0.0325 -1.9552
   88c3c     C2  420   3.100   4.675   0.012  0.6099  0.0015 -0.9632
   88c3c     HC  421   3.054   4.577   0.024  0.9216 -0.0791 -0.4393
   88c3c     HC  422   3.193   4.661  -0.042  0.9772  1.8929 -0.8747
   88c3c     CT  423   3.016   4.761  -0.087  0.2059  0.3277 -0.4517
   88c3c     HC  424   2.908   4.752  -0.074  0.6001 -0.1394  3.0173
   88c3c     HC  425   3.040   4.738  -0.191 -0.2405  1.6561 -0.8598
   88c3c     HC  426   3.037   4.867  -0.079 -0.1356  0.2628  1.4812
   89c3c     N4  427   4.719   1.343   2.146 -0.2702 -0.1639  0.1524
   89c3c     C1  428   4.833   1.354   2.234 -0.5455  0.5425 -0.5860
   89c3c     C1  429   4.709   1.478   2.088  0.1626 -0.4082  0.2308
   89c3c     C2  430   4.934   1.447   2.161  0.0885  0.3932 -0.1527
   89c3c     C2  431   4.850   1.520   2.055  0.4228  0.3430 -0.3229
   89c3c     C1  432   4.746   1.243   2.040  0.1179 -0.5571  0.0446
   89c3c     C1  433   4.593   1.306   2.219 -0.1724  0.0315  0.4759
   89c3c     H1  434   4.877   1.257   2.259 -2.6424 -0.3239 -0.1531
   89c3c     H1  435   4.808   1.404   2.327 -1.4762  1.1979 -1.1805
   89c3c     H1  436   4.635   1.483   2.007 -0.8758 -0.8997  1.1313
   89c3c     H1  437   4.674   1.544   2.167  0.2517  0.2711 -0.2958
   89c3c     HC  438   5.016   1.390   2.117 -0.1945  1.0434 -1.5475
   89c3c     HC  439   4.978   1.520   2.229  1.6201  0.0074 -0.6992
   89c3c     HC  440   4.872   1.487   1.954 -0.9635  1.1214 -0.8978
   89c3c     HC  441   4.856   1.629   2.055 -0.0493  0.3744  0.2159
   89c3c     H1  442   4.716   1.143   2.069  2.6967 -0.8589  1.8621
   89c3c     H1  443   4.694   1.274   1.949 -0.4906 -0.7674  0.3252
   89c3c     H1  444   4.851   1.232   2.011 -0.3744  0.7823 -2.4507
   89c3c     H1  445   4.524   1.273   2.142  0.2517 -0.2393  0.2112
   89c3c     H1  446   4.616   1.219   2.281 -0.8146  0.2389  1.0143
   89c3c     C2  447   4.521   1.406   2.313 -0.4531 -0.4810  0.0676
   89c3c     HC  448   4.469   1.485   2.259 -0.6386 -0.7133 -0.0981
   89c3c     HC  449   4.588   1.465   2.374 -0.6007 -0.1069 -0.1316
   89c3c     CT  450   4.410   1.343   2.400 -0.5363  0.5115 -0.4545
   89c3c     HC  451   4.459   1.308   2.491  0.3106 -1.0142 -1.4760
   89c3c     HC  452   4.356   1.260   2.355 -1.6816  1.2026 -0.3590
   89c3c     HC  453   4.340   1.421   2.431  0.2467  1.7366 -1.6857
   90c3c     N4  454   2.352   2.046   3.768  0.1516 -0.3475  0.3128
   90c3c     C1  455   2.356   1.999   3.629  0.1311  0.2009  0.0387
   90c3c     C1  456   2.313   1.920   3.835  0.6397 -0.3921  0.0863
   90c3c     C2  457   2.432   1.866   3.636 -0.9871 -0.1125 -0.0197
   90c3c     C2  458   2.395   1.804   3.770  0.2200 -0.3606  0.0229
   90c3c     C1  459   2.487   2.086   3.806 -0.1494 -0.5220  0.3333
   90c3c     C1  460   2.264   2.162   3.792 -0.0140 -0.1205  0.1651
   90c3c     H1  461   2.404   2.065   3.556 -0.4732  0.9730  0.3313
   90c3c     H1  462   2.257   1.976   3.590 -0.1573  0.6438  0.4934
   90c3c     H1  463   2.325   1.928   3.943  0.6586 -0.3009  0.0779
   90c3c     H1  464   2.208   1.895   3.818  0.4710  0.3604  0.0148
   90c3c     HC  465   2.540   1.880   3.634 -0.9262 -0.5333  0.2267
   90c3c     HC  466   2.411   1.797   3.554 -1.9460  0.2602 -0.0943
   90c3c     HC  467   2.488   1.789   3.825  0.2487 -1.0189 -0.2118
   90c3c     HC  468   2.341   1.711   3.757  1.4355 -1.3387  1.7884
   90c3c     H1  469   2.524   2.168   3.743 -0.3966 -0.6908 -0.0298
   90c3c     H1  470   2.492   2.124   3.908  0.4808  0.4537 -0.0477
   90c3c     H1  471   2.566   2.011   3.809  1.3262  0.9440 -0.8537
   90c3c     H1  472   2.281   2.198   3.894  1.8711  0.1461 -0.2284
   90c3c     H1  473   2.296   2.243   3.727  2.0602  0.0168  1.3225
   90c3c     C2  474   2.112   2.135   3.764 -0.2695  0.4508 -0.0556
   90c3c     HC  475   2.073   2.051   3.821  1.8656 -0.2558  0.4112
   90c3c     HC  476   2.101   2.112   3.658 -1.1967  0.4266  0.0447
   90c3c     CT  477   2.019   2.256   3.790  0.0638 -0.2614  0.2322
   90c3c     HC  478   2.043   2.346   3.733 -0.1214 -0.7871 -0.6767
   90c3c     HC  479   2.013   2.283   3.896  0.2867  1.1478 -0.0979
   90c3c     HC  480   1.918   2.228   3.761 -0.1978  0.2602  0.6289
   91c3c     N4  481   2.959   1.506   3.724  0.0445 -0.1872 -0.0205
   91c3c     C1  482   3.025   1.585   3.621 -0.2751 -0.2784 -0.1831
   91c3c     C1  483   2.830   1.575   3.743  0.0445 -0.4376  0.3179
   91c3c     C2  484   2.915   1.623   3.519  0.0429  0.7938 -0.2433
   91c3c     C2  485   2.787   1.623   3.604  0.1856 -0.0606  0.4816
   91c3c     C1  486   2.930   1.371   3.671  0.3025 -0.3527 -0.6794
   91c3c     C1  487   3.031   1.485   3.853  0.1975 -0.5051  0.0723
   91c3c     H1  488   3.106   1.532   3.572 -0.9991 -0.0146 -1.7152
   91c3c     H1  489   3.060   1.679   3.663 -0.2606 -0.0122 -0.7761
   91c3c     H1  490   2.751   1.513   3.786  0.1907 -0.6235  0.3210
   91c3c     H1  491   2.838   1.667   3.800 -0.2338 -0.5216  0.4938
   91c3c     HC  492   2.910   1.549   3.439 -0.0013  0.8201 -0.2653
   91c3c     HC  493   2.931   1.719   3.471  0.7186  1.3914  1.1781
   91c3c     HC  494   2.706   1.564   3.561  0.3900 -0.1593  0.2298
   91c3c     HC  495   2.749   1.725   3.612 -0.1054 -0.1147 -0.2173
   91c3c     H1  496   3.022   1.317   3.648  0.1949 -0.4373 -0.9076
   91c3c     H1  497   2.878   1.306   3.741  0.4798 -1.1363 -1.2674
   91c3c     H1  498   2.875   1.370   3.577 -0.3371 -0.0396 -0.3149
   91c3c     H1  499   2.965   1.434   3.922  0.5674  0.0371  0.8312
   91c3c     H1  500   3.116   1.420   3.833  0.0340 -0.5920 -0.3526
   91c3c     C2  501   3.086   1.608   3.924 -0.5400 -0.7309  0.1880
   91c3c     HC  502   3.017   1.692   3.931 -0.2247 -0.5284  0.8727
   91c3c     HC  503   3.177   1.643   3.875  0.2182 -0.4227  1.7996
   91c3c     CT  504   3.120   1.570   4.067 -0.1764 -0.4410  0.1331
   91c3c     HC  505   3.196   1.491   4.072  0.6235  0.3674  0.8418
   91c3c     HC  506   3.032   1.532   4.118  0.0988 -0.7530  0.3759
   91c3c     HC  507   3.159   1.654   4.123  0.2520 -0.4414 -0.1582
   92c3c     N4  508   3.833   2.584   2.682 -0.5048  0.1027 -0.4312
   92c3c     C1  509   3.741   2.511   2.593  0.0464 -0.6038 -0.3764
   92c3c     C1  510   3.796   2.525   2.807  0.7820 -0.1561 -0.0733
   92c3c     C2  511   3.718   2.367   2.643 -0.6049  0.0185 -0.2191
   92c3c     C2  512   3.778   2.373   2.781 -0.8464 -0.4665 -0.4797
   92c3c     C1  513   3.968   2.545   2.637  0.1500  0.6773 -0.5946
   92c3c     C1  514   3.829   2.732   2.676 -0.5491  0.5586  0.4558
   92c3c     H1  515   3.771   2.516   2.489  0.6577 -0.7887 -0.2108
   92c3c     H1  516   3.644   2.560   2.599  0.4716  0.6106 -3.0702
   92c3c     H1  517   3.857   2.552   2.892  1.6389 -1.7664 -0.1508
   92c3c     H1  518   3.693   2.552   2.830  0.9668 -0.3627  1.0014
   92c3c     HC  519   3.762   2.290   2.580  0.0196 -0.4329  0.7477
   92c3c     HC  520   3.613   2.341   2.651 -0.6459  0.2232 -0.0632
   92c3c     HC  521   3.868   2.312   2.786 -0.6092 -0.1596 -0.9742
   92c3c     HC  522   3.715   2.329   2.858  0.4035  0.0771  0.8738
   92c3c     H1  523   3.986   2.574   2.533  2.9768  1.1585 -0.0360
   92c3c     H1  524   4.045   2.592   2.699  0.3474  0.1971 -0.4756
   92c3c     H1  525   3.985   2.437   2.637 -1.3724  0.4226 -2.1308
   92c3c     H1  526   3.908   2.766   2.743 -0.0557 -0.2391  0.2845
   92c3c     H1  527   3.853   2.773   2.578 -0.0932  0.5315  0.5562
   92c3c     C2  528   3.696   2.793   2.722  0.0089  0.3900  0.4396
   92c3c     HC  529   3.672   2.762   2.824  0.4696 -0.1697  0.3818
   92c3c     HC  530   3.615   2.761   2.657 -0.5396  0.6234  1.0028
   92c3c     CT  531   3.694   2.944   2.722  0.2005  0.3501  1.0983
   92c3c     HC  532   3.706   2.989   2.624 -1.1242  0.2180  0.8687
   92c3c     HC  533   3.781   2.978   2.779  1.2109  1.1457 -0.8730
   92c3c     HC  534   3.606   2.990   2.766 -0.1098  1.1227 -0.2987
   93c3c     N4  535   0.120   2.950   5.879  0.6421 -0.2022  0.4684
   93c3c     C1  536   0.250   3.012   5.857  0.2539  0.2099  0.4345
   93c3c     C1  537   0.070   3.022   5.997  0.1383  0.2696 -0.0821
   93c3c     C2  538   0.239   3.161   5.892  0.4270 -0.3060  0.0696
   93c3c     C2  539   0.112   3.170   5.976  0.3708  0.1294  0.1617
   93c3c     C1  540   0.031   2.977   5.766  0.6164  0.1634 -0.1276
   93c3c     C1  541   0.121   2.801   5.891 -0.2038  0.0548  0.1913
   93c3c     H1  542   0.286   2.992   5.757 -0.3798  1.5072 -0.0685
   93c3c     H1  543   0.323   2.971   5.926  0.6130 -0.2137 -0.1946
   93c3c     H1  544  -0.037   3.011   6.010 -0.0949  0.5185 -1.6963
   93c3c     H1  545   0.119   2.989   6.089 -0.2906 -1.2172 -0.3747
   93c3c     HC  546   0.234   3.227   5.806 -0.1374 -0.7972 -0.2788
   93c3c     HC  547   0.325   3.194   5.950 -0.6482  0.9981  0.9680
   93c3c     HC  548   0.042   3.230   5.918  1.0600  0.8404  0.0459
   93c3c     HC  549   0.126   3.222   6.071  0.1154 -0.8685  0.7482
   93c3c     H1  550   0.070   2.932   5.674  0.7398  1.2860 -0.6309
   93c3c     H1  551  -0.068   2.938   5.786  0.8106 -0.5585 -0.5271
   93c3c     H1  552   0.018   3.084   5.749 -1.4826  0.1563  1.2741
   93c3c     H1  553   0.023   2.757   5.910  0.5560 -1.3122  1.0462
   93c3c     H1  554   0.155   2.758   5.797  0.6164 -0.0753  0.5378
   93c3c     C2  555   0.212   2.738   5.998  0.3448 -0.5001  0.6669
   93c3c     HC  556   0.187   2.783   6.094 -0.3661 -1.0270  0.7361
   93c3c     HC  557   0.314   2.763   5.970  0.3827 -0.6820  0.6416
   93c3c     CT  558   0.200   2.585   6.000  0.4828 -0.9552  0.5100
   93c3c     HC  559   0.201   2.538   5.902  0.3739 -1.3464  0.6966
   93c3c     HC  560   0.105   2.557   6.047 -0.1070 -1.2742 -0.8418
   93c3c     HC  561   0.282   2.542   6.058  0.4441 -1.4098  0.2340
   94c3c     N4  562   3.118   5.323   2.567  0.0049 -0.2216 -0.2205
   94c3c     C1  563   3.189   5.258   2.457 -0.0005 -0.5808 -0.0535
   94c3c     C1  564   2.992   5.246   2.573 -0.2187 -0.3672 -0.1647
   94c3c     C2  565   3.161   5.104   2.476 -0.1347  0.1412  0.1892
   94c3c     C2  566   3.020   5.098   2.545 -0.3981 -0.3964  0.0938
   94c3c     C1  567   3.203   5.315   2.690  0.5677 -0.2555 -1.0290
   94c3c     C1  568   3.098   5.468   2.543 -0.9528  0.2301 -0.3250
   94c3c     H1  569   3.294   5.283   2.448  0.1425 -1.0479  0.2930
   94c3c     H1  570   3.147   5.294   2.363 -0.7452 -1.3089 -0.0090
   94c3c     H1  571   2.938   5.260   2.667 -0.1862  0.0328 -0.2051
   94c3c     H1  572   2.927   5.280   2.493 -2.3251 -0.7086  1.3602
   94c3c     HC  573   3.234   5.057   2.542 -0.7504  1.0810  1.5800
   94c3c     HC  574   3.161   5.051   2.381  1.2087 -0.2278  0.3922
   94c3c     HC  575   3.022   5.043   2.639  0.0469  0.5585  0.6508
   94c3c     HC  576   2.945   5.054   2.479  0.5236 -2.2828  0.2876
   94c3c     H1  577   3.298   5.365   2.674  0.8950 -1.2037 -2.1256
   94c3c     H1  578   3.157   5.366   2.775  1.0412  1.4659 -1.7810
   94c3c     H1  579   3.215   5.211   2.720 -0.8428 -0.4339 -1.0377
   94c3c     H1  580   3.081   5.517   2.639 -1.2114  1.1651 -0.8541
   94c3c     H1  581   3.194   5.507   2.510 -0.7274 -0.3166 -0.3274
   94c3c     C2  582   2.975   5.517   2.461  0.3069 -0.3366 -0.0737
   94c3c     HC  583   2.881   5.493   2.512  0.5741  0.2105  0.6840
   94c3c     HC  584   2.965   5.465   2.365 -0.3752  0.4442 -0.4285
   94c3c     CT  585   2.979   5.667   2.437 -0.0793 -0.1358 -0.4522
   94c3c     HC  586   3.042   5.693   2.353  0.6670 -0.5641 -0.0250
   94c3c     HC  587   3.014   5.718   2.527  0.0803  0.5627 -0.9006
   94c3c     HC  588   2.878   5.701   2.413  0.0075  0.2605 -0.2672
   95c3c     N4  589   3.655   2.239   0.875  0.3204  0.0945 -0.0165
   95c3c     C1  590   3.704   2.311   0.992  0.2277  0.1832  0.1859
   95c3c     C1  591   3.691   2.326   0.763  0.1375  0.1793  0.2256
   95c3c     C2  592   3.832   2.387   0.952  0.1519  0.3317 -0.1931
   95c3c     C2  593   3.830   2.385   0.795  0.0818  0.6983  0.3138
   95c3c     C1  594   3.733   2.111   0.867 -0.3115 -0.2516  0.3102
   95c3c     C1  595   3.510   2.203   0.887 -0.6705  0.4130 -0.0934
   95c3c     H1  596   3.727   2.254   1.082  0.0949  0.8281  0.6340
   95c3c     H1  597   3.629   2.384   1.022 -2.0685 -1.7869 -0.6278
   95c3c     H1  598   3.695   2.279   0.665 -1.6172  2.4098 -0.9563
   95c3c     H1  599   3.620   2.408   0.757 -0.3024 -0.1595  0.7609
   95c3c     HC  600   3.919   2.327   0.980 -0.7374 -0.8420  0.1061
   95c3c     HC  601   3.834   2.489   0.988  0.9769 -0.0431  0.8511
   95c3c     HC  602   3.907   2.319   0.755 -0.5088  0.6940 -0.8299
   95c3c     HC  603   3.847   2.483   0.752  0.8081  0.1342 -0.6897
   95c3c     H1  604   3.719   2.046   0.954  0.0670 -0.6336  0.0845
   95c3c     H1  605   3.697   2.054   0.782 -0.6811  0.2735  0.1106
   95c3c     H1  606   3.840   2.127   0.853 -0.2572  0.1167  1.0752
   95c3c     H1  607   3.487   2.127   0.813  0.0739 -0.2212  0.3128
   95c3c     H1  608   3.497   2.151   0.982  0.8854 -0.3041 -0.2680
   95c3c     C2  609   3.410   2.318   0.868 -0.2743 -0.2471 -0.1516
   95c3c     HC  610   3.404   2.348   0.763 -0.6492  2.6470  0.6628
   95c3c     HC  611   3.435   2.411   0.918 -1.7179  0.3888 -0.5803
   95c3c     CT  612   3.272   2.270   0.921  0.1680 -0.1001  0.3795
   95c3c     HC  613   3.275   2.247   1.028  0.2873  0.6402  0.5416
   95c3c     HC  614   3.230   2.182   0.873 -0.6728  0.6867 -0.3363
   95c3c     HC  615   3.201   2.353   0.917 -0.0509 -0.2158  1.6049
   96c3c     N4  616   2.363   2.534   2.445  0.1127  0.9135 -0.0146
   96c3c     C1  617   2.504   2.500   2.474  0.7703 -0.3228  0.1128
   96c3c     C1  618   2.287   2.406   2.450 -0.2991  0.2145 -0.1278
   96c3c     C2  619   2.493   2.389   2.582 -0.5273  0.2183 -0.2760
   96c3c     C2  620   2.356   2.331   2.565  0.0051  0.2951 -0.1004
   96c3c     C1  621   2.298   2.615   2.551  0.0172  0.7620 -0.1228
   96c3c     C1  622   2.343   2.603   2.313 -0.0170  0.0355  0.2162
   96c3c     H1  623   2.567   2.584   2.499  0.6151 -0.2724  0.3397
   96c3c     H1  624   2.554   2.452   2.390  0.9256 -0.6715  0.4021
   96c3c     H1  625   2.179   2.417   2.459 -0.4175 -0.9048 -0.0245
   96c3c     H1  626   2.309   2.347   2.362 -1.1801  0.9967 -0.8783
   96c3c     HC  627   2.512   2.433   2.680 -0.1774  0.6007 -0.5132
   96c3c     HC  628   2.569   2.313   2.565 -0.2477  0.6282 -0.8712
   96c3c     HC  629   2.299   2.346   2.657 -0.2490 -0.7428 -0.0927
   96c3c     HC  630   2.351   2.224   2.547 -0.1300  0.5705 -1.7281
   96c3c     H1  631   2.334   2.718   2.544 -0.3238  0.7993 -1.2762
   96c3c     H1  632   2.190   2.620   2.539  0.0455 -0.0302 -0.7389
   96c3c     H1  633   2.312   2.578   2.653 -1.6867 -2.3955 -0.9803
   96c3c     H1  634   2.240   2.587   2.283 -0.0653 -0.4344  0.6258
   96c3c     H1  635   2.360   2.709   2.333  1.2106 -0.1955  0.4206
   96c3c     C2  636   2.433   2.559   2.188  0.8324  0.3655  0.3161
   96c3c     HC  637   2.425   2.451   2.178  1.8267  0.3023  0.1569
   96c3c     HC  638   2.538   2.581   2.209  0.8292  0.0088  0.7122
   96c3c     CT  639   2.417   2.638   2.058  0.3689  0.4573 -0.2260
   96c3c     HC  640   2.420   2.745   2.078  0.6555  0.5309 -0.6514
   96c3c     HC  641   2.327   2.601   2.009 -0.0475  0.8483  0.2348
   96c3c     HC  642   2.503   2.620   1.992 -0.4761 -1.1593 -0.9132
   97c3c     N4  643   1.836   4.969   1.163  0.2581 -0.0704 -0.2628
   97c3c     C1  644   1.821   4.831   1.120  0.6962 -0.4552  0.3906
   97c3c     C1  645   1.701   5.029   1.168 -0.1479 -0.0792  0.6324
   97c3c     C2  646   1.695   4.782   1.192 -0.2300 -0.3010  0.2831
   97c3c     C2  647   1.612   4.911   1.209 -0.2947 -0.1147  0.1475
   97c3c     C1  648   1.895   4.972   1.298 -0.2806 -0.3295  0.0780
   97c3c     C1  649   1.918   5.048   1.068  0.6079  0.0270  0.4842
   97c3c     H1  650   1.908   4.769   1.142  1.6977  0.9887  0.6325
   97c3c     H1  651   1.804   4.829   1.012 -0.5481  1.7212  0.5096
   97c3c     H1  652   1.695   5.113   1.238 -1.3366  0.0323  0.4034
   97c3c     H1  653   1.662   5.073   1.077  0.9449 -0.2673  0.0634
   97c3c     HC  654   1.716   4.741   1.291 -3.2330 -2.7551  0.0172
   97c3c     HC  655   1.640   4.710   1.131 -0.0040 -0.5113  0.3248
   97c3c     HC  656   1.589   4.925   1.314  0.7537  0.7074  0.2739
   97c3c     HC  657   1.521   4.910   1.148 -0.9914 -0.2837  1.1772
   97c3c     H1  658   1.998   4.938   1.292 -0.5656 -1.2163  0.0511
   97c3c     H1  659   1.887   5.069   1.345 -1.7658 -1.6357  2.6488
   97c3c     H1  660   1.841   4.907   1.367 -0.8856 -0.5503 -0.5959
   97c3c     H1  661   1.921   5.151   1.103  1.0080 -0.2525  1.2810
   97c3c     H1  662   2.022   5.015   1.066  0.5168 -0.2083 -1.5117
   97c3c     C2  663   1.878   5.046   0.918  0.1435  0.2693  0.0177
   97c3c     HC  664   1.772   5.025   0.902 -0.1857  1.0990  1.0412
   97c3c     HC  665   1.924   4.963   0.863  0.4340 -1.1262  2.2859
   97c3c     CT  666   1.906   5.176   0.856  0.4176 -0.3019  0.1205
   97c3c     HC  667   1.817   5.230   0.824  0.8225  1.1872  1.4193
   97c3c     HC  668   1.958   5.150   0.764  0.5295  0.7095 -0.1088
   97c3c     HC  669   1.977   5.239   0.910  0.1178 -0.5680  0.8325
   98c3c     N4  670   4.048   0.367   3.552  0.2810  0.3462  0.4189
   98c3c     C1  671   4.117   0.393   3.429 -0.4701  0.8271 -0.0249
   98c3c     C1  672   4.067   0.222   3.573  0.6083 -0.0962  0.1103
   98c3c     C2  673   4.245   0.314   3.439 -0.4961  0.9010 -0.0811
   98c3c     C2  674   4.216   0.200   3.534  0.8980  0.2181 -0.7534
   98c3c     C1  675   4.109   0.435   3.666 -0.8653 -0.0466  0.5288
   98c3c     C1  676   3.907   0.413   3.557 -0.0821 -0.2613 -0.0875
   98c3c     H1  677   4.132   0.499   3.409 -2.2619  1.1200  0.1051
   98c3c     H1  678   4.060   0.347   3.348  0.1186 -0.0678  0.0574
   98c3c     H1  679   4.045   0.200   3.678  2.3371  0.5893  0.6281
   98c3c     H1  680   4.006   0.159   3.508 -0.3567  0.3384  0.5882
   98c3c     HC  681   4.331   0.373   3.472 -0.3294  0.3953  0.4117
   98c3c     HC  682   4.275   0.279   3.341  1.1411  1.1302  0.3189
   98c3c     HC  683   4.278   0.212   3.623 -1.3671 -0.2726  0.9419
   98c3c     HC  684   4.228   0.102   3.487 -0.0269  0.2369 -1.0485
   98c3c     H1  685   4.105   0.543   3.655 -0.2623 -0.1953 -1.3626
   98c3c     H1  686   4.058   0.403   3.757  0.0024 -0.1756  0.9826
   98c3c     H1  687   4.216   0.416   3.675 -1.2687 -2.1816  1.2588
   98c3c     H1  688   3.869   0.381   3.654 -0.8924  0.3433 -0.2108
   98c3c     H1  689   3.910   0.522   3.552  1.5400 -0.2792 -0.0661
   98c3c     C2  690   3.810   0.361   3.446  0.4919 -0.8018 -0.2742
   98c3c     HC  691   3.783   0.259   3.470 -1.1182 -0.2758  0.2668
   98c3c     HC  692   3.855   0.371   3.347 -0.4599 -1.0623 -0.7442
   98c3c     CT  693   3.679   0.447   3.449  1.0380 -0.1690 -0.9086
   98c3c     HC  694   3.697   0.554   3.444  1.6168 -0.1461  1.4154
   98c3c     HC  695   3.632   0.427   3.545  1.7124 -0.6338 -0.6695
   98c3c     HC  696   3.612   0.414   3.369  0.5750  0.8376 -0.9416
   99c3c     N4  697   1.916   2.481   1.639  0.3701 -0.0801 -0.2807
   99c3c     C1  698   1.895   2.495   1.494  0.7303 -0.2171 -0.3205
   99c3c     C1  699   1.880   2.609   1.699  0.4336  0.2626 -0.2961
   99c3c     C2  700   1.775   2.593   1.483  0.2150 -0.2784  0.3163
   99c3c     C2  701   1.753   2.651   1.624  0.3492  0.0401 -0.7478
   99c3c     C1  702   1.826   2.376   1.686  0.7962  0.0786  0.4014
   99c3c     C1  703   2.045   2.421   1.670  0.2810  0.0203  0.1956
   99c3c     H1  704   1.887   2.396   1.448  2.7414 -1.0685  1.0499
   99c3c     H1  705   1.983   2.540   1.448  0.6055 -0.0125 -0.3571
   99c3c     H1  706   1.858   2.603   1.806  0.5578 -0.7711 -0.3263
   99c3c     H1  707   1.951   2.687   1.672  0.6173  0.1463 -0.1453
   99c3c     HC  708   1.683   2.541   1.456 -0.6992  1.3605  0.1707
   99c3c     HC  709   1.784   2.674   1.411 -1.0054 -0.8583 -0.5150
   99c3c     HC  710   1.664   2.608   1.670  0.7534 -0.0544 -0.0452
   99c3c     HC  711   1.742   2.760   1.624  1.1792  0.1303 -1.5086
   99c3c     H1  712   1.845   2.281   1.637 -0.0999 -0.2326  0.6441
   99c3c     H1  713   1.831   2.370   1.795 -0.0275  0.4380  0.4605
   99c3c     H1  714   1.723   2.399   1.658  1.2228  0.8933 -0.5147
   99c3c     H1  715   2.055   2.408   1.777 -1.0663 -0.1693  0.2991
   99c3c     H1  716   2.061   2.322   1.629  0.9783  0.1966  0.0218
   99c3c     C2  717   2.172   2.499   1.631  0.2477 -0.0510  0.0329
   99c3c     HC  718   2.166   2.599   1.672 -0.0308  0.0542 -0.2657
   99c3c     HC  719   2.181   2.509   1.523  0.8207  0.5123  0.1290
   99c3c     CT  720   2.300   2.430   1.680  0.2273  0.2192 -0.3376
   99c3c     HC  721   2.313   2.332   1.635  1.2005  0.5255 -0.7271
   99c3c     HC  722   2.295   2.416   1.788  0.2981 -1.2063 -0.5067
   99c3c     HC  723   2.387   2.493   1.661 -0.7257  1.9546  0.8131
  100c3c     N4  724   2.805   2.692   3.697 -0.1408 -0.0418  0.1424
  100c3c     C1  725   2.755   2.632   3.819  0.5033 -0.5849  0.5258
  100c3c     C1  726   2.947   2.652   3.689 -0.3106 -0.6472 -0.2452
  100c3c     C2  727   2.824   2.494   3.827  0.3485 -0.6549  0.4505
  100c3c     C2  728   2.948   2.506   3.737 -0.0397 -0.8909  0.2649
  100c3c     C1  729   2.737   2.628   3.583 -0.1270 -0.0476  0.8086
  100c3c     C1  730   2.785   2.837   3.691  0.3486 -0.0435  0.3129
  100c3c     H1  731   2.646   2.628   3.820  0.4736  0.0597  0.2468
  100c3c     H1  732   2.788   2.689   3.906  1.4980 -0.1664 -0.1090
  100c3c     H1  733   2.991   2.672   3.591 -0.5192 -0.8683 -0.3838
  100c3c     H1  734   3.013   2.701   3.760  1.2206 -1.3356 -1.1521
  100c3c     HC  735   2.756   2.415   3.794  0.9428 -1.1342  0.3757
  100c3c     HC  736   2.854   2.474   3.929  1.0913 -1.3492  0.0963
  100c3c     HC  737   2.939   2.441   3.650 -0.0639 -1.3850  0.6282
  100c3c     HC  738   3.040   2.484   3.792  0.4408  0.1844 -0.1056
  100c3c     H1  739   2.635   2.665   3.579  0.4419  1.4380 -0.6879
  100c3c     H1  740   2.781   2.658   3.487  1.2832 -2.2008  0.7334
  100c3c     H1  741   2.729   2.519   3.582 -1.9144  0.0743  0.9825
  100c3c     H1  742   2.811   2.872   3.591  0.4665 -0.7222  0.0977
  100c3c     H1  743   2.679   2.856   3.709  0.1197 -0.8225 -0.1967
  100c3c     C2  744   2.866   2.926   3.789 -0.0076  0.1308 -0.1694
  100c3c     HC  745   2.973   2.918   3.771 -0.0428 -0.2129 -0.2206
  100c3c     HC  746   2.852   2.895   3.892  0.6214  0.0021 -0.1218
  100c3c     CT  747   2.828   3.071   3.771 -0.3667  0.2479 -0.0666
  100c3c     HC  748   2.720   3.085   3.777 -0.3210  0.0712  1.6704
  100c3c     HC  749   2.868   3.108   3.677 -1.2538 -0.1859 -0.6213
  100c3c     HC  750   2.871   3.132   3.851 -0.8167  0.6273 -0.1103
  101fsi    FSI  751   1.470   2.497   2.788  0.1686 -0.0877  0.2257
  101fsi    SBT  752   1.562   2.413   2.688  0.3256  0.2135  0.1012
  101fsi    NBT  753   1.546   2.492   2.557  0.4172  0.2714 -0.1709
  101fsi    OBT  754   1.689   2.419   2.751  0.2959 -0.1607  0.0029
  101fsi    OBT  755   1.497   2.285   2.683  0.5898  0.1683 -0.4062
  101fsi    SBT  756   1.605   2.636   2.535  0.2205  0.3379 -0.2494
  101fsi    OBT  757   1.578   2.686   2.405  0.2378 -0.1198  0.0492
  101fsi    OBT  758   1.739   2.644   2.585 -0.2772  0.1669 -0.0060
  101fsi    FSI  759   1.516   2.725   2.632  0.1027 -0.3568  0.2851
  102fsi    FSI  760   4.290   1.476   4.558 -0.2381  0.2151  0.1522
  102fsi    SBT  761   4.206   1.385   4.460  0.0685 -0.7594  0.2826
  102fsi    NBT  762   4.308   1.269   4.445 -0.5927  0.2908 -0.2471
  102fsi    OBT  763   4.086   1.355   4.535 -0.3236 -0.5386  0.3583
  102fsi    OBT  764   4.187   1.459   4.338 -0.5196 -0.3930  0.4105
  102fsi    SBT  765   4.383   1.185   4.550 -0.5914  0.2579 -0.3524
  102fsi    OBT  766   4.308   1.156   4.671 -0.3057 -0.4096 -0.0347
  102fsi    OBT  767   4.519   1.224   4.562  0.0031  0.8583 -0.5024
  102fsi    FSI  768   4.396   1.042   4.477  0.1327 -0.8424  0.3666
  103fsi    FSI  769   2.856   2.663   2.247  0.6431  1.0905  0.4701
  103fsi    SBT  770   2.929   2.538   2.306  0.9050  0.0249 -0.3358
  103fsi    NBT  771   2.965   2.467   2.174  0.6336 -0.0465  0.0304
  103fsi    OBT  772   3.042   2.594   2.377  0.2973 -0.3395 -0.2939
  103fsi    OBT  773   2.823   2.474   2.383  0.3228  0.2438 -0.1054
  103fsi    SBT  774   2.865   2.404   2.068 -0.1108  0.1922  0.3609
  103fsi    OBT  775   2.748   2.355   2.132  0.3599  0.5590  0.5433
  103fsi    OBT  776   2.937   2.331   1.967 -0.3225 -0.5335 -0.0660
  103fsi    FSI  777   2.806   2.530   1.999  0.8622  0.1202 -0.6552
  104fsi    FSI  778   4.382   1.698   2.954  0.2342  0.1322  0.3988
  104fsi    SBT  779   4.434   1.681   2.802  0.2638 -0.0887  0.3802
  104fsi    NBT  780   4.587   1.639   2.824 -0.3612  0.1322  0.4173
  104fsi    OBT  781   4.350   1.570   2.753  0.0885 -0.3281 -0.1769
  104fsi    OBT  782   4.410   1.813   2.739 -0.4200 -0.2962  0.1628
  104fsi    SBT  783   4.707   1.732   2.866  0.4061 -0.1980 -0.0405
  104fsi    OBT  784   4.664   1.867   2.893  0.4837  0.1390  0.8686
  104fsi    OBT  785   4.831   1.698   2.798  0.0224  0.0853 -0.6762
  104fsi    FSI  786   4.734   1.686   3.013  0.5346  0.0438 -0.3012
  105fsi    FSI  787   1.413   5.963   0.458 -0.3326  0.1295 -0.0259
  105fsi    SBT  788   1.341   5.839   0.404 -0.1129 -0.6317 -0.1316
  105fsi    NBT  789   1.450   5.722   0.403  0.2962  0.3821 -0.5191
  105fsi    OBT  790   1.242   5.812   0.503 -0.3887  0.3046 -0.1893
  105fsi    OBT  791   1.293   5.880   0.273  0.8917 -0.4098  0.2622
  105fsi    SBT  792   1.454   5.606   0.296  0.2144  0.1639  0.2207
  105fsi    OBT  793   1.358   5.609   0.184  0.4958 -0.2363  0.3729
  105fsi    OBT  794   1.475   5.483   0.367 -0.2794 -0.1877  0.4977
  105fsi    FSI  795   1.595   5.633   0.233 -0.4821  0.1549 -0.2361
  106fsi    FSI  796   2.826   5.087   3.101  0.7190 -0.5206 -0.1094
  106fsi    SBT  797   2.837   5.118   2.942  0.0991 -0.3543 -0.2016
  106fsi    NBT  798   2.917   5.254   2.939  0.4999  0.0457  0.4292
  106fsi    OBT  799   2.922   5.015   2.896  0.4158 -0.2853 -0.3720
  106fsi    OBT  800   2.701   5.126   2.887  0.1201 -0.4231 -0.5326
  106fsi    SBT  801   2.865   5.403   2.946  0.1874 -0.6554 -0.0760
  106fsi    OBT  802   2.724   5.419   2.925 -0.2337  0.1720 -0.5331
  106fsi    OBT  803   2.956   5.486   2.872 -0.3131 -0.9450 -0.2040
  106fsi    FSI  804   2.891   5.441   3.100 -0.5787 -0.0899 -0.6070
  107fsi    FSI  805   3.967   1.119   4.025 -0.3669  0.5043  0.1963
  107fsi    SBT  806   4.117   1.068   4.037 -0.2123 -0.2535 -0.0902
  107fsi    NBT  807   4.115   0.930   3.957  0.8269  0.0429 -0.4251
  107fsi    OBT  808   4.194   1.180   3.979  0.0443  0.2727 -0.1499
  107fsi    OBT  809   4.136   1.045   4.179  0.3000 -0.4404 -0.0227
  107fsi    SBT  810   4.070   0.903   3.808  0.0092  0.2516 -0.1390
  107fsi    OBT  811   4.043   1.024   3.725  1.1200  0.3089 -0.2040
  107fsi    OBT  812   3.974   0.796   3.817  0.3632  0.0160 -0.0543
  107fsi    FSI  813   4.180   0.834   3.736 -0.4707 -0.3922  0.4410
  108fsi    FSI  814   2.644   2.073   2.149  0.0246  0.0288 -0.1375
  108fsi    SBT  815   2.618   1.998   2.283  0.3362  0.2285 -0.0792
  108fsi    NBT  816   2.473   2.050   2.313  0.2486 -0.2920 -0.2152
  108fsi    OBT  817   2.637   1.865   2.241  0.5529  0.1776  0.1322
  108fsi    OBT  818   2.712   2.063   2.371 -0.2647  0.1991  0.1423
  108fsi    SBT  819   2.350   1.968   2.355  0.0542 -0.7128  0.1320
  108fsi    OBT  820   2.232   2.050   2.341  0.4668  0.7296  0.2116
  108fsi    OBT  821   2.360   1.891   2.477  0.4426 -0.5142 -0.0909
  108fsi    FSI  822   2.337   1.859   2.239  0.4645  0.0214 -0.3744
  109fsi    FSI  823   2.218   3.342   2.279  0.2431  0.5704  0.2030
  109fsi    SBT  824   2.158   3.376   2.138 -0.5389 -0.1847 -0.0817
  109fsi    NBT  825   2.021   3.443   2.167  0.0039 -0.0298  0.4603
  109fsi    OBT  826   2.264   3.455   2.071 -0.6787 -0.0511  0.0191
  109fsi    OBT  827   2.130   3.246   2.082 -0.4198 -0.6456  0.3257
  109fsi    SBT  828   1.960   3.566   2.084  0.2302  0.4739 -0.0497
  109fsi    OBT  829   1.816   3.555   2.070 -0.0806  0.3120 -0.0394
  109fsi    OBT  830   2.026   3.604   1.963  0.1785 -0.5464  0.4434
  109fsi    FSI  831   1.982   3.693   2.180  0.1550  0.2449 -0.2418
  110fsi    FSI  832   0.899   4.350   4.456  0.1549 -0.1722 -0.5190
  110fsi    SBT  833   0.955   4.251   4.558 -0.4386  0.6765 -0.2494
  110fsi    NBT  834   1.019   4.342   4.674 -1.0531  0.4933 -0.2071
  110fsi    OBT  835   0.842   4.190   4.618 -0.7947 -0.0380 -0.1414
  110fsi    OBT  836   1.055   4.176   4.479  0.1688 -0.8061  0.8376
  110fsi    SBT  837   0.962   4.393   4.817  0.7783 -0.2255  0.1116
  110fsi    OBT  838   1.066   4.427   4.911  0.6488  0.9015  0.8814
  110fsi    OBT  839   0.850   4.322   4.880  0.3580  0.8238  0.4223
  110fsi    FSI  840   0.908   4.534   4.779  1.0121  0.0460  0.0802
  111fsi    FSI  841   0.558   3.742   4.819  0.2421  0.0221 -0.7075
  111fsi    SBT  842   0.642   3.790   4.691 -0.0873 -0.5965  0.1326
  111fsi    NBT  843   0.738   3.669   4.670  0.0264 -0.6837  0.1713
  111fsi    OBT  844   0.545   3.793   4.586 -0.4587 -1.0029 -0.7600
  111fsi    OBT  845   0.701   3.913   4.725  0.3201 -0.3862 -0.8521
  111fsi    SBT  846   0.888   3.669   4.616 -0.1381  0.2933  0.2453
  111fsi    OBT  847   0.981   3.610   4.712 -0.3672 -0.6024  0.7944
  111fsi    OBT  848   0.919   3.785   4.544 -0.3340  0.5701  0.1865
  111fsi    FSI  849   0.874   3.565   4.496  0.0417 -0.2054 -0.1070
  112fsi    FSI  850   2.098   5.388   1.940 -0.0982  0.5683  0.0290
  112fsi    SBT  851   2.124   5.233   1.942  0.3573  0.3615 -0.3563
  112fsi    NBT  852   1.981   5.183   1.990  0.1135 -0.2792 -0.0725
  112fsi    OBT  853   2.158   5.211   1.803  0.3333  0.8361  0.4716
  112fsi    OBT  854   2.230   5.218   2.042  0.6914 -0.2932  0.1000
  112fsi    SBT  855   1.940   5.088   2.101  0.1168  0.2393 -0.0822
  112fsi    OBT  856   1.999   5.099   2.228  0.4563 -0.2595 -0.2674
  112fsi    OBT  857   1.952   4.958   2.051  0.0674  0.3239 -0.2009
  112fsi    FSI  858   1.790   5.107   2.123 -0.4194 -0.5045  0.0406
  113fsi    FSI  859   2.939   4.766   0.697  0.0157  0.5224 -0.1701
  113fsi    SBT  860   2.862   4.761   0.558  0.1254 -0.2230 -0.2484
  113fsi    NBT  861   2.935   4.640   0.491  0.7586 -0.5085 -0.3563
  113fsi    OBT  862   2.723   4.743   0.595 -0.2481  0.4764 -0.5124
  113fsi    OBT  863   2.903   4.883   0.497  0.2875  0.0790  0.2960
  113fsi    SBT  864   2.884   4.487   0.478 -0.5784 -0.1262  0.1628
  113fsi    OBT  865   2.741   4.469   0.496 -0.1920 -0.0416  0.1843
  113fsi    OBT  866   2.974   4.398   0.543 -0.2609 -0.6624 -0.8724
  113fsi    FSI  867   2.909   4.461   0.319 -0.4691  0.2556  0.2522
  114fsi    FSI  868   4.194   1.724   2.507 -0.3355  0.4904  0.1440
  114fsi    SBT  869   4.274   1.747   2.380  0.1402  0.1696 -0.1391
  114fsi    NBT  870   4.422   1.697   2.408 -0.6667 -0.0273  0.3495
  114fsi    OBT  871   4.217   1.657   2.285  0.7841 -0.1501  0.6963
  114fsi    OBT  872   4.260   1.885   2.348 -0.1199 -0.0922  0.6798
  114fsi    SBT  873   4.557   1.772   2.438  0.0994  0.2759 -0.0612
  114fsi    OBT  874   4.638   1.699   2.528  0.0588 -0.5543  0.3009
  114fsi    OBT  875   4.552   1.909   2.461 -0.4015 -0.5215  0.1597
  114fsi    FSI  876   4.629   1.754   2.302 -1.1546  0.4353  0.7476
  115fsi    FSI  877   4.130   4.759   4.060 -0.5830  0.5882  0.1501
  115fsi    SBT  878   4.257   4.805   3.982 -0.6159  0.2598  0.0691
  115fsi    NBT  879   4.349   4.861   4.098  0.0963  0.0099  0.0632
  115fsi    OBT  880   4.303   4.690   3.909  0.0113  0.3341  0.2816
  115fsi    OBT  881   4.199   4.906   3.900  0.1505 -0.5200  0.7533
  115fsi    SBT  882   4.479   4.792   4.167  0.1265 -0.5446  0.2031
  115fsi    OBT  883   4.583   4.891   4.203 -0.2696 -0.2850  0.0591
  115fsi    OBT  884   4.527   4.669   4.107  0.0990 -0.2893 -0.2661
  115fsi    FSI  885   4.411   4.746   4.305  0.4561  0.1650  0.6417
  116fsi    FSI  886   2.629   5.070   2.139  0.1074 -0.5945 -0.8211
  116fsi    SBT  887   2.561   4.935   2.161  0.3218  0.0520  0.5650
  116fsi    NBT  888   2.418   4.953   2.094 -0.4497 -0.7340  0.2410
  116fsi    OBT  889   2.652   4.848   2.096  0.2403  0.3072  0.1388
  116fsi    OBT  890   2.547   4.915   2.302  0.3095  0.2767  0.4253
  116fsi    SBT  891   2.379   4.885   1.959 -0.6244 -0.1746  0.1212
  116fsi    OBT  892   2.474   4.909   1.850 -0.6604 -0.4153  0.2258
  116fsi    OBT  893   2.240   4.893   1.923 -0.5148 -0.0343  0.6066
  116fsi    FSI  894   2.404   4.729   1.989 -0.6999 -0.1339  0.2351
  117fsi    FSI  895   4.290   2.919   2.205 -0.0434  0.7942  0.0494
  117fsi    SBT  896   4.272   2.958   2.364 -0.8040 -0.2080  0.2186
  117fsi    NBT  897   4.362   2.837   2.427  0.7846 -0.0331  0.2796
  117fsi    OBT  898   4.327   3.093   2.385 -0.6963 -0.0998 -0.9274
  117fsi    OBT  899   4.133   2.942   2.382  0.1806 -0.0548 -0.2933
  117fsi    SBT  900   4.351   2.678   2.399 -0.3001  0.1199 -0.0134
  117fsi    OBT  901   4.479   2.613   2.424  0.3727  0.2445 -1.1123
  117fsi    OBT  902   4.282   2.648   2.276 -0.7303 -0.4483 -0.2505
  117fsi    FSI  903   4.253   2.627   2.513  0.2394  0.5107 -0.5762
  118fsi    FSI  904   4.073   5.509   4.180  0.5736 -0.4489 -0.1030
  118fsi    SBT  905   3.978   5.598   4.281 -0.3635  0.1360  0.0337
  118fsi    NBT  906   3.856   5.642   4.184  0.2155  0.3878  0.2000
  118fsi    OBT  907   3.944   5.510   4.386 -0.4303 -0.3344 -0.1578
  118fsi    OBT  908   4.065   5.708   4.310  0.5804 -0.8888 -0.3154
  118fsi    SBT  909   3.699   5.609   4.200 -0.1605  0.1948  0.3609
  118fsi    OBT  910   3.670   5.487   4.273  0.5439  0.1669  1.0526
  118fsi    OBT  911   3.636   5.617   4.071 -0.4064  1.0872 -0.2250
  118fsi    FSI  912   3.642   5.724   4.288 -0.1841  0.4261  0.3545
  119fsi    FSI  913   3.338   2.121   0.591 -0.2017  0.2716 -0.1085
  119fsi    SBT  914   3.425   2.019   0.508  0.0294 -0.1751  0.1944
  119fsi    NBT  915   3.329   1.968   0.392 -0.5579 -0.6432 -0.1812
  119fsi    OBT  916   3.545   2.094   0.484 -0.0762 -0.9855 -0.2466
  119fsi    OBT  917   3.444   1.915   0.599 -0.1644 -0.5363 -0.7334
  119fsi    SBT  918   3.309   2.032   0.248 -0.1882  0.3839  0.3497
  119fsi    OBT  919   3.417   2.125   0.213  0.4998 -0.1951 -0.1738
  119fsi    OBT  920   3.170   2.055   0.214 -0.5335 -0.1175 -0.6899
  119fsi    FSI  921   3.345   1.909   0.157 -0.1105  0.3604 -0.0899
  120fsi    FSI  922   2.553   5.000   1.463  0.6445 -0.0090 -0.2227
  120fsi    SBT  923   2.426   4.917   1.455  0.6690  0.5537 -0.3379
  120fsi    NBT  924   2.317   5.007   1.516  0.2590 -0.4621 -0.1350
  120fsi    OBT  925   2.415   4.878   1.317 -0.0538  0.1450 -0.5064
  120fsi    OBT  926   2.446   4.815   1.555 -0.3201 -1.0015 -0.3778
  120fsi    SBT  927   2.246   5.127   1.451  0.0769  0.1966 -0.0133
  120fsi    OBT  928   2.111   5.126   1.486  0.1687 -0.4186  0.6778
  120fsi    OBT  929   2.277   5.147   1.310  0.3091  0.3473 -0.0889
  120fsi    FSI  930   2.302   5.255   1.520 -0.9758  0.5353 -0.3098
  121fsi    FSI  931   2.029   2.777   2.601 -0.0505 -0.0741  0.1979
  121fsi    SBT  932   2.021   2.818   2.751  0.4230 -0.0780  0.0146
  121fsi    NBT  933   1.891   2.909   2.748  0.2461  0.0835 -0.2346
  121fsi    OBT  934   2.003   2.694   2.821  0.2228 -0.2693 -0.6207
  121fsi    OBT  935   2.142   2.891   2.771  0.8159 -0.4605  0.3885
  121fsi    SBT  936   1.754   2.907   2.833  0.1804  0.0296 -0.0622
  121fsi    OBT  937   1.728   2.780   2.898 -0.3695  0.1407 -0.2867
  121fsi    OBT  938   1.639   2.962   2.764  0.0585 -0.0252 -0.1213
  121fsi    FSI  939   1.783   3.010   2.950  0.2422 -0.2427 -0.2124
  122fsi    FSI  940   3.738   5.767   3.657  0.2829  0.2010 -0.2152
  122fsi    SBT  941   3.779   5.862   3.775  0.2929  0.4489 -0.1842
  122fsi    NBT  942   3.864   5.768   3.870  0.1548 -0.4681 -0.2127
  122fsi    OBT  943   3.860   5.960   3.706  0.2057  0.8058  0.2387
  122fsi    OBT  944   3.654   5.900   3.837 -0.0577  0.0709 -0.0463
  122fsi    SBT  945   4.016   5.736   3.864 -0.1029 -0.2085  0.4293
  122fsi    OBT  946   4.082   5.768   3.740 -0.1396 -0.0633  0.0380
  122fsi    OBT  947   4.034   5.603   3.909  0.4921  0.1169 -0.6728
  122fsi    FSI  948   4.079   5.830   3.972  0.3074  0.5412 -0.0289
  123fsi    FSI  949   3.936   1.096   3.186 -0.1600  0.0095 -0.3561
  123fsi    SBT  950   3.909   0.978   3.086  0.3888 -0.1813  0.0741
  123fsi    NBT  951   4.030   0.883   3.108  0.1682  0.0132 -0.3288
  123fsi    OBT  952   3.787   0.916   3.125 -0.0058 -0.2673 -0.0524
  123fsi    OBT  953   3.905   1.042   2.958  0.6213  0.0458  0.0422
  123fsi    SBT  954   4.018   0.727   3.105  0.0314 -0.1115 -0.3916
  123fsi    OBT  955   3.940   0.675   2.996 -0.0336  0.4485 -0.5371
  123fsi    OBT  956   3.990   0.673   3.235 -0.0709 -0.3642 -0.2553
  123fsi    FSI  957   4.165   0.679   3.070 -0.1699  0.0064  0.1322
  124fsi    FSI  958   2.557   4.806   0.138  0.3509  0.3518 -0.3535
  124fsi    SBT  959   2.641   4.797   0.266  0.1475 -0.2555  0.1910
  124fsi    NBT  960   2.634   4.945   0.321 -0.2150 -0.9210  0.4503
  124fsi    OBT  961   2.573   4.697   0.346 -0.2545 -0.1642  0.0455
  124fsi    OBT  962   2.767   4.765   0.215 -0.0891  0.3581 -0.4754
  124fsi    SBT  963   2.557   5.005   0.449  0.6415 -0.3568  0.2106
  124fsi    OBT  964   2.651   5.060   0.542 -0.0556 -0.1060 -0.1044
  124fsi    OBT  965   2.456   4.919   0.499 -0.6164  0.6396  0.3976
  124fsi    FSI  966   2.483   5.137   0.384 -0.0059 -0.2762 -0.1229
  125fsi    FSI  967   4.458   5.660   4.324  0.3606  0.1067 -0.2515
  125fsi    SBT  968   4.459   5.594   4.466 -0.0088 -0.1316  0.1256
  125fsi    NBT  969   4.440   5.722   4.550 -0.1111 -0.2266 -0.6542
  125fsi    OBT  970   4.352   5.501   4.473 -0.2479 -0.0414  0.0800
  125fsi    OBT  971   4.592   5.541   4.482 -0.4320 -0.1363 -0.0427
  125fsi    SBT  972   4.308   5.796   4.573  0.0167  0.0084 -0.6155
  125fsi    OBT  973   4.192   5.715   4.602 -0.5627 -0.1533 -0.6145
  125fsi    OBT  974   4.284   5.905   4.482  0.6164 -0.0945 -0.0564
  125fsi    FSI  975   4.343   5.869   4.712 -0.3566  0.7150 -0.3450
  126fsi    FSI  976   3.139   1.454   2.553 -0.0827 -0.0758  0.2307
  126fsi    SBT  977   3.288   1.454   2.512 -0.6640  0.2612 -0.1079
  126fsi    NBT  978   3.315   1.603   2.482 -1.1360  0.3237  0.2683
  126fsi    OBT  979   3.364   1.400   2.622 -0.3293  0.3055 -0.2498
  126fsi    OBT  980   3.278   1.385   2.390  0.1024  0.3488  0.1500
  126fsi    SBT  981   3.376   1.719   2.566  0.1577 -0.0843  0.0394
  126fsi    OBT  982   3.424   1.824   2.480  0.0478  0.1369 -0.1925
  126fsi    OBT  983   3.469   1.675   2.671 -0.0019 -0.9365 -0.7542
  126fsi    FSI  984   3.253   1.777   2.645  0.4489  0.6185 -0.1506
  127fsi    FSI  985   3.827   0.710   4.349  0.2868  0.5110  0.3695
  127fsi    SBT  986   3.931   0.796   4.266  0.2247 -0.0721 -0.0497
  127fsi    NBT  987   4.029   0.698   4.191 -0.4929 -0.2828 -0.2762
  127fsi    OBT  988   3.855   0.873   4.172  0.4057 -0.1985 -0.2727
  127fsi    OBT  989   3.993   0.876   4.372  0.4748 -0.2237  0.0370
  127fsi    SBT  990   4.170   0.640   4.239 -0.0823  0.6281 -0.3722
  127fsi    OBT  991   4.240   0.723   4.333  0.0031 -0.1252  0.1069
  127fsi    OBT  992   4.241   0.602   4.124 -0.5180 -0.4487 -0.0345
  127fsi    FSI  993   4.133   0.506   4.318 -0.7500  0.6781  0.1071
  128fsi    FSI  994   3.612   2.189   2.115 -0.2240 -0.7401  0.4928
  128fsi    SBT  995   3.464   2.185   2.072  0.3212  0.0550 -0.2676
  128fsi    NBT  996   3.472   2.154   1.921 -0.5662  0.2514 -0.0397
  128fsi    OBT  997   3.418   2.072   2.150  0.2101 -0.2168  0.2252
  128fsi    OBT  998   3.419   2.317   2.106  0.5064  0.2451  0.1618
  128fsi    SBT  999   3.492   2.023   1.840 -0.2354  0.2564  0.0307
  128fsi    OBT 1000   3.531   1.907   1.910 -0.1672  0.5909 -0.8313
  128fsi    OBT 1001   3.580   2.047   1.731 -0.3349  0.5702 -0.8788
  128fsi    FSI 1002   3.348   1.980   1.774 -0.3408 -0.2770  0.3012
  129fsi    FSI 1003   4.781   2.216   2.488 -0.5293  0.3139  0.5258
  129fsi    SBT 1004   4.635   2.257   2.545 -0.0938  0.3873  0.3325
  129fsi    NBT 1005   4.544   2.232   2.426  0.1604  0.0259  0.9232
  129fsi    OBT 1006   4.614   2.154   2.646  0.2466 -0.6682  0.7528
  129fsi    OBT 1007   4.647   2.397   2.574  0.1774  1.0405  0.7648
  129fsi    SBT 1008   4.539   2.290   2.283 -0.0909 -0.3050  0.1109
  129fsi    OBT 1009   4.488   2.191   2.190  1.1331  0.0273  0.0457
  129fsi    OBT 1010   4.648   2.377   2.249  0.1446 -0.8647  0.3966
  129fsi    FSI 1011   4.408   2.380   2.289  0.9072  0.0785 -0.2136
  130fsi    FSI 1012   3.774   0.928   2.706  0.7103  0.1263  0.6707
  130fsi    SBT 1013   3.749   1.002   2.575 -0.1203  0.0455  0.2007
  130fsi    NBT 1014   3.839   1.128   2.603 -0.2069 -0.4006  0.8649
  130fsi    OBT 1015   3.788   0.917   2.468  0.1445 -0.2835  0.1930
  130fsi    OBT 1016   3.610   1.028   2.573 -0.3016  0.2312  0.6471
  130fsi    SBT 1017   3.783   1.269   2.653 -0.0365  0.0708 -0.2777
  130fsi    OBT 1018   3.690   1.320   2.556  0.4039  0.3252 -0.0314
  130fsi    OBT 1019   3.879   1.363   2.700 -0.2920  0.3968 -0.5512
  130fsi    FSI 1020   3.700   1.242   2.785  0.1187  0.0793 -0.1040
  131fsi    FSI 1021   4.023   0.940   5.036 -1.0938 -0.4818 -1.2599
  131fsi    SBT 1022   4.118   1.035   4.956 -0.2712 -0.4224 -0.0872
  131fsi    NBT 1023   4.178   0.937   4.847 -0.1909 -0.3445 -0.5431
  131fsi    OBT 1024   4.031   1.133   4.898  0.3773  0.4622  0.1658
  131fsi    OBT 1025   4.223   1.076   5.048 -0.0989 -0.6164  0.2245
  131fsi    SBT 1026   4.110   0.892   4.714 -0.2741 -0.0675 -0.6604
  131fsi    OBT 1027   4.216   0.861   4.623  0.0979  0.4914 -0.1315
  131fsi    OBT 1028   4.002   0.972   4.661 -0.0951 -0.0382 -0.6504
  131fsi    FSI 1029   4.041   0.751   4.748 -0.2235 -0.6553 -1.5951
  132fsi    FSI 1030   3.775   0.395   2.495 -0.5223 -0.1419  0.1355
  132fsi    SBT 1031   3.879   0.435   2.605  0.1645 -0.1851  0.2782
  132fsi    NBT 1032   3.823   0.357   2.726 -0.4274  0.1488 -0.1844
  132fsi    OBT 1033   4.003   0.383   2.554  0.1845 -0.0067 -0.1522
  132fsi    OBT 1034   3.862   0.579   2.606 -0.6502 -0.0801 -0.0078
  132fsi    SBT 1035   3.716   0.395   2.835  0.0772 -0.2698 -0.4324
  132fsi    OBT 1036   3.699   0.538   2.839 -0.6352 -0.3385  0.3284
  132fsi    OBT 1037   3.717   0.319   2.952 -0.0745 -0.3095  0.3317
  132fsi    FSI 1038   3.584   0.350   2.768  0.3196 -0.2837 -0.5681
  133fsi    FSI 1039   1.697   2.952   1.198 -0.1038 -0.2259  0.4831
  133fsi    SBT 1040   1.689   3.090   1.276  0.2717 -0.0447  0.2011
  133fsi    NBT 1041   1.706   3.047   1.427  0.5574  0.7708 -0.0978
  133fsi    OBT 1042   1.800   3.167   1.233 -0.7796  0.1899 -0.2638
  133fsi    OBT 1043   1.564   3.143   1.237 -0.3223 -0.3478 -0.2637
  133fsi    SBT 1044   1.609   3.088   1.549  0.1870  0.0830 -0.3441
  133fsi    OBT 1045   1.642   3.009   1.666  0.3928  0.1233  0.3770
  133fsi    OBT 1046   1.473   3.112   1.514 -0.0615  0.0641  0.3928
  133fsi    FSI 1047   1.650   3.238   1.586 -0.1101 -0.0368  0.4833
  134fsi    FSI 1048   1.566   5.431   1.196 -0.7377  0.2728  0.6491
  134fsi    SBT 1049   1.461   5.348   1.123  0.2612  0.2563  0.2588
  134fsi    NBT 1050   1.519   5.328   0.978 -0.5487  0.0426  0.3323
  134fsi    OBT 1051   1.463   5.224   1.194 -0.1195  0.4556 -0.1126
  134fsi    OBT 1052   1.343   5.429   1.115  0.5279 -0.1608  0.1192
  134fsi    SBT 1053   1.448   5.266   0.857  0.3240  0.4510  0.1285
  134fsi    OBT 1054   1.480   5.329   0.732  0.0766 -0.0702  0.5493
  134fsi    OBT 1055   1.311   5.228   0.893 -0.3318 -0.5844 -1.1570
  134fsi    FSI 1056   1.516   5.129   0.850 -0.5036 -0.1643  0.1972
  135fsi    FSI 1057   4.741   4.706   3.620  0.5269  0.2253  0.2005
  135fsi    SBT 1058   4.650   4.749   3.744  0.0302  0.1412  0.0223
  135fsi    NBT 1059   4.754   4.798   3.849 -0.6580  0.3081  0.2371
  135fsi    OBT 1060   4.572   4.854   3.691  0.0640 -0.4411  0.2288
  135fsi    OBT 1061   4.582   4.629   3.783 -0.2601 -0.2591  0.3465
  135fsi    SBT 1062   4.826   4.932   3.861 -0.1925 -0.5692  0.0715
  135fsi    OBT 1063   4.826   4.987   3.992 -0.9343  0.1729 -0.0047
  135fsi    OBT 1064   4.796   5.037   3.767  0.0004  0.4005  0.4713
  135fsi    FSI 1065   4.970   4.892   3.834  0.2404  0.8895  0.5553
  136fsi    FSI 1066   2.479   2.485   3.657  0.6836  0.1592 -0.2494
  136fsi    SBT 1067   2.344   2.563   3.663 -0.0143  0.0883 -0.0219
  136fsi    NBT 1068   2.351   2.622   3.805  0.1921 -0.0828  0.0558
  136fsi    OBT 1069   2.362   2.659   3.558 -0.4486  0.1601  0.2402
  136fsi    OBT 1070   2.245   2.460   3.657  0.7759 -0.4233 -0.3209
  136fsi    SBT 1071   2.338   2.540   3.940  0.0018 -0.3723 -0.4516
  136fsi    OBT 1072   2.345   2.634   4.047 -0.3126 -0.2414 -0.5344
  136fsi    OBT 1073   2.407   2.415   3.950  0.0452  0.2079 -0.2368
  136fsi    FSI 1074   2.189   2.501   3.933 -0.1015 -0.2207 -0.2518
  137fsi    FSI 1075   3.785   5.604   4.812 -0.0882  0.4735  0.0960
  137fsi    SBT 1076   3.830   5.467   4.752 -0.6129  0.1997 -0.1597
  137fsi    NBT 1077   3.796   5.365   4.868 -0.1115  0.2219  0.3660
  137fsi    OBT 1078   3.759   5.444   4.626 -0.1846 -0.3769 -0.5087
  137fsi    OBT 1079   3.973   5.488   4.732  0.0808  0.5008  0.1623
  137fsi    SBT 1080   3.651   5.315   4.906  0.0442  0.3270  0.0143
  137fsi    OBT 1081   3.657   5.202   4.996 -0.2659 -0.4543 -0.6906
  137fsi    OBT 1082   3.552   5.308   4.801 -0.7485  0.4998  0.2087
  137fsi    FSI 1083   3.597   5.434   5.005 -0.1384 -0.4893  0.2975
  138fsi    FSI 1084   4.386   5.426   4.182  0.0116  0.4098  0.4173
  138fsi    SBT 1085   4.386   5.270   4.200  0.4164  0.2439 -0.0880
  138fsi    NBT 1086   4.345   5.223   4.060 -0.8864 -0.9514  0.1859
  138fsi    OBT 1087   4.522   5.247   4.231  0.4011  0.7294  0.0829
  138fsi    OBT 1088   4.279   5.246   4.294  0.5088  0.5160 -0.7868
  138fsi    SBT 1089   4.428   5.201   3.924  0.2951  0.2144  0.2461
  138fsi    OBT 1090   4.351   5.136   3.823  0.2210 -0.4901 -0.1152
  138fsi    OBT 1091   4.563   5.147   3.942  0.4428 -0.3353  0.3752
  138fsi    FSI 1092   4.456   5.351   3.863 -0.0414  0.2792 -0.4847
  139fsi    FSI 1093   5.085   1.533   2.658  0.8833  0.0105  0.0066
  139fsi    SBT 1094   4.999   1.427   2.588 -0.3604  0.2476 -0.3163
  139fsi    NBT 1095   4.945   1.342   2.709  0.2725  0.1755 -0.6253
  139fsi    OBT 1096   4.898   1.514   2.528 -0.4951 -0.3927 -0.3736
  139fsi    OBT 1097   5.096   1.355   2.507  0.0209  0.7589 -0.1352
  139fsi    SBT 1098   4.803   1.316   2.763 -0.3498 -0.2107  0.0599
  139fsi    OBT 1099   4.702   1.326   2.662 -0.1356 -0.0336  0.3858
  139fsi    OBT 1100   4.778   1.385   2.889  0.2134 -0.3782 -0.0414
  139fsi    FSI 1101   4.806   1.166   2.796 -0.4947  0.1126 -0.7343
  140fsi    FSI 1102   1.813   3.412   1.735 -0.0502 -0.1299 -0.2014
  140fsi    SBT 1103   1.921   3.301   1.744  0.3742 -0.1163  0.0730
  140fsi    NBT 1104   2.042   3.395   1.756  0.1105  0.1414 -0.1803
  140fsi    OBT 1105   1.891   3.236   1.869  0.2630 -0.0535  0.5050
  140fsi    OBT 1106   1.915   3.237   1.616  0.1092 -0.7261  0.1097
  140fsi    SBT 1107   2.189   3.362   1.707  0.8951 -0.0152  0.0814
  140fsi    OBT 1108   2.220   3.220   1.732  0.0307 -0.1879  0.5791
  140fsi    OBT 1109   2.280   3.468   1.744  0.4469  0.1542  0.1653
  140fsi    FSI 1110   2.174   3.379   1.549  0.1824  0.3691 -0.2864
  141fsi    FSI 1111   4.162   5.050   4.574 -0.0673 -0.4000  0.2214
  141fsi    SBT 1112   4.078   5.152   4.661  0.1542  0.3600 -0.0088
  141fsi    NBT 1113   3.936   5.158   4.585  0.0633  0.4792  0.2308
  141fsi    OBT 1114   4.067   5.102   4.798 -0.0424 -0.3349 -0.2373
  141fsi    OBT 1115   4.143   5.278   4.643 -0.3851  0.5650  0.2732
  141fsi    SBT 1116   3.796   5.092   4.611  0.1560  0.2181  0.0906
  141fsi    OBT 1117   3.690   5.162   4.548 -0.4956  0.3832  0.1441
  141fsi    OBT 1118   3.781   5.047   4.746  0.2385 -0.0853 -0.4074
  141fsi    FSI 1119   3.811   4.957   4.518 -0.0563  0.6717 -0.1153
  142fsi    FSI 1120   2.100   4.675   5.399  0.1692 -0.3106  0.1272
  142fsi    SBT 1121   2.006   4.803   5.426 -0.6674 -0.3529  0.0442
  142fsi    NBT 1122   2.039   4.894   5.300 -0.7309 -0.1028 -0.2143
  142fsi    OBT 1123   1.873   4.757   5.430  0.2997  0.1187 -0.1598
  142fsi    OBT 1124   2.063   4.871   5.542  0.3784 -0.2480  0.5194
  142fsi    SBT 1125   2.005   4.864   5.147  0.0311 -0.3673  0.2074
  142fsi    OBT 1126   1.973   4.726   5.116  0.1134 -0.7846 -0.4491
  142fsi    OBT 1127   2.092   4.923   5.050  0.7060 -0.6134 -0.6778
  142fsi    FSI 1128   1.872   4.947   5.112  0.0979 -0.5908  0.1112
  143fsi    FSI 1129   2.178   5.390   5.236 -0.3892 -0.3220 -0.0588
  143fsi    SBT 1130   2.121   5.249   5.233  0.2011 -0.4495  0.3364
  143fsi    NBT 1131   2.237   5.172   5.160 -0.2963 -0.5564 -0.3166
  143fsi    OBT 1132   2.096   5.215   5.370 -0.7540  0.7983  0.2266
  143fsi    OBT 1133   2.014   5.264   5.143  0.3606 -0.9738  0.1279
  143fsi    SBT 1134   2.361   5.090   5.220  0.1906  0.2151 -0.0525
  143fsi    OBT 1135   2.383   4.978   5.134 -0.0121  0.2920 -0.2737
  143fsi    OBT 1136   2.363   5.072   5.367 -0.5266 -1.0546  0.4293
  143fsi    FSI 1137   2.488   5.184   5.197  0.0605  0.3655 -0.0273
  144fsi    FSI 1138   3.683   4.731   5.938 -0.0846 -0.5979  0.1852
  144fsi    SBT 1139   3.672   4.872   5.875 -0.0466  0.0559 -0.0375
  144fsi    NBT 1140   3.767   4.858   5.751 -0.7227 -1.0395 -0.7516
  144fsi    OBT 1141   3.533   4.871   5.829  0.6934  0.0054 -0.0124
  144fsi    OBT 1142   3.720   4.956   5.983 -0.1899 -0.1665  0.1151
  144fsi    SBT 1143   3.730   4.888   5.598  0.0174 -0.0221 -0.3374
  144fsi    OBT 1144   3.635   4.995   5.571  0.1618  0.4891  0.1288
  144fsi    OBT 1145   3.700   4.763   5.534  0.1209 -0.2009  0.6556
  144fsi    FSI 1146   3.864   4.941   5.542 -0.3188  0.3873  0.6466
  145fsi    FSI 1147   4.410   1.800   1.953  0.0606 -0.2578 -0.3754
  145fsi    SBT 1148   4.267   1.759   1.890 -0.1893  0.1699  0.3703
  145fsi    NBT 1149   4.250   1.619   1.958 -0.2768 -0.3727  0.0577
  145fsi    OBT 1150   4.171   1.855   1.938 -0.5510 -0.1681  0.1941
  145fsi    OBT 1151   4.290   1.750   1.751 -0.5681  1.0966 -0.4370
  145fsi    SBT 1152   4.275   1.471   1.912 -0.1719 -0.0891  0.0998
  145fsi    OBT 1153   4.383   1.444   1.827 -0.0300  0.6758 -0.3412
  145fsi    OBT 1154   4.151   1.402   1.886 -0.1851  0.2641 -0.0719
  145fsi    FSI 1155   4.324   1.415   2.055  0.0711 -0.2223 -0.4650
  146fsi    FSI 1156   3.633   0.463   4.070  0.0149 -0.1399 -0.0957
  146fsi    SBT 1157   3.747   0.479   3.963  0.3109  0.4578 -0.0300
  146fsi    NBT 1158   3.731   0.622   3.905 -0.4796 -0.0374 -0.0813
  146fsi    OBT 1159   3.871   0.481   4.039  0.2538  0.1228 -0.1854
  146fsi    OBT 1160   3.720   0.377   3.866 -0.3761  0.4163 -0.2794
  146fsi    SBT 1161   3.627   0.687   3.804 -0.1487 -0.2008 -0.1119
  146fsi    OBT 1162   3.543   0.585   3.752  0.6702  0.1422 -0.3539
  146fsi    OBT 1163   3.675   0.793   3.714  0.0587 -0.3180  0.6411
  146fsi    FSI 1164   3.532   0.765   3.894  0.4437  0.0655  0.1795
  147fsi    FSI 1165   1.224   0.295   2.590 -0.2880 -0.3113 -0.1407
  147fsi    SBT 1166   1.095   0.386   2.616 -0.3613 -0.1224  0.1743
  147fsi    NBT 1167   1.017   0.392   2.480 -0.4019 -0.5364 -0.0233
  147fsi    OBT 1168   1.024   0.318   2.721  0.3144 -0.3482  0.0078
  147fsi    OBT 1169   1.155   0.514   2.650 -0.1774  0.6384  0.7065
  147fsi    SBT 1170   0.863   0.379   2.445  0.4282 -0.3383  0.0576
  147fsi    OBT 1171   0.826   0.448   2.322  0.5429  0.2423 -0.5868
  147fsi    OBT 1172   0.776   0.388   2.559 -0.0025  0.3484  0.0843
  147fsi    FSI 1173   0.857   0.227   2.417  0.0317 -0.4258  0.0712
  148fsi    FSI 1174   2.171   2.756   1.174  0.5307 -0.3250 -0.1244
  148fsi    SBT 1175   2.056   2.790   1.276 -0.2396 -0.1537 -0.2566
  148fsi    NBT 1176   2.135   2.784   1.417 -0.7725  0.3670  0.0344
  148fsi    OBT 1177   2.015   2.925   1.249  0.1826  0.0469 -0.2224
  148fsi    OBT 1178   1.958   2.688   1.238 -0.4291 -0.3487 -0.2307
  148fsi    SBT 1179   2.193   2.902   1.510 -0.7603  0.1360 -0.0896
  148fsi    OBT 1180   2.126   2.897   1.638 -0.6550 -0.2358 -0.2570
  148fsi    OBT 1181   2.211   3.028   1.447 -0.3193 -0.3634 -0.0444
  148fsi    FSI 1182   2.345   2.870   1.545 -0.3028  0.4858 -0.1686
  149fsi    FSI 1183   2.790   1.991   3.545 -0.4663  0.4411 -0.2898
  149fsi    SBT 1184   2.839   2.119   3.620  0.0608  0.1634 -0.2247
  149fsi    NBT 1185   2.837   2.070   3.770 -0.0874 -0.3986 -0.0706
  149fsi    OBT 1186   2.969   2.144   3.563  0.3008 -0.5619 -0.3191
  149fsi    OBT 1187   2.732   2.209   3.590  0.0022  0.3816  0.4320
  149fsi    SBT 1188   2.961   2.019   3.854 -0.0685 -0.2977  0.1324
  149fsi    OBT 1189   3.047   1.935   3.773 -0.3751 -0.5489  0.7637
  149fsi    OBT 1190   2.924   1.970   3.986 -0.3073  0.2715  0.5062
  149fsi    FSI 1191   3.047   2.148   3.881 -0.0133 -0.2525 -0.5328
  150fsi    FSI 1192   3.164   4.847   5.442 -0.4093  0.9630  0.5686
  150fsi    SBT 1193   3.318   4.837   5.480  0.2509  0.1783  0.4903
  150fsi    NBT 1194   3.322   4.734   5.596 -1.0016  0.1429  0.8830
  150fsi    OBT 1195   3.384   4.798   5.357  0.3397  0.6926  0.1769
  150fsi    OBT 1196   3.341   4.972   5.524  0.0588  0.0092 -0.7974
  150fsi    SBT 1197   3.332   4.574   5.602 -0.1027  0.7960  0.0493
  150fsi    OBT 1198   3.447   4.519   5.527 -0.1245 -0.5267 -0.4656
  150fsi    OBT 1199   3.205   4.519   5.577  0.1766  0.0124 -0.6458
  150fsi    FSI 1200   3.367   4.542   5.746 -0.4055 -0.3006  0.2164
  151fsi    FSI 1201   4.779   0.883   2.043 -0.2440 -0.4499  0.4013
  151fsi    SBT 1202   4.770   0.868   2.193 -0.6236  0.6700  0.0616
  151fsi    NBT 1203   4.635   0.948   2.218 -0.6240 -0.7924 -0.3129
  151fsi    OBT 1204   4.775   0.728   2.217  0.2940  0.0935 -0.1967
  151fsi    OBT 1205   4.883   0.940   2.242  0.5741  0.1819  0.3117
  151fsi    SBT 1206   4.519   0.914   2.320 -0.4592 -0.4792 -0.4930
  151fsi    OBT 1207   4.547   0.793   2.394 -0.5346  0.1294  0.5896
  151fsi    OBT 1208   4.383   0.926   2.267 -0.8021  0.6664 -0.6114
  151fsi    FSI 1209   4.531   1.025   2.442  0.0672 -0.2532  0.2789
  152fsi    FSI 1210   2.048   1.909   3.489  0.1926  0.0481 -0.1089
  152fsi    SBT 1211   2.028   1.987   3.358 -0.1126 -0.1787 -0.1406
  152fsi    NBT 1212   2.031   1.874   3.252 -0.7899 -0.2161 -0.9273
  152fsi    OBT 1213   1.907   2.064   3.377 -0.3717  0.2898 -0.3507
  152fsi    OBT 1214   2.153   2.061   3.354 -0.2664 -0.5283  0.0530
  152fsi    SBT 1215   1.923   1.788   3.192  0.5973  0.1371 -0.2820
  152fsi    OBT 1216   1.793   1.810   3.253  0.0304  0.0683  0.2174
  152fsi    OBT 1217   1.969   1.648   3.175 -0.1481 -0.3895 -0.1548
  152fsi    FSI 1218   1.911   1.840   3.041 -0.1579  0.6932  0.4217
  153fsi    FSI 1219   1.518   4.382   5.573  0.2709  0.2347 -0.0022
  153fsi    SBT 1220   1.658   4.299   5.574 -0.1921  0.8466  0.4141
  153fsi    NBT 1221   1.752   4.392   5.489 -0.2428 -0.2862  0.1095
  153fsi    OBT 1222   1.700   4.303   5.708  0.1698 -0.1756  0.0173
  153fsi    OBT 1223   1.626   4.172   5.507  0.2895  0.1934  0.2002
  153fsi    SBT 1224   1.895   4.379   5.430  0.5784 -0.4080 -0.3360
  153fsi    OBT 1225   1.911   4.483   5.335 -0.2667 -0.0786  0.1520
  153fsi    OBT 1226   1.952   4.254   5.387  0.3763  0.0199 -0.6236
  153fsi    FSI 1227   1.991   4.432   5.541 -0.2305  0.4667  0.0965
  154fsi    FSI 1228   2.269   2.448   2.926  0.3087 -0.1146 -0.1648
  154fsi    SBT 1229   2.394   2.419   3.017  0.3007  0.4497 -0.4151
  154fsi    NBT 1230   2.338   2.348   3.148 -0.1663 -0.0455 -0.5644
  154fsi    OBT 1231   2.477   2.333   2.936  0.7249 -0.0422 -0.1096
  154fsi    OBT 1232   2.442   2.551   3.030 -0.0124  0.7606  0.7197
  154fsi    SBT 1233   2.419   2.344   3.284 -0.1022  0.3750  0.1553
  154fsi    OBT 1234   2.540   2.271   3.271  0.1848  0.4147  0.4113
  154fsi    OBT 1235   2.335   2.302   3.390 -0.4361  0.5125 -0.1700
  154fsi    FSI 1236   2.444   2.499   3.320 -0.3013  0.1279  0.0656
  155fsi    FSI 1237   4.695   1.511   4.970 -0.2063 -0.3924 -0.0288
  155fsi    SBT 1238   4.625   1.462   4.843  0.3255  0.0372  0.0301
  155fsi    NBT 1239   4.590   1.309   4.876 -0.4407  0.4921  0.2400
  155fsi    OBT 1240   4.504   1.540   4.850 -0.4692 -0.3125  0.0835
  155fsi    OBT 1241   4.726   1.479   4.740  0.4723 -0.3766 -0.1755
  155fsi    SBT 1242   4.670   1.180   4.835  0.0180 -0.0990  0.1515
  155fsi    OBT 1243   4.763   1.201   4.727  0.0914 -0.7345 -0.1484
  155fsi    OBT 1244   4.583   1.068   4.815  0.4735  0.0230 -0.1418
  155fsi    FSI 1245   4.751   1.154   4.965  0.1378 -0.7652  0.1062
  156fsi    FSI 1246   1.437   4.614   5.365 -0.2827  0.9184  0.2263
  156fsi    SBT 1247   1.501   4.593   5.218  0.2121  0.2634  0.5450
  156fsi    NBT 1248   1.591   4.470   5.236  0.5984  1.5048 -0.5861
  156fsi    OBT 1249   1.402   4.570   5.121  0.1745  0.0626 -0.8762
  156fsi    OBT 1250   1.579   4.704   5.187  0.5487  0.1307  0.4772
  156fsi    SBT 1251   1.597   4.350   5.133 -0.0189 -0.5880  0.2064
  156fsi    OBT 1252   1.472   4.279   5.096 -0.8645  0.8656  0.2724
  156fsi    OBT 1253   1.708   4.261   5.155 -0.8805 -0.0566 -0.1239
  156fsi    FSI 1254   1.643   4.415   4.991  0.0793 -0.2784 -0.1491
  157fsi    FSI 1255   3.575   1.217   4.089 -0.1534 -0.0804  0.1105
  157fsi    SBT 1256   3.418   1.226   4.113  0.0479 -0.7087 -0.1546
  157fsi    NBT 1257   3.355   1.249   3.973  0.8019  0.0773 -0.7473
  157fsi    OBT 1258   3.386   1.100   4.171 -0.2670 -0.1112 -0.2424
  157fsi    OBT 1259   3.401   1.343   4.198  0.4159 -0.7423 -0.3159
  157fsi    SBT 1260   3.304   1.142   3.873  0.0911  0.0245  0.2705
  157fsi    OBT 1261   3.403   1.041   3.846  0.0143 -0.1628  0.0913
  157fsi    OBT 1262   3.229   1.195   3.761 -0.0336 -0.3215 -0.0952
  157fsi    FSI 1263   3.199   1.058   3.958 -0.1590 -0.0793  0.7688
  158fsi    FSI 1264   2.219   1.814   2.963  0.0106  0.3481  0.1130
  158fsi    SBT 1265   2.333   1.886   3.045 -0.3371 -0.3090 -0.1402
  158fsi    NBT 1266   2.323   1.806   3.181  0.2075 -0.4998 -0.5835
  158fsi    OBT 1267   2.452   1.855   2.972 -0.1827 -0.0901  0.6107
  158fsi    OBT 1268   2.305   2.023   3.058  0.8274 -0.4837 -0.1527
  158fsi    SBT 1269   2.411   1.693   3.247 -0.1582 -0.1650 -0.2928
  158fsi    OBT 1270   2.484   1.611   3.155 -0.7083 -0.1184  0.2003
  158fsi    OBT 1271   2.339   1.619   3.351  0.5687  0.4328  0.3088
  158fsi    FSI 1272   2.525   1.778   3.319  0.4347  0.5043 -0.0584
  159fsi    FSI 1273   1.119   3.873   4.991  0.2806  0.7798 -0.3882
  159fsi    SBT 1274   1.083   4.029   4.980  0.2623  0.0645 -0.0962
  159fsi    NBT 1275   1.213   4.103   4.944  1.1041 -0.5546 -0.0688
  159fsi    OBT 1276   0.980   4.021   4.880  0.4929 -0.7343  0.3511
  159fsi    OBT 1277   1.041   4.067   5.112  1.1382 -0.1985  1.1478
  159fsi    SBT 1278   1.296   4.085   4.810 -0.2670  0.2338 -0.3982
  159fsi    OBT 1279   1.380   4.198   4.793  0.3992 -0.2239  0.0599
  159fsi    OBT 1280   1.220   4.030   4.706  0.0720  0.5790 -1.0151
  159fsi    FSI 1281   1.409   3.975   4.845 -0.1432  0.2554 -0.3992
  160fsi    FSI 1282   1.924   4.698   1.598  0.7199  0.0963 -0.4437
  160fsi    SBT 1283   1.900   4.790   1.724  0.0133  0.3614  0.1191
  160fsi    NBT 1284   1.766   4.865   1.664 -0.5831  0.2650 -0.4888
  160fsi    OBT 1285   1.879   4.702   1.833  0.1346 -0.0986 -0.2511
  160fsi    OBT 1286   2.020   4.860   1.731  0.2841  0.6286 -0.6809
  160fsi    SBT 1287   1.736   5.020   1.645  0.1452  0.4267  0.3107
  160fsi    OBT 1288   1.644   5.042   1.539 -0.6900 -0.2904  1.0555
  160fsi    OBT 1289   1.854   5.105   1.660  0.6209 -0.8112 -0.3137
  160fsi    FSI 1290   1.648   5.062   1.765  0.8578  0.0547  0.0302
  161fsi    FSI 1291   4.896   2.955   2.294 -0.0869  0.1714  0.5308
  161fsi    SBT 1292   4.752   2.896   2.325  0.1370 -0.0250  0.2005
  161fsi    NBT 1293   4.740   2.916   2.483 -0.4395  0.0808  0.3396
  161fsi    OBT 1294   4.667   2.984   2.254  0.4784 -0.4824 -0.5207
  161fsi    OBT 1295   4.753   2.755   2.296 -0.1163  0.5800 -0.2373
  161fsi    SBT 1296   4.747   2.816   2.605  0.0452 -0.1453  0.5097
  161fsi    OBT 1297   4.766   2.682   2.568 -1.4134  0.3300  0.6166
  161fsi    OBT 1298   4.640   2.846   2.697 -0.2037  0.1326 -0.3625
  161fsi    FSI 1299   4.883   2.854   2.685 -0.1646 -0.3016  0.0518
  162fsi    FSI 1300   1.025   5.624   0.908  0.0587  1.1918 -0.2045
  162fsi    SBT 1301   1.124   5.656   0.789  0.6808 -0.4900  0.3122
  162fsi    NBT 1302   1.050   5.593   0.657 -0.7452 -0.0917  0.2901
  162fsi    OBT 1303   1.122   5.797   0.787 -0.7110 -0.4854  0.6095
  162fsi    OBT 1304   1.246   5.591   0.817  0.1583  0.1177  0.9199
  162fsi    SBT 1305   1.036   5.436   0.643 -0.1702  0.0900 -0.1078
  162fsi    OBT 1306   1.043   5.362   0.765 -0.4882  0.0071 -0.3684
  162fsi    OBT 1307   1.113   5.390   0.529 -0.7403  0.4853 -1.0589
  162fsi    FSI 1308   0.897   5.432   0.594 -0.4658 -0.4999 -0.2386
  163fsi    FSI 1309   1.912   1.847   3.803 -0.0602  0.1559 -0.3032
  163fsi    SBT 1310   1.793   1.833   3.702  0.3809  0.0671 -0.5158
  163fsi    NBT 1311   1.856   1.752   3.583  0.5861  0.0044  0.3271
  163fsi    OBT 1312   1.696   1.766   3.782  0.3265  0.4898  0.1711
  163fsi    OBT 1313   1.763   1.965   3.668  0.2411 -0.3247  0.0762
  163fsi    SBT 1314   1.867   1.598   3.559  0.0435 -0.0473 -0.0899
  163fsi    OBT 1315   1.814   1.533   3.674  0.4345 -0.3771 -0.8093
  163fsi    OBT 1316   1.985   1.550   3.493  0.3421 -0.3260 -0.4542
  163fsi    FSI 1317   1.754   1.572   3.450 -0.0329 -0.0978 -0.1616
  164fsi    FSI 1318   4.261   0.533   2.706  0.0396  0.7410  0.4315
  164fsi    SBT 1319   4.299   0.654   2.615 -0.2934 -0.3818  0.3379
  164fsi    NBT 1320   4.363   0.583   2.485  0.3218 -0.3492  0.6620
  164fsi    OBT 1321   4.175   0.722   2.585  0.0573 -0.5437 -0.1276
  164fsi    OBT 1322   4.399   0.723   2.699 -0.1726 -0.1964  0.3081
  164fsi    SBT 1323   4.288   0.526   2.360  0.0888 -0.0647  0.3246
  164fsi    OBT 1324   4.376   0.512   2.246  0.4582  0.5865  0.7455
  164fsi    OBT 1325   4.157   0.578   2.332  0.0060  0.1970 -0.5270
  164fsi    FSI 1326   4.266   0.377   2.402 -0.3453 -0.1535  0.0836
  165fsi    FSI 1327   3.606   4.280   1.387  0.5078  0.2333 -0.5098
  165fsi    SBT 1328   3.589   4.191   1.503  0.0484 -0.3377 -0.0515
  165fsi    NBT 1329   3.496   4.079   1.451 -0.2787 -0.4758 -0.9909
  165fsi    OBT 1330   3.726   4.146   1.525 -0.5840 -0.3004  0.0630
  165fsi    OBT 1331   3.530   4.266   1.616 -2.1467  0.5034  0.4360
  165fsi    SBT 1332   3.382   4.006   1.513  0.3102 -0.1709 -0.1465
  165fsi    OBT 1333   3.371   4.029   1.655  0.0576 -1.4369 -0.1373
  165fsi    OBT 1334   3.367   3.872   1.458  0.3462  0.5830  0.0522
  165fsi    FSI 1335   3.264   4.094   1.452  0.2487 -0.0703  0.0904
  166fsi    FSI 1336   3.061   2.001   2.503  0.4780 -0.7731 -0.1012
  166fsi    SBT 1337   3.135   2.134   2.537 -0.2198 -0.4747  0.4408
  166fsi    NBT 1338   3.273   2.104   2.482 -0.1027 -0.2403  0.4630
  166fsi    OBT 1339   3.061   2.233   2.460  0.2288 -0.4253  0.5398
  166fsi    OBT 1340   3.128   2.144   2.679  0.3661 -0.4510  0.0457
  166fsi    SBT 1341   3.394   2.192   2.507 -0.1862 -0.2694  0.0146
  166fsi    OBT 1342   3.365   2.332   2.481  0.2579  0.5864 -0.3474
  166fsi    OBT 1343   3.512   2.137   2.442 -0.1987 -0.4895  0.4181
  166fsi    FSI 1344   3.429   2.186   2.663 -0.8696  0.0578  0.1684
  167fsi    FSI 1345   2.151   4.662   1.108  0.1611  0.3345  0.0678
  167fsi    SBT 1346   2.202   4.752   0.993  0.1493  0.2682 -0.1836
  167fsi    NBT 1347   2.293   4.653   0.911  0.1674 -0.2962 -0.3213
  167fsi    OBT 1348   2.078   4.775   0.926 -0.6060 -0.1507  0.0767
  167fsi    OBT 1349   2.272   4.853   1.065  0.4854 -0.5135  0.7453
  167fsi    SBT 1350   2.440   4.677   0.864  0.2482  0.5197  0.0977
  167fsi    OBT 1351   2.483   4.815   0.853 -0.0139  0.2233  0.1895
  167fsi    OBT 1352   2.488   4.594   0.755 -0.2078  0.8959 -0.3026
  167fsi    FSI 1353   2.525   4.622   0.987  0.0771  0.8533 -0.4888
  168fsi    FSI 1354   0.480   3.316   5.442  0.1326  0.3473 -0.4245
  168fsi    SBT 1355   0.401   3.308   5.584  0.0779 -0.0224 -0.3357
  168fsi    NBT 1356   0.452   3.433   5.671 -1.0089 -0.1321  0.2821
  168fsi    OBT 1357   0.264   3.327   5.546  0.2407 -0.3498 -0.2884
  168fsi    OBT 1358   0.453   3.184   5.632  0.4734  0.2087 -0.7009
  168fsi    SBT 1359   0.384   3.554   5.758 -0.2141 -0.0629  0.1216
  168fsi    OBT 1360   0.448   3.563   5.887 -0.1661  0.3032 -0.0474
  168fsi    OBT 1361   0.241   3.560   5.754  0.1692  0.0448 -0.2169
  168fsi    FSI 1362   0.429   3.691   5.695 -0.0494 -0.0348 -0.2091
  169fsi    FSI 1363   0.922   0.112   5.915  0.5387 -0.1355 -0.4883
  169fsi    SBT 1364   1.044   0.055   5.993  0.2781 -0.2108  0.7441
  169fsi    NBT 1365   0.997   0.074   6.141  0.7276 -0.3712  0.5658
  169fsi    OBT 1366   1.046  -0.087   5.967  0.2050  0.5050  0.1122
  169fsi    OBT 1367   1.160   0.123   5.948 -0.3816 -1.0574 -0.2024
  169fsi    SBT 1368   0.904  -0.007   6.240  0.1103 -0.3440 -0.5515
  169fsi    OBT 1369   0.963  -0.003   6.370 -0.1482 -0.5397 -0.5206
  169fsi    OBT 1370   0.846  -0.132   6.196  0.0911 -1.3719 -0.2087
  169fsi    FSI 1371   0.786   0.096   6.266 -0.3285 -0.2791  0.1523
  170fsi    FSI 1372   0.505   2.892   0.410 -0.3934  0.3575  0.5643
  170fsi    SBT 1373   0.436   2.934   0.282 -0.4709  0.1573 -0.2094
  170fsi    NBT 1374   0.456   3.095   0.267 -0.0708 -0.2193  0.2875
  170fsi    OBT 1375   0.498   2.853   0.182 -1.0959  0.4122 -1.6673
  170fsi    OBT 1376   0.298   2.905   0.312 -0.3459  0.7683 -0.3253
  170fsi    SBT 1377   0.554   3.195   0.197  0.4627  0.3839 -0.1168
  170fsi    OBT 1378   0.506   3.327   0.193  0.4975 -0.1136  0.3358
  170fsi    OBT 1379   0.607   3.149   0.069  0.1646 -0.8606  0.8505
  170fsi    FSI 1380   0.672   3.196   0.299 -0.7566  0.0946  0.9448
  171fsi    FSI 1381   2.257   3.087   3.631  0.4746  0.6309 -0.0621
  171fsi    SBT 1382   2.395   3.057   3.716  0.1725 -0.1742 -0.1111
  171fsi    NBT 1383   2.394   3.168   3.831  0.0713 -0.1267  0.2731
  171fsi    OBT 1384   2.376   2.922   3.765 -1.0926 -0.3059  0.2027
  171fsi    OBT 1385   2.492   3.088   3.617  0.1133  0.3264  0.1935
  171fsi    SBT 1386   2.289   3.174   3.944  0.3312 -0.1176 -0.1548
  171fsi    OBT 1387   2.325   3.275   4.046 -0.3667 -0.0219  0.3614
  171fsi    OBT 1388   2.267   3.044   4.007 -0.2040  0.3548  0.4986
  171fsi    FSI 1389   2.144   3.231   3.888  0.4520 -0.3173  0.2195
  172fsi    FSI 1390   4.433   0.856   3.678  0.0191 -0.2401 -0.2426
  172fsi    SBT 1391   4.523   0.957   3.605 -0.1961 -0.3961  0.2780
  172fsi    NBT 1392   4.445   1.007   3.469 -0.8979  0.1356 -0.0991
  172fsi    OBT 1393   4.543   1.052   3.713 -0.1107 -0.0594 -0.1635
  172fsi    OBT 1394   4.635   0.877   3.566  0.1911  0.0195 -0.5152
  172fsi    SBT 1395   4.319   1.109   3.461  0.3086 -0.3468  0.1905
  172fsi    OBT 1396   4.323   1.198   3.351  1.3364 -0.3829  0.1995
  172fsi    OBT 1397   4.257   1.147   3.586 -0.0462  0.2143  0.1415
  172fsi    FSI 1398   4.208   1.007   3.406 -0.8200  0.1829  0.0147
  173fsi    FSI 1399   0.915   1.422   4.064 -0.1435 -0.5193 -0.1681
  173fsi    SBT 1400   0.939   1.271   4.097 -0.0279  0.0573  0.3376
  173fsi    NBT 1401   0.994   1.279   4.248  0.7765  0.9367 -0.1979
  173fsi    OBT 1402   0.811   1.203   4.085  0.0840 -0.1345  0.3690
  173fsi    OBT 1403   1.040   1.229   3.999 -0.3393  0.6739 -0.9450
  173fsi    SBT 1404   0.913   1.254   4.380 -0.0028  0.3554 -0.2250
  173fsi    OBT 1405   0.774   1.281   4.372  0.2959 -0.5246 -0.6216
  173fsi    OBT 1406   0.988   1.308   4.488 -0.6756 -0.1302 -0.1909
  173fsi    FSI 1407   0.931   1.097   4.406  0.0332  0.2431  0.0058
  174fsi    FSI 1408   2.224   5.165   2.585 -0.0147  0.0991  0.4070
  174fsi    SBT 1409   2.359   5.120   2.516  0.1616  0.2028  0.2306
  174fsi    NBT 1410   2.460   5.202   2.598  0.7340 -0.2880 -0.2458
  174fsi    OBT 1411   2.363   4.982   2.561 -0.1413 -0.1174  0.8962
  174fsi    OBT 1412   2.343   5.155   2.376  0.4524 -0.1158 -0.4263
  174fsi    SBT 1413   2.585   5.273   2.538 -0.4047  0.1649 -0.2716
  174fsi    OBT 1414   2.652   5.206   2.430 -0.4843  0.5583 -0.8688
  174fsi    OBT 1415   2.667   5.328   2.642  0.0262 -0.2209 -0.1373
  174fsi    FSI 1416   2.516   5.401   2.476  0.0078  0.2589 -0.2147
  175fsi    FSI 1417   3.978   1.530   2.374 -0.5597  0.1751  0.2852
  175fsi    SBT 1418   3.930   1.494   2.223 -0.0792  0.1671  0.0829
  175fsi    NBT 1419   3.793   1.420   2.247 -0.4323 -0.3049  1.2995
  175fsi    OBT 1420   3.921   1.620   2.153 -0.1542  0.3901  0.2134
  175fsi    OBT 1421   4.033   1.405   2.183 -0.3147 -0.4754 -0.3660
  175fsi    SBT 1422   3.656   1.490   2.284 -0.2306 -0.0361  0.4264
  175fsi    OBT 1423   3.649   1.567   2.408 -0.2992  0.7630 -0.6486
  175fsi    OBT 1424   3.552   1.395   2.270  0.0507  0.2614 -0.2552
  175fsi    FSI 1425   3.614   1.596   2.171  0.2653  0.5763 -0.1027
  176fsi    FSI 1426   3.725   0.939   1.982 -0.0794 -1.1113  0.4873
  176fsi    SBT 1427   3.783   1.023   2.104 -0.3704 -0.3250 -0.0004
  176fsi    NBT 1428   3.884   0.921   2.165 -0.3605 -0.4152 -0.0326
  176fsi    OBT 1429   3.855   1.129   2.043  0.3768 -0.4036  0.4463
  176fsi    OBT 1430   3.671   1.067   2.186 -0.1826  0.2727  0.1577
  176fsi    SBT 1431   4.044   0.929   2.186 -0.4536 -0.0615 -0.1229
  176fsi    OBT 1432   4.078   0.885   2.323  0.1158 -0.1940  0.3914
  176fsi    OBT 1433   4.113   1.043   2.126  0.3120 -0.1425 -0.4193
  176fsi    FSI 1434   4.099   0.805   2.103  0.0363  0.1126 -0.1781
  177fsi    FSI 1435   3.842   1.965   2.468 -0.2076 -0.0424 -0.3371
  177fsi    SBT 1436   3.827   1.990   2.315  0.2133 -0.3649  0.2733
  177fsi    NBT 1437   3.844   2.137   2.282 -0.8434 -0.6547  0.7342
  177fsi    OBT 1438   3.925   1.913   2.246 -0.1210  0.0940  1.2373
  177fsi    OBT 1439   3.692   1.944   2.286 -0.3155 -0.0875  0.1039
  177fsi    SBT 1440   3.984   2.205   2.229 -0.1278 -0.1787  0.0113
  177fsi    OBT 1441   4.104   2.154   2.287 -1.0947 -0.3495 -0.1475
  177fsi    OBT 1442   3.997   2.354   2.217 -0.7601  0.4990  0.0135
  177fsi    FSI 1443   3.986   2.146   2.079  0.0131 -0.8226  0.7927
  178fsi    FSI 1444   4.262   4.487   3.360 -1.0161  0.3773 -0.4933
  178fsi    SBT 1445   4.318   4.575   3.479 -0.2365  0.0346  0.2294
  178fsi    NBT 1446   4.276   4.727   3.442 -0.4694  0.5372  0.5941
  178fsi    OBT 1447   4.250   4.527   3.596  0.1872  0.7760 -0.4116
  178fsi    OBT 1448   4.461   4.550   3.473 -0.1063  0.1659 -0.4005
  178fsi    SBT 1449   4.173   4.819   3.512 -0.3045  0.5171  0.1983
  178fsi    OBT 1450   4.233   4.951   3.544 -0.4345 -0.0173  1.1797
  178fsi    OBT 1451   4.100   4.751   3.616 -0.5075  0.4024 -0.1535
  178fsi    FSI 1452   4.078   4.852   3.399  0.0658 -0.0966  0.3269
  179fsi    FSI 1453   1.712   1.445   4.195 -0.1566 -0.5032 -0.0897
  179fsi    SBT 1454   1.765   1.358   4.078 -0.4054 -0.2980 -0.0586
  179fsi    NBT 1455   1.638   1.281   4.035  0.1702 -0.3987 -0.3026
  179fsi    OBT 1456   1.815   1.454   3.983  0.3253 -0.3266 -0.8441
  179fsi    OBT 1457   1.856   1.272   4.137 -0.0837  0.1561  0.6583
  179fsi    SBT 1458   1.566   1.277   3.891  0.0771  0.1849 -0.7015
  179fsi    OBT 1459   1.558   1.407   3.827 -0.0685  0.4030  0.1768
  179fsi    OBT 1460   1.442   1.206   3.894  0.2145 -0.6327 -0.3642
  179fsi    FSI 1461   1.671   1.186   3.810  0.5954  0.3745 -0.0437
  180fsi    FSI 1462   2.116   4.699   2.409 -0.0477 -0.0177  0.1351
  180fsi    SBT 1463   2.199   4.750   2.283  0.1680  0.6169  0.0545
  180fsi    NBT 1464   2.342   4.712   2.320 -0.1473 -0.0333  0.0119
  180fsi    OBT 1465   2.126   4.678   2.175  0.3438  0.0707 -0.3304
  180fsi    OBT 1466   2.174   4.894   2.298  0.3068  0.3905  0.1677
  180fsi    SBT 1467   2.421   4.574   2.319  0.2838 -0.3037 -0.0462
  180fsi    OBT 1468   2.337   4.458   2.303  0.1369 -0.4934  0.6404
  180fsi    OBT 1469   2.521   4.579   2.421 -1.1351 -0.4852  0.1860
  180fsi    FSI 1470   2.506   4.592   2.178 -0.4706  0.3578 -0.6128
  181fsi    FSI 1471   3.297   2.678   0.792  0.4760  0.0243 -0.5004
  181fsi    SBT 1472   3.338   2.643   0.650  0.2035 -0.4121  0.2428
  181fsi    NBT 1473   3.212   2.561   0.610  0.1152 -0.4912  0.2302
  181fsi    OBT 1474   3.345   2.769   0.578 -0.1661 -0.0668  0.7581
  181fsi    OBT 1475   3.465   2.575   0.660  0.5959  1.0308 -0.0064
  181fsi    SBT 1476   3.206   2.490   0.471 -0.0785  0.0935  0.1755
  181fsi    OBT 1477   3.278   2.367   0.465 -0.1717 -0.8294 -0.0631
  181fsi    OBT 1478   3.222   2.581   0.363  0.1854 -1.0213 -0.0180
  181fsi    FSI 1479   3.059   2.440   0.469  0.6728 -0.0579 -0.4616
  182fsi    FSI 1480   3.230   3.710   1.900 -0.4656  0.2685 -0.0801
  182fsi    SBT 1481   3.327   3.627   1.825  0.8446 -0.4448  0.1349
  182fsi    NBT 1482   3.469   3.694   1.841  0.1311  1.1274  0.6543
  182fsi    OBT 1483   3.321   3.504   1.901 -0.1952  0.5163  0.0065
  182fsi    OBT 1484   3.273   3.634   1.693  0.4995  0.2200  0.1905
  182fsi    SBT 1485   3.590   3.723   1.749 -0.0595 -0.1895  0.3760
  182fsi    OBT 1486   3.642   3.859   1.757  0.7705  0.3350  0.4411
  182fsi    OBT 1487   3.573   3.675   1.608 -0.3103  0.2867 -0.6669
  182fsi    FSI 1488   3.714   3.634   1.797  0.0939  0.6025 -0.4002
  183fsi    FSI 1489   4.386   4.444   4.214 -0.6165 -0.5447 -0.4968
  183fsi    SBT 1490   4.403   4.291   4.164  0.1034  0.3397  0.3796
  183fsi    NBT 1491   4.275   4.275   4.072 -1.1498 -0.1638  0.2428
  183fsi    OBT 1492   4.524   4.282   4.090 -0.0687  0.5433  0.1962
  183fsi    OBT 1493   4.393   4.218   4.286  0.4380  0.1672 -0.1534
  183fsi    SBT 1494   4.248   4.326   3.928  0.1232  0.1143  0.2673
  183fsi    OBT 1495   4.364   4.376   3.856 -0.4532 -0.6797  0.7042
  183fsi    OBT 1496   4.138   4.418   3.914 -0.2011  0.2543  0.7358
  183fsi    FSI 1497   4.211   4.199   3.829  0.0195  0.4690 -0.0480
  184fsi    FSI 1498   2.713   2.885   4.174 -0.5499  0.1938  0.1994
  184fsi    SBT 1499   2.576   2.937   4.116  0.1631 -0.3148 -0.8528
  184fsi    NBT 1500   2.476   2.875   4.218 -0.7514 -0.3863  0.2808
  184fsi    OBT 1501   2.609   3.076   4.105  0.3074 -0.4107 -0.9680
  184fsi    OBT 1502   2.569   2.851   3.999 -0.1746 -0.2741 -0.2418
  184fsi    SBT 1503   2.377   2.951   4.309  0.3242  0.2245 -0.0719
  184fsi    OBT 1504   2.255   2.887   4.295  0.0323 -0.1131 -1.1112
  184fsi    OBT 1505   2.391   3.098   4.308  0.0008 -0.2127  0.0024
  184fsi    FSI 1506   2.426   2.907   4.448  0.0040 -0.0325 -0.2399
  185fsi    FSI 1507   1.952   2.456   3.246 -0.5299  0.4197  0.7842
  185fsi    SBT 1508   1.906   2.372   3.118  0.3039 -0.3051 -0.1242
  185fsi    NBT 1509   1.761   2.323   3.160  0.1099 -0.1437  1.0135
  185fsi    OBT 1510   1.910   2.465   3.010  0.0298 -0.7142 -0.4791
  185fsi    OBT 1511   1.997   2.263   3.123 -0.0157 -0.4040 -0.1350
  185fsi    SBT 1512   1.699   2.181   3.131  0.0964 -0.1536  0.2642
  185fsi    OBT 1513   1.648   2.110   3.246 -0.8321 -0.0539 -0.2398
  185fsi    OBT 1514   1.777   2.098   3.039 -0.2568 -0.2142 -0.4340
  185fsi    FSI 1515   1.569   2.205   3.042 -0.0257 -0.0751 -0.0754
  186fsi    FSI 1516   1.498   1.149   4.284  0.0529  0.2750  0.0315
  186fsi    SBT 1517   1.349   1.208   4.263 -0.0229  0.2912  0.0710
  186fsi    NBT 1518   1.349   1.317   4.146 -0.2055  0.6230 -0.0397
  186fsi    OBT 1519   1.266   1.097   4.218 -0.2408 -0.2192 -0.1212
  186fsi    OBT 1520   1.309   1.259   4.389  0.3633  0.2209  0.1910
  186fsi    SBT 1521   1.336   1.477   4.139 -0.0365  0.0143  0.2626
  186fsi    OBT 1522   1.315   1.539   4.265 -0.2763  1.0943 -0.5827
  186fsi    OBT 1523   1.267   1.525   4.025  0.8006  0.3827 -0.4392
  186fsi    FSI 1524   1.480   1.530   4.097  0.5629  0.2841 -0.0515
  187fsi    FSI 1525   2.750   5.248   1.000 -0.0344 -0.5296 -0.0091
  187fsi    SBT 1526   2.671   5.108   0.994 -0.0382 -0.2558  0.0372
  187fsi    NBT 1527   2.565   5.131   0.874 -0.0469  0.3512  0.3923
  187fsi    OBT 1528   2.765   5.007   0.958  0.2061 -0.4306 -0.3467
  187fsi    OBT 1529   2.608   5.091   1.121  0.3567 -0.8690  0.3688
  187fsi    SBT 1530   2.410   5.172   0.869 -0.1230 -0.2336 -0.2250
  187fsi    OBT 1531   2.352   5.168   1.003  0.0582  0.2037  0.1801
  187fsi    OBT 1532   2.337   5.101   0.768  0.9514 -0.7996 -0.6582
  187fsi    FSI 1533   2.399   5.327   0.837 -0.3995 -0.0414  0.0053
  188fsi    FSI 1534   3.767   2.498   0.291  0.5098 -0.4203  0.5569
  188fsi    SBT 1535   3.666   2.518   0.410 -0.1389 -0.0549 -0.0698
  188fsi    NBT 1536   3.757   2.576   0.521  0.9909  0.0812  0.4248
  188fsi    OBT 1537   3.568   2.602   0.353 -0.5304 -0.3180  0.4771
  188fsi    OBT 1538   3.620   2.385   0.440 -0.5107  0.1631 -0.9666
  188fsi    SBT 1539   3.761   2.730   0.572 -0.2997 -0.1630 -0.1712
  188fsi    OBT 1540   3.758   2.750   0.716 -0.2337  0.2984  0.6328
  188fsi    OBT 1541   3.663   2.806   0.498  0.4731 -0.3017 -0.3985
  188fsi    FSI 1542   3.895   2.782   0.523 -0.7839  0.3560  0.1491
  189fsi    FSI 1543   4.690   5.465   1.134 -0.1905 -0.0300  0.2417
  189fsi    SBT 1544   4.575   5.386   1.062  0.1704  0.1597 -0.1268
  189fsi    NBT 1545   4.619   5.395   0.909 -0.0781  0.2903 -0.0050
  189fsi    OBT 1546   4.587   5.256   1.121  0.1099  0.1800 -0.2754
  189fsi    OBT 1547   4.459   5.464   1.091 -0.4479 -0.1311 -0.0232
  189fsi    SBT 1548   4.634   5.276   0.810 -0.2490 -0.1645 -0.0133
  189fsi    OBT 1549   4.651   5.142   0.867  0.3335 -0.0604  0.5397
  189fsi    OBT 1550   4.716   5.309   0.697 -0.0673 -0.2441  0.2337
  189fsi    FSI 1551   4.501   5.270   0.736  0.1151  0.0628 -0.2126
  190fsi    FSI 1552   4.539   1.111   4.260 -0.2664 -0.6171 -0.3680
  190fsi    SBT 1553   4.549   1.218   4.144  0.4097  0.2957 -0.4550
  190fsi    NBT 1554   4.701   1.242   4.132 -0.1952  0.2530  0.1082
  190fsi    OBT 1555   4.500   1.149   4.025  0.0627 -1.9655 -0.3711
  190fsi    OBT 1556   4.469   1.330   4.186  0.7476  0.5921  0.2119
  190fsi    SBT 1557   4.790   1.346   4.208 -0.2400 -0.1413  0.1274
  190fsi    OBT 1558   4.928   1.347   4.176 -0.5838  0.7189 -1.1540
  190fsi    OBT 1559   4.753   1.364   4.348 -0.2790 -0.4162  0.1349
  190fsi    FSI 1560   4.754   1.489   4.150 -0.3047  0.3337 -0.4846
  191fsi    FSI 1561   4.110   2.492   2.924  0.4491  0.1792  0.6742
  191fsi    SBT 1562   4.204   2.369   2.923 -0.1720 -0.1472  0.1767
  191fsi    NBT 1563   4.214   2.341   2.770  0.0684 -0.2475  0.2745
  191fsi    OBT 1564   4.327   2.409   2.982  0.2249 -0.4342 -0.6674
  191fsi    OBT 1565   4.130   2.263   2.988 -0.5377 -0.5278 -0.2098
  191fsi    SBT 1566   4.234   2.207   2.685 -1.1906  0.2080 -0.1053
  191fsi    OBT 1567   4.327   2.114   2.743 -1.0499  0.6173 -0.2114
  191fsi    OBT 1568   4.259   2.235   2.548 -1.1935 -0.1225  0.1966
  191fsi    FSI 1569   4.092   2.138   2.690  0.4996 -0.3621  0.1175
  192fsi    FSI 1570   2.956   5.283   0.119  0.4992 -0.3981 -0.2152
  192fsi    SBT 1571   3.018   5.138   0.084  0.0410  0.2255 -0.4557
  192fsi    NBT 1572   3.131   5.178  -0.017 -0.2230  0.1207 -0.4288
  192fsi    OBT 1573   3.058   5.092   0.216  0.8327  1.1241 -0.0356
  192fsi    OBT 1574   2.909   5.068   0.017  0.2488 -0.3842  0.5413
  192fsi    SBT 1575   3.290   5.190   0.004  0.1218  0.0592  0.1834
  192fsi    OBT 1576   3.363   5.191  -0.123 -0.0557  0.2604  0.5258
  192fsi    OBT 1577   3.341   5.100   0.105 -0.2840 -0.5222  0.0634
  192fsi    FSI 1578   3.307   5.334   0.065 -0.0347  0.0307  0.6928
  193fsi    FSI 1579   1.730   2.640   2.186 -0.0660  0.2961 -0.5613
  193fsi    SBT 1580   1.872   2.594   2.138 -0.1489 -0.1039 -0.2608
  193fsi    NBT 1581   1.912   2.706   2.034  0.1119 -0.7114 -0.4047
  193fsi    OBT 1582   1.953   2.590   2.259  0.4879 -0.2295 -0.6970
  193fsi    OBT 1583   1.843   2.473   2.068 -0.4204  0.0318 -0.2749
  193fsi    SBT 1584   2.019   2.821   2.035  0.1019 -0.1719 -0.2514
  193fsi    OBT 1585   2.060   2.866   2.166  0.3302 -0.0479  0.0896
  193fsi    OBT 1586   2.000   2.919   1.932  0.1910  0.3135 -0.2652
  193fsi    FSI 1587   2.142   2.745   1.983  0.3240  0.3821 -0.2721
  194fsi    FSI 1588   3.245   2.351   2.828  0.0675 -0.2152 -0.3050
  194fsi    SBT 1589   3.176   2.485   2.775  0.5516  0.0235  0.0524
  194fsi    NBT 1590   3.058   2.432   2.684  0.3741 -0.2867 -0.2432
  194fsi    OBT 1591   3.141   2.563   2.891 -0.1711 -0.0975  0.1977
  194fsi    OBT 1592   3.275   2.542   2.692  0.5456 -0.3109 -0.2239
  194fsi    SBT 1593   2.903   2.420   2.710 -0.2695  0.3077  0.2943
  194fsi    OBT 1594   2.872   2.406   2.849  0.2224 -0.0052  0.6002
  194fsi    OBT 1595   2.839   2.324   2.622 -0.2157  0.4832  0.7760
  194fsi    FSI 1596   2.845   2.561   2.664  0.0001  0.0387  0.4091
  195fsi    FSI 1597   4.099   5.406   5.372 -0.6024  0.3330  0.2694
  195fsi    SBT 1598   4.073   5.380   5.219 -0.2984 -0.2809  0.3156
  195fsi    NBT 1599   4.191   5.289   5.179 -0.5319  0.4575  0.1717
  195fsi    OBT 1600   3.941   5.321   5.213  0.1457 -0.1682 -0.0945
  195fsi    OBT 1601   4.084   5.516   5.169  0.2928 -0.1225  0.3115
  195fsi    SBT 1602   4.192   5.132   5.154 -0.1701  0.0972 -0.2558
  195fsi    OBT 1603   4.315   5.079   5.108  0.0706 -0.1696 -0.5885
  195fsi    OBT 1604   4.075   5.089   5.080 -0.3391  0.8375 -0.2901
  195fsi    FSI 1605   4.162   5.072   5.294 -0.5296  0.5960 -0.1545
  196fsi    FSI 1606   4.116   1.760   3.579 -0.1443 -0.0738  0.0320
  196fsi    SBT 1607   4.035   1.629   3.609 -0.0352 -0.2069 -0.0100
  196fsi    NBT 1608   4.036   1.615   3.768 -0.7542 -0.0048 -0.2484
  196fsi    OBT 1609   3.904   1.667   3.568 -0.0565 -1.0131 -0.4510
  196fsi    OBT 1610   4.107   1.526   3.541  0.4165  0.2140 -0.9581
  196fsi    SBT 1611   4.021   1.493   3.864  0.1637  0.1460  0.2099
  196fsi    OBT 1612   4.093   1.513   3.984  0.0230  0.3004  0.2833
  196fsi    OBT 1613   4.040   1.364   3.803 -0.4581  0.2524  0.0813
  196fsi    FSI 1614   3.871   1.503   3.914 -0.0343 -0.2197  0.0765
  197fsi    FSI 1615   4.087   5.311   3.954 -0.6171 -0.3977 -0.1827
  197fsi    SBT 1616   3.945   5.254   3.960  0.1378  0.5936 -0.0319
  197fsi    NBT 1617   3.976   5.140   4.057 -0.0730 -0.0047  0.0335
  197fsi    OBT 1618   3.870   5.366   4.010 -0.4120  0.3984 -0.3619
  197fsi    OBT 1619   3.915   5.212   3.824 -1.1403  0.2989 -0.2521
  197fsi    SBT 1620   3.919   5.119   4.203  0.5170 -0.0729  0.0959
  197fsi    OBT 1621   3.873   5.238   4.277 -0.1182 -0.0605  0.2724
  197fsi    OBT 1622   4.006   5.022   4.263  0.3431  0.3537  0.2758
  197fsi    FSI 1623   3.788   5.037   4.175 -0.0443 -0.4817  0.4766
  198fsi    FSI 1624   2.554   3.778   1.991  0.7786  0.0542 -0.1764
  198fsi    SBT 1625   2.425   3.867   1.937 -0.0766 -0.1079  0.3319
  198fsi    NBT 1626   2.364   3.932   2.068 -0.0110 -0.3527  0.3203
  198fsi    OBT 1627   2.480   3.964   1.846 -0.2136  0.7017 -0.0073
  198fsi    OBT 1628   2.334   3.768   1.884 -0.8457  0.3564  0.1103
  198fsi    SBT 1629   2.277   4.063   2.058  0.1911 -0.0214  0.0603
  198fsi    OBT 1630   2.201   4.082   1.939  0.1700 -0.1542 -0.5858
  198fsi    OBT 1631   2.346   4.180   2.104  0.7879  0.6779  0.2726
  198fsi    FSI 1632   2.160   4.035   2.164 -0.0738 -0.0579  0.3162
  199fsi    FSI 1633   4.824   1.533   3.787 -0.1357 -0.2102 -0.5056
  199fsi    SBT 1634   4.702   1.450   3.733 -0.1694 -0.2276 -0.1192
  199fsi    NBT 1635   4.586   1.506   3.824  0.0135 -0.3180  0.5530
  199fsi    OBT 1636   4.696   1.490   3.599  0.2722 -0.6841  0.0236
  199fsi    OBT 1637   4.729   1.313   3.754 -0.4044  0.0988 -0.5787
  199fsi    SBT 1638   4.435   1.467   3.827  0.3957 -0.3805  0.2307
  199fsi    OBT 1639   4.372   1.475   3.957  0.6744 -0.3020  0.6813
  199fsi    OBT 1640   4.402   1.348   3.753 -0.4212 -0.2951 -0.4703
  199fsi    FSI 1641   4.368   1.584   3.746  0.0018 -0.2219 -0.8975
  200fsi    FSI 1642   2.516   4.493   1.530  0.2494 -0.0129 -0.3821
  200fsi    SBT 1643   2.539   4.466   1.689  0.1486  0.7537  0.0368
  200fsi    NBT 1644   2.405   4.527   1.748  0.6509 -0.8706 -0.0825
  200fsi    OBT 1645   2.561   4.325   1.701 -0.0329 -0.2453 -0.0737
  200fsi    OBT 1646   2.652   4.547   1.718  0.4640  0.1545  0.6026
  200fsi    SBT 1647   2.284   4.446   1.808  0.3695 -0.5384  0.0949
  200fsi    OBT 1648   2.249   4.319   1.748  0.7898  0.8312  0.7588
  200fsi    OBT 1649   2.184   4.535   1.853  0.2310  0.2728 -0.7694
  200fsi    FSI 1650   2.360   4.397   1.943 -0.9805 -0.1620  0.8015
   5.96390   5.96390   5.96390
