simbox
 2300
    1Li      Li    1   1.875   2.000   2.644
    2Li      Li    2   0.557   2.804   2.812
    3Li      Li    3   2.285   0.856   0.891
    4Li      Li    4   1.833   0.599   0.243
    5Li      Li    5   1.784   0.426   2.889
    6Li      Li    6   1.219   0.874   1.476
    7Li      Li    7   1.546   2.647   2.993
    8Li      Li    8   1.374   0.001   0.599
    9Li      Li    9   0.946   1.812   2.206
   10Li      Li   10   2.936   2.260   2.205
   11Li      Li   11   2.457   1.763   2.063
   12Li      Li   12   2.544   0.663   3.000
   13Li      Li   13   0.826   2.760   1.441
   14Li      Li   14   1.751   0.588   1.459
   15Li      Li   15   0.466   2.826   2.225
   16Li      Li   16   1.759   2.507   1.887
   17Li      Li   17   0.202   0.968   2.235
   18Li      Li   18   2.398   2.541   2.320
   19Li      Li   19   0.524   1.852   1.033
   20Li      Li   20   2.662   0.728   0.522
   21Li      Li   21   0.687   1.013   0.464
   22Li      Li   22   2.819   2.826   2.108
   23Li      Li   23   1.721   0.888   1.226
   24Li      Li   24   2.048   2.590   2.949
   25Li      Li   25   1.203   2.053   2.125
   26Li      Li   26   2.265   0.370   0.601
   27Li      Li   27   1.817   2.797   1.284
   28Li      Li   28   0.885   1.578   3.045
   29Li      Li   29   0.997   0.961   2.203
   30Li      Li   30   2.632   1.444   0.685
   31Li      Li   31   2.628   1.224   2.175
   32Li      Li   32   1.209   1.581   0.542
   33Li      Li   33   0.630   1.275   1.632
   34Li      Li   34   1.047   3.056   0.012
   35Li      Li   35   2.682   2.197   0.979
   36Li      Li   36   2.525   0.628   2.272
   37Li      Li   37   1.184   2.776   1.152
   38Li      Li   38   0.467   2.303   0.694
   39Li      Li   39   1.566   1.507   0.060
   40Li      Li   40   0.026   0.615   0.185
   41Li      Li   41   1.530   2.737   2.565
   42Li      Li   42   1.902   1.443   2.322
   43Li      Li   43   0.406   1.015   1.354
   44Li      Li   44   1.411   2.544   1.048
   45Li      Li   45   1.832   1.894   1.937
   46Li      Li   46   2.163   2.884   0.329
   47Li      Li   47   0.659   0.627   1.331
   48Li      Li   48   1.037   1.233   1.536
   49Li      Li   49   1.973   2.907   2.383
   50Li      Li   50   2.021   2.417   1.380
   51c3c      N   51   2.557   2.843   2.681
   51c3c     C1   52   2.594   2.702   2.701
   51c3c     C2   53   2.653   2.920   2.763
   51c3c     C3   54   2.652   2.688   2.841
   51c3c     C4   55   2.704   2.827   2.874
   51c3c     C5   56   2.575   2.879   2.540
   51c3c     C6   57   2.416   2.871   2.713
   51c3c     H1   58   2.675   2.674   2.633
   51c3c     H2   59   2.511   2.633   2.682
   51c3c     H3   60   2.739   2.952   2.705
   51c3c     H4   61   2.609   3.011   2.803
   51c3c     H5   62   2.732   2.613   2.844
   51c3c     H6   63   2.577   2.656   2.914
   51c3c     H7   64   2.813   2.826   2.875
   51c3c     H8   65   2.670   2.860   2.972
   51c3c     H9   66   2.509   2.822   2.475
   51c3c    H10   67   2.555   2.984   2.523
   51c3c    H11   68   2.677   2.861   2.505
   51c3c    H12   69   2.394   2.976   2.690
   51c3c    H13   70   2.352   2.813   2.646
   51c3c     C7   71   2.367   2.847   2.857
   51c3c    H14   72   2.421   2.909   2.928
   51c3c    H15   73   2.384   2.743   2.887
   51c3c     C8   74   2.217   2.875   2.870
   51c3c    H16   75   2.159   2.817   2.799
   51c3c    H17   76   2.194   2.980   2.853
   51c3c    H18   77   2.181   2.849   2.970
   52c3c      N   78   1.672   0.274   1.062
   52c3c     C1   79   1.720   0.384   1.144
   52c3c     C2   80   1.667   0.160   1.154
   52c3c     C3   81   1.820   0.328   1.241
   52c3c     C4   82   1.780   0.182   1.255
   52c3c     C5   83   1.537   0.306   1.014
   52c3c     C6   84   1.756   0.249   0.944
   52c3c     H1   85   1.639   0.421   1.207
   52c3c     H2   86   1.758   0.469   1.086
   52c3c     H3   87   1.574   0.161   1.211
   52c3c     H4   88   1.672   0.064   1.104
   52c3c     H5   89   1.809   0.385   1.333
   52c3c     H6   90   1.923   0.341   1.209
   52c3c     H7   91   1.742   0.160   1.355
   52c3c     H8   92   1.866   0.117   1.237
   52c3c     H9   93   1.538   0.384   0.938
   52c3c    H10   94   1.488   0.219   0.971
   52c3c    H11   95   1.471   0.342   1.093
   52c3c    H12   96   1.711   0.170   0.884
   52c3c    H13   97   1.755   0.341   0.884
   52c3c     C7   98   1.905   0.215   0.961
   52c3c    H14   99   1.918   0.128   1.026
   52c3c    H15  100   1.957   0.300   1.005
   52c3c     C8  101   1.975   0.184   0.829
   52c3c    H16  102   1.976   0.272   0.764
   52c3c    H17  103   1.925   0.104   0.775
   52c3c    H18  104   2.079   0.155   0.844
   53c3c      N  105   2.823   1.293   1.063
   53c3c     C1  106   2.766   1.427   1.077
   53c3c     C2  107   2.708   1.209   1.026
   53c3c     C3  108   2.623   1.408   1.127
   53c3c     C4  109   2.583   1.267   1.092
   53c3c     C5  110   2.920   1.291   0.953
   53c3c     C6  111   2.897   1.243   1.180
   53c3c     H1  112   2.760   1.479   0.982
   53c3c     H2  113   2.825   1.492   1.143
   53c3c     H3  114   2.689   1.215   0.919
   53c3c     H4  115   2.722   1.102   1.044
   53c3c     H5  116   2.552   1.478   1.080
   53c3c     H6  117   2.619   1.423   1.235
   53c3c     H7  118   2.499   1.267   1.024
   53c3c     H8  119   2.552   1.213   1.182
   53c3c     H9  120   3.009   1.350   0.975
   53c3c    H10  121   2.951   1.189   0.933
   53c3c    H11  122   2.877   1.332   0.862
   53c3c    H12  123   2.928   1.140   1.159
   53c3c    H13  124   2.990   1.299   1.192
   53c3c     C7  125   2.827   1.243   1.317
   53c3c    H14  126   2.729   1.197   1.308
   53c3c    H15  127   2.811   1.345   1.352
   53c3c     C8  128   2.907   1.162   1.420
   53c3c    H16  129   3.002   1.211   1.446
   53c3c    H17  130   2.931   1.062   1.384
   53c3c    H18  131   2.851   1.148   1.512
   54c3c      N  132   0.309   1.288   0.506
   54c3c     C1  133   0.393   1.188   0.439
   54c3c     C2  134   0.192   1.217   0.560
   54c3c     C3  135   0.307   1.065   0.410
   54c3c     C4  136   0.180   1.082   0.491
   54c3c     C5  137   0.379   1.345   0.620
   54c3c     C6  138   0.274   1.399   0.416
   54c3c     H1  139   0.476   1.159   0.504
   54c3c     H2  140   0.443   1.228   0.351
   54c3c     H3  141   0.200   1.198   0.667
   54c3c     H4  142   0.102   1.278   0.549
   54c3c     H5  143   0.358   0.974   0.442
   54c3c     H6  144   0.284   1.057   0.304
   54c3c     H7  145   0.170   1.002   0.565
   54c3c     H8  146   0.093   1.078   0.425
   54c3c     H9  147   0.470   1.399   0.593
   54c3c    H10  148   0.311   1.413   0.672
   54c3c    H11  149   0.405   1.270   0.694
   54c3c    H12  150   0.216   1.473   0.471
   54c3c    H13  151   0.366   1.450   0.388
   54c3c     C7  152   0.198   1.359   0.288
   54c3c    H14  153   0.102   1.314   0.314
   54c3c    H15  154   0.253   1.284   0.232
   54c3c     C8  155   0.176   1.479   0.197
   54c3c    H16  156   0.271   1.523   0.167
   54c3c    H17  157   0.117   1.557   0.247
   54c3c    H18  158   0.123   1.450   0.106
   55c3c      N  159   0.814   2.456   0.623
   55c3c     C1  160   0.763   2.403   0.751
   55c3c     C2  161   0.960   2.449   0.632
   55c3c     C3  162   0.866   2.440   0.856
   55c3c     C4  163   0.997   2.445   0.780
   55c3c     C5  164   0.769   2.367   0.515
   55c3c     C6  165   0.766   2.593   0.592
   55c3c     H1  166   0.760   2.294   0.751
   55c3c     H2  167   0.665   2.441   0.777
   55c3c     H3  168   0.999   2.358   0.587
   55c3c     H4  169   1.009   2.531   0.580
   55c3c     H5  170   0.868   2.369   0.939
   55c3c     H6  171   0.845   2.538   0.899
   55c3c     H7  172   1.054   2.354   0.798
   55c3c     H8  173   1.058   2.530   0.812
   55c3c     H9  174   0.661   2.366   0.505
   55c3c    H10  175   0.809   2.398   0.419
   55c3c    H11  176   0.802   2.264   0.531
   55c3c    H12  177   0.807   2.622   0.495
   55c3c    H13  178   0.658   2.592   0.579
   55c3c     C7  179   0.800   2.705   0.693
   55c3c    H14  180   0.907   2.708   0.715
   55c3c    H15  181   0.748   2.689   0.787
   55c3c     C8  182   0.758   2.844   0.643
   55c3c    H16  183   0.650   2.849   0.625
   55c3c    H17  184   0.809   2.871   0.551
   55c3c    H18  185   0.782   2.921   0.717
   56c3c      N  186   1.799   1.986   0.930
   56c3c     C1  187   1.660   1.933   0.928
   56c3c     C2  188   1.786   2.131   0.941
   56c3c     C3  189   1.566   2.053   0.930
   56c3c     C4  190   1.650   2.169   0.884
   56c3c     C5  191   1.872   1.934   1.046
   56c3c     C6  192   1.876   1.947   0.810
   56c3c     H1  193   1.639   1.864   1.009
   56c3c     H2  194   1.641   1.877   0.837
   56c3c     H3  195   1.788   2.162   1.045
   56c3c     H4  196   1.870   2.180   0.891
   56c3c     H5  197   1.535   2.072   1.033
   56c3c     H6  198   1.476   2.038   0.869
   56c3c     H7  199   1.613   2.265   0.921
   56c3c     H8  200   1.648   2.175   0.775
   56c3c     H9  201   1.881   1.826   1.041
   56c3c    H10  202   1.974   1.974   1.052
   56c3c    H11  203   1.824   1.960   1.140
   56c3c    H12  204   1.980   1.977   0.822
   56c3c    H13  205   1.879   1.839   0.801
   56c3c     C7  206   1.825   2.005   0.678
   56c3c    H14  207   1.830   2.114   0.678
   56c3c    H15  208   1.721   1.976   0.663
   56c3c     C8  209   1.906   1.961   0.557
   56c3c    H16  210   1.900   1.853   0.546
   56c3c    H17  211   2.010   1.991   0.568
   56c3c    H18  212   1.869   2.005   0.465
   57c3c      N  213   0.396   0.281   1.683
   57c3c     C1  214   0.427   0.424   1.666
   57c3c     C2  215   0.268   0.256   1.615
   57c3c     C3  216   0.293   0.496   1.647
   57c3c     C4  217   0.195   0.390   1.605
   57c3c     C5  218   0.502   0.204   1.617
   57c3c     C6  219   0.395   0.238   1.824
   57c3c     H1  220   0.485   0.443   1.575
   57c3c     H2  221   0.484   0.467   1.748
   57c3c     H3  222   0.281   0.220   1.513
   57c3c     H4  223   0.206   0.180   1.664
   57c3c     H5  224   0.300   0.572   1.569
   57c3c     H6  225   0.259   0.542   1.739
   57c3c     H7  226   0.162   0.409   1.503
   57c3c     H8  227   0.109   0.396   1.672
   57c3c     H9  228   0.598   0.216   1.667
   57c3c    H10  229   0.478   0.097   1.615
   57c3c    H11  230   0.516   0.234   1.513
   57c3c    H12  231   0.384   0.129   1.827
   57c3c    H13  232   0.492   0.260   1.868
   57c3c     C7  233   0.286   0.297   1.915
   57c3c    H14  234   0.186   0.275   1.878
   57c3c    H15  235   0.294   0.406   1.918
   57c3c     C8  236   0.299   0.243   2.058
   57c3c    H16  237   0.398   0.261   2.099
   57c3c    H17  238   0.281   0.135   2.062
   57c3c    H18  239   0.226   0.290   2.124
   58c3c      N  240   2.800   1.789   0.281
   58c3c     C1  241   2.935   1.827   0.324
   58c3c     C2  242   2.716   1.801   0.401
   58c3c     C3  243   2.947   1.801   0.475
   58c3c     C4  244   2.805   1.776   0.522
   58c3c     C5  245   2.750   1.883   0.180
   58c3c     C6  246   2.796   1.655   0.220
   58c3c     H1  247   2.952   1.934   0.310
   58c3c     H2  248   3.013   1.776   0.268
   58c3c     H3  249   2.675   1.902   0.412
   58c3c     H4  250   2.628   1.737   0.395
   58c3c     H5  251   2.988   1.887   0.526
   58c3c     H6  252   3.009   1.714   0.497
   58c3c     H7  253   2.781   1.844   0.604
   58c3c     H8  254   2.794   1.674   0.560
   58c3c     H9  255   2.810   1.880   0.089
   58c3c    H10  256   2.647   1.861   0.152
   58c3c    H11  257   2.750   1.986   0.216
   58c3c    H12  258   2.697   1.640   0.174
   58c3c    H13  259   2.865   1.651   0.136
   58c3c     C7  260   2.820   1.532   0.309
   58c3c    H14  261   2.747   1.528   0.390
   58c3c    H15  262   2.919   1.535   0.355
   58c3c     C8  263   2.805   1.403   0.229
   58c3c    H16  264   2.876   1.397   0.146
   58c3c    H17  265   2.704   1.396   0.187
   58c3c    H18  266   2.820   1.315   0.292
   59c3c      N  267   0.964   2.495   2.205
   59c3c     C1  268   0.830   2.477   2.260
   59c3c     C2  269   1.056   2.441   2.305
   59c3c     C3  270   0.845   2.480   2.413
   59c3c     C4  271   0.989   2.445   2.441
   59c3c     C5  272   0.981   2.414   2.085
   59c3c     C6  273   0.998   2.634   2.165
   59c3c     H1  274   0.790   2.378   2.235
   59c3c     H2  275   0.757   2.550   2.223
   59c3c     H3  276   1.082   2.337   2.286
   59c3c     H4  277   1.148   2.500   2.301
   59c3c     H5  278   0.779   2.407   2.460
   59c3c     H6  279   0.822   2.579   2.453
   59c3c     H7  280   0.996   2.347   2.489
   59c3c     H8  281   1.035   2.518   2.508
   59c3c     H9  282   0.921   2.450   2.001
   59c3c    H10  283   1.086   2.419   2.055
   59c3c    H11  284   0.958   2.309   2.099
   59c3c    H12  285   1.098   2.633   2.120
   59c3c    H13  286   0.932   2.666   2.085
   59c3c     C7  287   1.000   2.742   2.275
   59c3c    H14  288   1.063   2.711   2.359
   59c3c    H15  289   0.900   2.757   2.314
   59c3c     C8  290   1.055   2.874   2.220
   59c3c    H16  291   0.996   2.910   2.136
   59c3c    H17  292   1.158   2.863   2.187
   59c3c    H18  293   1.054   2.951   2.297
   60c3c      N  294   2.287   0.320   1.110
   60c3c     C1  295   2.315   0.376   1.241
   60c3c     C2  296   2.207   0.201   1.141
   60c3c     C3  297   2.336   0.260   1.338
   60c3c     C4  298   2.258   0.145   1.275
   60c3c     C5  299   2.208   0.418   1.034
   60c3c     C6  300   2.408   0.292   1.028
   60c3c     H1  301   2.235   0.439   1.280
   60c3c     H2  302   2.406   0.435   1.236
   60c3c     H3  303   2.104   0.229   1.159
   60c3c     H4  304   2.207   0.127   1.060
   60c3c     H5  305   2.304   0.284   1.439
   60c3c     H6  306   2.442   0.238   1.344
   60c3c     H7  307   2.176   0.113   1.339
   60c3c     H8  308   2.323   0.058   1.261
   60c3c     H9  309   2.266   0.509   1.017
   60c3c    H10  310   2.179   0.380   0.936
   60c3c    H11  311   2.117   0.449   1.085
   60c3c    H12  312   2.377   0.249   0.934
   60c3c    H13  313   2.456   0.387   1.002
   60c3c     C7  314   2.520   0.204   1.087
   60c3c    H14  315   2.481   0.112   1.132
   60c3c    H15  316   2.573   0.258   1.165
   60c3c     C8  317   2.620   0.160   0.981
   60c3c    H16  318   2.655   0.244   0.921
   60c3c    H17  319   2.576   0.086   0.914
   60c3c    H18  320   2.707   0.113   1.027
   61c3c      N  321   2.154   1.070   1.454
   61c3c     C1  322   2.009   1.063   1.427
   61c3c     C2  323   2.219   0.966   1.374
   61c3c     C3  324   1.983   0.932   1.352
   61c3c     C4  325   2.115   0.859   1.343
   61c3c     C5  326   2.199   1.203   1.412
   61c3c     C6  327   2.194   1.053   1.595
   61c3c     H1  328   1.974   1.144   1.363
   61c3c     H2  329   1.945   1.074   1.515
   61c3c     H3  330   2.257   1.005   1.279
   61c3c     H4  331   2.307   0.921   1.420
   61c3c     H5  332   1.948   0.955   1.251
   61c3c     H6  333   1.908   0.870   1.401
   61c3c     H7  334   2.129   0.817   1.244
   61c3c     H8  335   2.120   0.778   1.416
   61c3c     H9  336   2.149   1.279   1.472
   61c3c    H10  337   2.306   1.218   1.423
   61c3c    H11  338   2.173   1.226   1.309
   61c3c    H12  339   2.300   1.028   1.600
   61c3c    H13  340   2.189   1.149   1.648
   61c3c     C7  341   2.117   0.950   1.678
   61c3c    H14  342   2.117   0.853   1.628
   61c3c    H15  343   2.012   0.978   1.690
   61c3c     C8  344   2.176   0.939   1.818
   61c3c    H16  345   2.187   1.036   1.866
   61c3c    H17  346   2.275   0.894   1.816
   61c3c    H18  347   2.110   0.878   1.881
   62c3c      N  348   2.597   1.242   1.714
   62c3c     C1  349   2.552   1.380   1.704
   62c3c     C2  350   2.501   1.172   1.801
   62c3c     C3  351   2.470   1.410   1.827
   62c3c     C4  352   2.440   1.277   1.892
   62c3c     C5  353   2.593   1.186   1.580
   62c3c     C6  354   2.737   1.234   1.761
   62c3c     H1  355   2.480   1.386   1.622
   62c3c     H2  356   2.629   1.454   1.683
   62c3c     H3  357   2.418   1.130   1.744
   62c3c     H4  358   2.544   1.089   1.856
   62c3c     H5  359   2.379   1.460   1.793
   62c3c     H6  360   2.523   1.477   1.895
   62c3c     H7  361   2.333   1.260   1.906
   62c3c     H8  362   2.484   1.272   1.992
   62c3c     H9  363   2.643   1.251   1.508
   62c3c    H10  364   2.640   1.088   1.576
   62c3c    H11  365   2.490   1.175   1.544
   62c3c    H12  366   2.766   1.129   1.762
   62c3c    H13  367   2.802   1.283   1.689
   62c3c     C7  368   2.765   1.293   1.899
   62c3c    H14  369   2.703   1.241   1.973
   62c3c    H15  370   2.735   1.398   1.905
   62c3c     C8  371   2.912   1.280   1.937
   62c3c    H16  372   2.976   1.340   1.872
   62c3c    H17  373   2.945   1.177   1.930
   62c3c    H18  374   2.928   1.313   2.040
   63c3c      N  375   2.034   2.307   2.179
   63c3c     C1  376   1.990   2.174   2.138
   63c3c     C2  377   2.001   2.396   2.067
   63c3c     C3  378   2.008   2.170   1.986
   63c3c     C4  379   1.979   2.310   1.942
   63c3c     C5  380   1.958   2.355   2.294
   63c3c     C6  381   2.176   2.309   2.218
   63c3c     H1  382   1.885   2.160   2.162
   63c3c     H2  383   2.043   2.093   2.189
   63c3c     H3  384   1.908   2.449   2.085
   63c3c     H4  385   2.078   2.472   2.053
   63c3c     H5  386   1.944   2.099   1.934
   63c3c     H6  387   2.110   2.143   1.957
   63c3c     H7  388   1.876   2.316   1.909
   63c3c     H8  389   2.044   2.337   1.859
   63c3c     H9  390   1.979   2.300   2.386
   63c3c    H10  391   1.982   2.459   2.314
   63c3c    H11  392   1.850   2.349   2.278
   63c3c    H12  393   2.201   2.411   2.246
   63c3c    H13  394   2.186   2.248   2.308
   63c3c     C7  395   2.280   2.256   2.118
   63c3c    H14  396   2.267   2.303   2.020
   63c3c    H15  397   2.266   2.149   2.104
   63c3c     C8  398   2.424   2.279   2.166
   63c3c    H16  399   2.440   2.234   2.263
   63c3c    H17  400   2.448   2.385   2.172
   63c3c    H18  401   2.495   2.233   2.098
   64c3c      N  402   2.566   2.428   1.453
   64c3c     C1  403   2.570   2.281   1.461
   64c3c     C2  404   2.444   2.474   1.522
   64c3c     C3  405   2.434   2.235   1.509
   64c3c     C4  406   2.380   2.352   1.589
   64c3c     C5  407   2.685   2.478   1.523
   64c3c     C6  408   2.571   2.476   1.314
   64c3c     H1  409   2.642   2.247   1.536
   64c3c     H2  410   2.598   2.232   1.367
   64c3c     H3  411   2.467   2.556   1.589
   64c3c     H4  412   2.369   2.518   1.457
   64c3c     H5  413   2.444   2.145   1.570
   64c3c     H6  414   2.370   2.209   1.424
   64c3c     H7  415   2.412   2.344   1.693
   64c3c     H8  416   2.271   2.354   1.586
   64c3c     H9  417   2.777   2.440   1.479
   64c3c    H10  418   2.692   2.587   1.520
   64c3c    H11  419   2.685   2.450   1.628
   64c3c    H12  420   2.578   2.584   1.314
   64c3c    H13  421   2.662   2.440   1.267
   64c3c     C7  422   2.451   2.437   1.224
   64c3c    H14  423   2.358   2.480   1.260
   64c3c    H15  424   2.434   2.330   1.226
   64c3c     C8  425   2.470   2.489   1.082
   64c3c    H16  426   2.547   2.433   1.028
   64c3c    H17  427   2.496   2.595   1.080
   64c3c    H18  428   2.379   2.476   1.023
   65c3c      N  429   2.840   1.782   1.486
   65c3c     C1  430   2.925   1.904   1.482
   65c3c     C2  431   2.699   1.825   1.488
   65c3c     C3  432   2.833   2.021   1.515
   65c3c     C4  433   2.701   1.974   1.459
   65c3c     C5  434   2.865   1.705   1.364
   65c3c     C6  435   2.871   1.694   1.599
   65c3c     H1  436   2.963   1.923   1.382
   65c3c     H2  437   3.012   1.900   1.547
   65c3c     H3  438   2.634   1.772   1.420
   65c3c     H4  439   2.650   1.812   1.584
   65c3c     H5  440   2.866   2.114   1.469
   65c3c     H6  441   2.825   2.036   1.623
   65c3c     H7  442   2.695   1.992   1.351
   65c3c     H8  443   2.617   2.023   1.508
   65c3c     H9  444   2.968   1.671   1.356
   65c3c    H10  445   2.800   1.618   1.358
   65c3c    H11  446   2.846   1.766   1.275
   65c3c    H12  447   2.805   1.607   1.595
   65c3c    H13  448   2.972   1.656   1.589
   65c3c     C7  449   2.857   1.756   1.740
   65c3c    H14  450   2.754   1.785   1.762
   65c3c    H15  451   2.917   1.847   1.749
   65c3c     C8  452   2.902   1.658   1.847
   65c3c    H16  453   3.008   1.636   1.840
   65c3c    H17  454   2.847   1.564   1.838
   65c3c    H18  455   2.882   1.698   1.947
   66c3c      N  456   1.425   2.622   0.578
   66c3c     C1  457   1.508   2.508   0.617
   66c3c     C2  458   1.286   2.580   0.601
   66c3c     C3  459   1.427   2.385   0.582
   66c3c     C4  460   1.283   2.429   0.578
   66c3c     C5  461   1.453   2.735   0.666
   66c3c     C6  462   1.455   2.667   0.440
   66c3c     H1  463   1.525   2.502   0.724
   66c3c     H2  464   1.606   2.506   0.569
   66c3c     H3  465   1.256   2.594   0.704
   66c3c     H4  466   1.214   2.632   0.539
   66c3c     H5  467   1.444   2.307   0.656
   66c3c     H6  468   1.454   2.348   0.483
   66c3c     H7  469   1.228   2.379   0.657
   66c3c     H8  470   1.238   2.403   0.482
   66c3c     H9  471   1.560   2.759   0.669
   66c3c    H10  472   1.397   2.824   0.637
   66c3c    H11  473   1.422   2.713   0.768
   66c3c    H12  474   1.412   2.766   0.425
   66c3c    H13  475   1.563   2.682   0.431
   66c3c     C7  476   1.408   2.578   0.323
   66c3c    H14  477   1.302   2.554   0.330
   66c3c    H15  478   1.462   2.483   0.321
   66c3c     C8  479   1.430   2.648   0.189
   66c3c    H16  480   1.533   2.684   0.180
   66c3c    H17  481   1.364   2.734   0.177
   66c3c    H18  482   1.409   2.579   0.107
   67c3c      N  483   0.402   0.437   2.431
   67c3c     C1  484   0.304   0.331   2.461
   67c3c     C2  485   0.419   0.514   2.555
   67c3c     C3  486   0.214   0.384   2.574
   67c3c     C4  487   0.288   0.503   2.633
   67c3c     C5  488   0.529   0.373   2.396
   67c3c     C6  489   0.362   0.522   2.317
   67c3c     H1  490   0.354   0.242   2.500
   67c3c     H2  491   0.248   0.299   2.374
   67c3c     H3  492   0.498   0.471   2.618
   67c3c     H4  493   0.450   0.617   2.539
   67c3c     H5  494   0.199   0.307   2.649
   67c3c     H6  495   0.117   0.414   2.537
   67c3c     H7  496   0.306   0.491   2.740
   67c3c     H8  497   0.227   0.593   2.621
   67c3c     H9  498   0.522   0.315   2.304
   67c3c    H10  499   0.608   0.446   2.383
   67c3c    H11  500   0.564   0.307   2.475
   67c3c    H12  501   0.438   0.598   2.303
   67c3c    H13  502   0.364   0.464   2.224
   67c3c     C7  503   0.226   0.595   2.324
   67c3c    H14  504   0.225   0.664   2.409
   67c3c    H15  505   0.144   0.524   2.339
   67c3c     C8  506   0.195   0.676   2.198
   67c3c    H16  507   0.183   0.611   2.111
   67c3c    H17  508   0.274   0.747   2.176
   67c3c    H18  509   0.101   0.731   2.209
   68c3c      N  510   0.307   2.776   1.650
   68c3c     C1  511   0.395   2.694   1.568
   68c3c     C2  512   0.264   2.883   1.559
   68c3c     C3  513   0.468   2.786   1.470
   68c3c     C4  514   0.379   2.908   1.459
   68c3c     C5  515   0.192   2.694   1.691
   68c3c     C6  516   0.371   2.825   1.774
   68c3c     H1  517   0.330   2.630   1.508
   68c3c     H2  518   0.460   2.627   1.624
   68c3c     H3  519   0.179   2.850   1.500
   68c3c     H4  520   0.230   2.974   1.610
   68c3c     H5  521   0.480   2.739   1.372
   68c3c     H6  522   0.568   2.813   1.504
   68c3c     H7  523   0.340   2.919   1.358
   68c3c     H8  524   0.435   2.999   1.482
   68c3c     H9  525   0.222   2.606   1.748
   68c3c    H10  526   0.122   2.750   1.753
   68c3c    H11  527   0.134   2.655   1.607
   68c3c    H12  528   0.301   2.891   1.825
   68c3c    H13  529   0.384   2.739   1.841
   68c3c     C7  530   0.509   2.895   1.763
   68c3c    H14  531   0.503   2.979   1.694
   68c3c    H15  532   0.583   2.826   1.723
   68c3c     C8  533   0.562   2.947   1.898
   68c3c    H16  534   0.565   2.868   1.973
   68c3c    H17  535   0.499   3.027   1.937
   68c3c    H18  536   0.663   2.985   1.887
   69c3c      N  537   2.416   2.287   0.499
   69c3c     C1  538   2.557   2.296   0.456
   69c3c     C2  539   2.405   2.169   0.587
   69c3c     C3  540   2.612   2.155   0.461
   69c3c     C4  541   2.542   2.101   0.584
   69c3c     C5  542   2.386   2.407   0.576
   69c3c     C6  543   2.321   2.281   0.386
   69c3c     H1  544   2.615   2.353   0.528
   69c3c     H2  545   2.569   2.345   0.360
   69c3c     H3  546   2.378   2.193   0.690
   69c3c     H4  547   2.326   2.102   0.554
   69c3c     H5  548   2.720   2.153   0.473
   69c3c     H6  549   2.586   2.096   0.373
   69c3c     H7  550   2.602   2.135   0.669
   69c3c     H8  551   2.535   1.992   0.585
   69c3c     H9  552   2.413   2.497   0.521
   69c3c    H10  553   2.279   2.413   0.599
   69c3c    H11  554   2.440   2.410   0.671
   69c3c    H12  555   2.219   2.279   0.425
   69c3c    H13  556   2.329   2.374   0.329
   69c3c     C7  557   2.331   2.164   0.286
   69c3c    H14  558   2.302   2.070   0.334
   69c3c    H15  559   2.433   2.152   0.248
   69c3c     C8  560   2.244   2.187   0.164
   69c3c    H16  561   2.267   2.282   0.115
   69c3c    H17  562   2.138   2.187   0.190
   69c3c    H18  563   2.259   2.108   0.090
   70c3c      N  564   0.489   2.252   1.852
   70c3c     C1  565   0.430   2.238   1.987
   70c3c     C2  566   0.601   2.158   1.848
   70c3c     C3  567   0.538   2.182   2.081
   70c3c     C4  568   0.655   2.147   1.991
   70c3c     C5  569   0.390   2.215   1.751
   70c3c     C6  570   0.531   2.391   1.821
   70c3c     H1  571   0.348   2.166   1.986
   70c3c     H2  572   0.388   2.331   2.023
   70c3c     H3  573   0.568   2.059   1.817
   70c3c     H4  574   0.678   2.185   1.776
   70c3c     H5  575   0.502   2.091   2.130
   70c3c     H6  576   0.568   2.252   2.158
   70c3c     H7  577   0.688   2.045   2.013
   70c3c     H8  578   0.739   2.213   2.009
   70c3c     H9  579   0.303   2.281   1.753
   70c3c    H10  580   0.432   2.218   1.650
   70c3c    H11  581   0.353   2.114   1.766
   70c3c    H12  582   0.568   2.394   1.719
   70c3c    H13  583   0.443   2.455   1.823
   70c3c     C7  584   0.639   2.452   1.912
   70c3c    H14  585   0.734   2.401   1.893
   70c3c    H15  586   0.617   2.438   2.017
   70c3c     C8  587   0.659   2.600   1.885
   70c3c    H16  588   0.569   2.655   1.913
   70c3c    H17  589   0.679   2.618   1.780
   70c3c    H18  590   0.742   2.640   1.943
   71c3c      N  591   1.124   0.282   1.263
   71c3c     C1  592   1.181   0.156   1.312
   71c3c     C2  593   1.222   0.385   1.299
   71c3c     C3  594   1.276   0.192   1.427
   71c3c     C4  595   1.338   0.319   1.374
   71c3c     C5  596   1.110   0.278   1.117
   71c3c     C6  597   0.988   0.307   1.316
   71c3c     H1  598   1.240   0.107   1.235
   71c3c     H2  599   1.103   0.085   1.342
   71c3c     H3  600   1.269   0.429   1.211
   71c3c     H4  601   1.178   0.468   1.354
   71c3c     H5  602   1.353   0.118   1.447
   71c3c     H6  603   1.225   0.212   1.521
   71c3c     H7  604   1.418   0.293   1.305
   71c3c     H8  605   1.384   0.381   1.451
   71c3c     H9  606   1.044   0.198   1.083
   71c3c    H10  607   1.070   0.372   1.079
   71c3c    H11  608   1.206   0.262   1.067
   71c3c    H12  609   0.955   0.406   1.285
   71c3c    H13  610   0.920   0.236   1.268
   71c3c     C7  611   0.965   0.292   1.468
   71c3c    H14  612   1.015   0.372   1.522
   71c3c    H15  613   1.005   0.198   1.507
   71c3c     C8  614   0.816   0.292   1.506
   71c3c    H16  615   0.763   0.207   1.465
   71c3c    H17  616   0.766   0.383   1.473
   71c3c    H18  617   0.805   0.291   1.615
   72c3c      N  618   1.405   0.701   0.300
   72c3c     C1  619   1.389   0.837   0.249
   72c3c     C2  620   1.282   0.630   0.261
   72c3c     C3  621   1.241   0.868   0.243
   72c3c     C4  622   1.171   0.734   0.254
   72c3c     C5  623   1.520   0.640   0.234
   72c3c     C6  624   1.436   0.695   0.444
   72c3c     H1  625   1.428   0.845   0.147
   72c3c     H2  626   1.443   0.909   0.309
   72c3c     H3  627   1.291   0.588   0.161
   72c3c     H4  628   1.258   0.546   0.327
   72c3c     H5  629   1.215   0.920   0.150
   72c3c     H6  630   1.214   0.935   0.325
   72c3c     H7  631   1.104   0.715   0.171
   72c3c     H8  632   1.109   0.730   0.344
   72c3c     H9  633   1.609   0.701   0.249
   72c3c    H10  634   1.542   0.539   0.269
   72c3c    H11  635   1.502   0.633   0.127
   72c3c    H12  636   1.445   0.590   0.473
   72c3c    H13  637   1.534   0.739   0.462
   72c3c     C7  638   1.338   0.760   0.542
   72c3c    H14  639   1.240   0.716   0.525
   72c3c    H15  640   1.329   0.866   0.522
   72c3c     C8  641   1.384   0.736   0.686
   72c3c    H16  642   1.484   0.776   0.703
   72c3c    H17  643   1.386   0.630   0.710
   72c3c    H18  644   1.319   0.782   0.760
   73c3c      N  645   2.722   2.047   2.778
   73c3c     C1  646   2.644   2.170   2.759
   73c3c     C2  647   2.834   2.076   2.870
   73c3c     C3  648   2.718   2.286   2.826
   73c3c     C4  649   2.845   2.227   2.885
   73c3c     C5  650   2.635   1.947   2.841
   73c3c     C6  651   2.767   1.991   2.648
   73c3c     H1  652   2.543   2.165   2.801
   73c3c     H2  653   2.627   2.192   2.653
   73c3c     H3  654   2.817   2.034   2.969
   73c3c     H4  655   2.928   2.032   2.836
   73c3c     H5  656   2.657   2.330   2.905
   73c3c     H6  657   2.741   2.365   2.755
   73c3c     H7  658   2.856   2.256   2.990
   73c3c     H8  659   2.933   2.265   2.833
   73c3c     H9  660   2.550   1.922   2.778
   73c3c    H10  661   2.688   1.854   2.863
   73c3c    H11  662   2.594   1.983   2.936
   73c3c    H12  663   2.815   1.895   2.664
   73c3c    H13  664   2.679   1.969   2.587
   73c3c     C7  665   2.863   2.079   2.565
   73c3c    H14  666   2.954   2.099   2.621
   73c3c    H15  667   2.816   2.175   2.542
   73c3c     C8  668   2.904   2.017   2.431
   73c3c    H16  669   2.819   2.005   2.363
   73c3c    H17  670   2.949   1.919   2.445
   73c3c    H18  671   2.979   2.078   2.379
   74c3c      N  672   0.643   1.189   2.218
   74c3c     C1  673   0.510   1.131   2.230
   74c3c     C2  674   0.624   1.333   2.233
   74c3c     C3  675   0.411   1.233   2.175
   74c3c     C4  676   0.484   1.365   2.185
   74c3c     C5  677   0.728   1.142   2.328
   74c3c     C6  678   0.707   1.148   2.092
   74c3c     H1  679   0.488   1.125   2.337
   74c3c     H2  680   0.501   1.032   2.186
   74c3c     H3  681   0.631   1.364   2.337
   74c3c     H4  682   0.698   1.393   2.180
   74c3c     H5  683   0.319   1.235   2.234
   74c3c     H6  684   0.385   1.212   2.071
   74c3c     H7  685   0.436   1.431   2.258
   74c3c     H8  686   0.485   1.413   2.088
   74c3c     H9  687   0.747   1.035   2.326
   74c3c    H10  688   0.824   1.193   2.325
   74c3c    H11  689   0.685   1.162   2.426
   74c3c    H12  690   0.812   1.181   2.096
   74c3c    H13  691   0.711   1.040   2.085
   74c3c     C7  692   0.654   1.198   1.958
   74c3c    H14  693   0.639   1.306   1.959
   74c3c    H15  694   0.559   1.150   1.933
   74c3c     C8  695   0.759   1.164   1.852
   74c3c    H16  696   0.777   1.056   1.848
   74c3c    H17  697   0.855   1.211   1.873
   74c3c    H18  698   0.732   1.191   1.750
   75c3c      N  699   2.011   0.692   2.369
   75c3c     C1  700   2.097   0.811   2.384
   75c3c     C2  701   2.096   0.574   2.350
   75c3c     C3  702   2.240   0.763   2.363
   75c3c     C4  703   2.236   0.615   2.391
   75c3c     C5  704   1.940   0.672   2.495
   75c3c     C6  705   1.910   0.709   2.263
   75c3c     H1  706   2.089   0.856   2.483
   75c3c     H2  707   2.072   0.893   2.317
   75c3c     H3  708   2.063   0.487   2.408
   75c3c     H4  709   2.098   0.537   2.248
   75c3c     H5  710   2.312   0.812   2.428
   75c3c     H6  711   2.269   0.782   2.259
   75c3c     H7  712   2.253   0.596   2.497
   75c3c     H8  713   2.312   0.564   2.333
   75c3c     H9  714   1.882   0.761   2.520
   75c3c    H10  715   1.871   0.588   2.494
   75c3c    H11  716   2.011   0.654   2.576
   75c3c    H12  717   1.845   0.622   2.260
   75c3c    H13  718   1.845   0.794   2.287
   75c3c     C7  719   1.966   0.733   2.122
   75c3c    H14  720   2.041   0.659   2.095
   75c3c    H15  721   2.013   0.831   2.113
   75c3c     C8  722   1.859   0.718   2.016
   75c3c    H16  723   1.774   0.782   2.041
   75c3c    H17  724   1.825   0.615   2.012
   75c3c    H18  725   1.898   0.743   1.918
   76c3c      N  726   2.244   2.691   1.870
   76c3c     C1  727   2.387   2.674   1.848
   76c3c     C2  728   2.199   2.805   1.788
   76c3c     C3  729   2.439   2.805   1.792
   76c3c     C4  730   2.321   2.854   1.711
   76c3c     C5  731   2.178   2.569   1.823
   76c3c     C6  732   2.217   2.709   2.014
   76c3c     H1  733   2.409   2.594   1.777
   76c3c     H2  734   2.438   2.640   1.938
   76c3c     H3  735   2.120   2.780   1.717
   76c3c     H4  736   2.157   2.887   1.846
   76c3c     H5  737   2.529   2.791   1.731
   76c3c     H6  738   2.465   2.876   1.871
   76c3c     H7  739   2.321   2.806   1.613
   76c3c     H8  740   2.320   2.962   1.695
   76c3c     H9  741   2.217   2.480   1.873
   76c3c    H10  742   2.070   2.573   1.837
   76c3c    H11  743   2.196   2.553   1.717
   76c3c    H12  744   2.109   2.721   2.028
   76c3c    H13  745   2.244   2.619   2.067
   76c3c     C7  746   2.292   2.827   2.080
   76c3c    H14  747   2.279   2.919   2.023
   76c3c    H15  748   2.399   2.810   2.082
   76c3c     C8  749   2.247   2.852   2.224
   76c3c    H16  750   2.267   2.767   2.289
   76c3c    H17  751   2.140   2.874   2.227
   76c3c    H18  752   2.299   2.939   2.265
   77c3c      N  753   0.388   2.310   2.799
   77c3c     C1  754   0.347   2.251   2.671
   77c3c     C2  755   0.324   2.228   2.903
   77c3c     C3  756   0.204   2.201   2.692
   77c3c     C4  757   0.200   2.164   2.840
   77c3c     C5  758   0.534   2.298   2.812
   77c3c     C6  759   0.360   2.454   2.813
   77c3c     H1  760   0.406   2.163   2.647
   77c3c     H2  761   0.357   2.319   2.586
   77c3c     H3  762   0.388   2.148   2.937
   77c3c     H4  763   0.298   2.286   2.991
   77c3c     H5  764   0.179   2.118   2.626
   77c3c     H6  765   0.132   2.280   2.672
   77c3c     H7  766   0.205   2.055   2.853
   77c3c     H8  767   0.107   2.198   2.886
   77c3c     H9  768   0.587   2.349   2.732
   77c3c    H10  769   0.571   2.336   2.907
   77c3c    H11  770   0.564   2.193   2.809
   77c3c    H12  771   0.397   2.487   2.910
   77c3c    H13  772   0.419   2.506   2.738
   77c3c     C7  773   0.215   2.504   2.797
   77c3c    H14  774   0.149   2.454   2.868
   77c3c    H15  775   0.178   2.483   2.697
   77c3c     C8  776   0.206   2.656   2.818
   77c3c    H16  777   0.262   2.710   2.742
   77c3c    H17  778   0.244   2.686   2.915
   77c3c    H18  779   0.102   2.689   2.811
   78c3c      N  780   2.234   1.829   2.632
   78c3c     C1  781   2.214   1.683   2.623
   78c3c     C2  782   2.105   1.889   2.595
   78c3c     C3  783   2.101   1.657   2.524
   78c3c     C4  784   2.011   1.776   2.546
   78c3c     C5  785   2.261   1.868   2.771
   78c3c     C6  786   2.351   1.873   2.552
   78c3c     H1  787   2.179   1.648   2.720
   78c3c     H2  788   2.303   1.625   2.601
   78c3c     H3  789   2.057   1.938   2.680
   78c3c     H4  790   2.115   1.967   2.519
   78c3c     H5  791   2.048   1.564   2.544
   78c3c     H6  792   2.136   1.652   2.421
   78c3c     H7  793   1.937   1.750   2.622
   78c3c     H8  794   1.955   1.804   2.457
   78c3c     H9  795   2.350   1.819   2.811
   78c3c    H10  796   2.274   1.976   2.780
   78c3c    H11  797   2.179   1.842   2.838
   78c3c    H12  798   2.379   1.974   2.581
   78c3c    H13  799   2.437   1.810   2.575
   78c3c     C7  800   2.334   1.875   2.400
   78c3c    H14  801   2.259   1.952   2.376
   78c3c    H15  802   2.301   1.778   2.363
   78c3c     C8  803   2.453   1.920   2.317
   78c3c    H16  804   2.546   1.922   2.373
   78c3c    H17  805   2.436   2.019   2.275
   78c3c    H18  806   2.461   1.854   2.232
   79c3c      N  807   2.311   1.135   0.319
   79c3c     C1  808   2.244   1.194   0.203
   79c3c     C2  809   2.324   1.243   0.417
   79c3c     C3  810   2.282   1.343   0.201
   79c3c     C4  811   2.334   1.375   0.340
   79c3c     C5  812   2.229   1.029   0.377
   79c3c     C6  813   2.437   1.068   0.280
   79c3c     H1  814   2.136   1.185   0.216
   79c3c     H2  815   2.265   1.143   0.109
   79c3c     H3  816   2.235   1.251   0.479
   79c3c     H4  817   2.406   1.228   0.488
   79c3c     H5  818   2.197   1.406   0.177
   79c3c     H6  819   2.360   1.363   0.127
   79c3c     H7  820   2.274   1.453   0.387
   79c3c     H8  821   2.436   1.411   0.336
   79c3c     H9  822   2.209   0.949   0.305
   79c3c    H10  823   2.275   0.984   0.464
   79c3c    H11  824   2.131   1.063   0.410
   79c3c    H12  825   2.478   1.019   0.368
   79c3c    H13  826   2.412   0.987   0.212
   79c3c     C7  827   2.547   1.151   0.214
   79c3c    H14  828   2.572   1.236   0.278
   79c3c    H15  829   2.513   1.192   0.119
   79c3c     C8  830   2.673   1.067   0.191
   79c3c    H16  831   2.656   0.992   0.114
   79c3c    H17  832   2.703   1.015   0.282
   79c3c    H18  833   2.757   1.128   0.159
   80c3c      N  834   1.639   1.039   1.865
   80c3c     C1  835   1.494   1.038   1.849
   80c3c     C2  836   1.690   1.162   1.802
   80c3c     C3  837   1.452   1.182   1.826
   80c3c     C4  838   1.572   1.252   1.770
   80c3c     C5  839   1.667   1.043   2.008
   80c3c     C6  840   1.704   0.919   1.814
   80c3c     H1  841   1.440   0.998   1.935
   80c3c     H2  842   1.461   0.978   1.764
   80c3c     H3  843   1.757   1.218   1.867
   80c3c     H4  844   1.743   1.148   1.709
   80c3c     H5  845   1.422   1.229   1.920
   80c3c     H6  846   1.369   1.187   1.756
   80c3c     H7  847   1.581   1.351   1.814
   80c3c     H8  848   1.564   1.268   1.662
   80c3c     H9  849   1.616   0.965   2.065
   80c3c    H10  850   1.773   1.032   2.029
   80c3c    H11  851   1.634   1.139   2.049
   80c3c    H12  852   1.811   0.927   1.834
   80c3c    H13  853   1.665   0.832   1.867
   80c3c     C7  854   1.688   0.889   1.664
   80c3c    H14  855   1.713   0.976   1.603
   80c3c    H15  856   1.585   0.861   1.641
   80c3c     C8  857   1.778   0.776   1.619
   80c3c    H16  858   1.760   0.683   1.674
   80c3c    H17  859   1.884   0.800   1.632
   80c3c    H18  860   1.759   0.763   1.513
   81c3c      N  861   0.970   0.805   0.791
   81c3c     C1  862   1.055   0.686   0.775
   81c3c     C2  863   0.835   0.755   0.820
   81c3c     C3  864   0.964   0.566   0.751
   81c3c     C4  865   0.842   0.603   0.833
   81c3c     C5  866   1.015   0.884   0.905
   81c3c     C6  867   0.979   0.899   0.678
   81c3c     H1  868   1.112   0.666   0.866
   81c3c     H2  869   1.128   0.695   0.694
   81c3c     H3  870   0.793   0.798   0.911
   81c3c     H4  871   0.766   0.779   0.740
   81c3c     H5  872   1.009   0.473   0.784
   81c3c     H6  873   0.939   0.557   0.646
   81c3c     H7  874   0.857   0.575   0.937
   81c3c     H8  875   0.752   0.554   0.796
   81c3c     H9  876   1.115   0.925   0.893
   81c3c    H10  877   0.951   0.970   0.924
   81c3c    H11  878   1.012   0.824   0.996
   81c3c    H12  879   0.924   0.990   0.702
   81c3c    H13  880   1.082   0.930   0.667
   81c3c     C7  881   0.931   0.851   0.541
   81c3c    H14  882   0.828   0.816   0.542
   81c3c    H15  883   0.992   0.766   0.510
   81c3c     C8  884   0.942   0.967   0.440
   81c3c    H16  885   1.044   1.003   0.431
   81c3c    H17  886   0.884   1.054   0.472
   81c3c    H18  887   0.909   0.937   0.340
   82c3c      N  888   1.235   0.915   2.458
   82c3c     C1  889   1.358   0.924   2.538
   82c3c     C2  890   1.132   0.990   2.531
   82c3c     C3  891   1.352   1.059   2.609
   82c3c     C4  892   1.207   1.104   2.602
   82c3c     C5  893   1.259   0.985   2.334
   82c3c     C6  894   1.194   0.777   2.424
   82c3c     H1  895   1.449   0.914   2.479
   82c3c     H2  896   1.367   0.847   2.615
   82c3c     H3  897   1.052   1.028   2.468
   82c3c     H4  898   1.085   0.931   2.609
   82c3c     H5  899   1.415   1.131   2.558
   82c3c     H6  900   1.388   1.051   2.712
   82c3c     H7  901   1.199   1.196   2.543
   82c3c     H8  902   1.166   1.124   2.701
   82c3c     H9  903   1.352   0.953   2.286
   82c3c    H10  904   1.180   0.972   2.260
   82c3c    H11  905   1.267   1.093   2.349
   82c3c    H12  906   1.104   0.778   2.364
   82c3c    H13  907   1.271   0.731   2.362
   82c3c     C7  908   1.170   0.685   2.546
   82c3c    H14  909   1.102   0.729   2.618
   82c3c    H15  910   1.263   0.667   2.600
   82c3c     C8  911   1.111   0.550   2.509
   82c3c    H16  912   1.173   0.496   2.437
   82c3c    H17  913   1.010   0.559   2.469
   82c3c    H18  914   1.105   0.490   2.600
   83c3c      N  915   0.367   0.667   0.972
   83c3c     C1  916   0.357   0.724   0.837
   83c3c     C2  917   0.269   0.559   0.977
   83c3c     C3  918   0.230   0.677   0.769
   83c3c     C4  919   0.162   0.594   0.873
   83c3c     C5  920   0.502   0.613   0.990
   83c3c     C6  921   0.352   0.770   1.077
   83c3c     H1  922   0.442   0.698   0.774
   83c3c     H2  923   0.350   0.832   0.844
   83c3c     H3  924   0.312   0.463   0.947
   83c3c     H4  925   0.224   0.543   1.075
   83c3c     H5  926   0.252   0.619   0.679
   83c3c     H6  927   0.167   0.761   0.740
   83c3c     H7  928   0.115   0.505   0.830
   83c3c     H8  929   0.085   0.658   0.916
   83c3c     H9  930   0.579   0.689   0.974
   83c3c    H10  931   0.515   0.575   1.091
   83c3c    H11  932   0.524   0.531   0.921
   83c3c    H12  933   0.369   0.726   1.175
   83c3c    H13  934   0.429   0.846   1.062
   83c3c     C7  935   0.217   0.843   1.083
   83c3c    H14  936   0.142   0.767   1.106
   83c3c    H15  937   0.191   0.888   0.988
   83c3c     C8  938   0.210   0.951   1.192
   83c3c    H16  939   0.285   1.028   1.177
   83c3c    H17  940   0.221   0.907   1.291
   83c3c    H18  941   0.112   0.999   1.190
   84c3c      N  942   1.177   2.221   2.792
   84c3c     C1  943   1.256   2.189   2.912
   84c3c     C2  944   1.272   2.256   2.686
   84c3c     C3  945   1.402   2.223   2.884
   84c3c     C4  946   1.400   2.302   2.754
   84c3c     C5  947   1.104   2.101   2.750
   84c3c     C6  948   1.074   2.325   2.816
   84c3c     H1  949   1.250   2.083   2.939
   84c3c     H2  950   1.221   2.243   2.999
   84c3c     H3  951   1.298   2.169   2.626
   84c3c     H4  952   1.230   2.329   2.617
   84c3c     H5  953   1.460   2.132   2.871
   84c3c     H6  954   1.448   2.279   2.966
   84c3c     H7  955   1.488   2.282   2.694
   84c3c     H8  956   1.397   2.409   2.776
   84c3c     H9  957   1.032   2.068   2.824
   84c3c    H10  958   1.053   2.117   2.656
   84c3c    H11  959   1.176   2.020   2.736
   84c3c    H12  960   1.012   2.335   2.728
   84c3c    H13  961   1.007   2.290   2.895
   84c3c     C7  962   1.126   2.466   2.855
   84c3c    H14  963   1.191   2.505   2.777
   84c3c    H15  964   1.185   2.461   2.946
   84c3c     C8  965   1.011   2.565   2.874
   84c3c    H16  966   0.941   2.530   2.950
   84c3c    H17  967   0.955   2.580   2.782
   84c3c    H18  968   1.048   2.662   2.907
   85c3c      N  969   2.796   0.327   2.006
   85c3c     C1  970   2.904   0.411   1.952
   85c3c     C2  971   2.683   0.420   2.022
   85c3c     C3  972   2.888   0.549   2.015
   85c3c     C4  973   2.744   0.555   2.062
   85c3c     C5  974   2.758   0.226   1.907
   85c3c     C6  975   2.832   0.254   2.129
   85c3c     H1  976   2.890   0.424   1.844
   85c3c     H2  977   3.003   0.368   1.965
   85c3c     H3  978   2.632   0.436   1.927
   85c3c     H4  979   2.607   0.382   2.089
   85c3c     H5  980   2.907   0.628   1.942
   85c3c     H6  981   2.956   0.565   2.099
   85c3c     H7  982   2.690   0.637   2.015
   85c3c     H8  983   2.739   0.572   2.170
   85c3c     H9  984   2.840   0.158   1.883
   85c3c    H10  985   2.673   0.166   1.940
   85c3c    H11  986   2.727   0.271   1.813
   85c3c    H12  987   2.750   0.186   2.153
   85c3c    H13  988   2.917   0.189   2.108
   85c3c     C7  989   2.863   0.334   2.258
   85c3c    H14  990   2.779   0.397   2.285
   85c3c    H15  991   2.950   0.399   2.244
   85c3c     C8  992   2.889   0.243   2.379
   85c3c    H16  993   2.980   0.183   2.366
   85c3c    H17  994   2.806   0.175   2.395
   85c3c    H18  995   2.900   0.302   2.469
   86c3c      N  996   0.859   1.465   2.638
   86c3c     C1  997   0.747   1.454   2.733
   86c3c     C2  998   0.895   1.328   2.598
   86c3c     C3  999   0.746   1.312   2.790
   86c3c     C4 1000   0.843   1.232   2.705
   86c3c     C5 1001   0.814   1.540   2.519
   86c3c     C6 1002   0.976   1.538   2.690
   86c3c     H1 1003   0.651   1.471   2.684
   86c3c     H2 1004   0.752   1.529   2.812
   86c3c     H3 1005   0.846   1.304   2.504
   86c3c     H4 1006   1.001   1.316   2.579
   86c3c     H5 1007   0.645   1.269   2.784
   86c3c     H6 1008   0.776   1.310   2.894
   86c3c     H7 1009   0.793   1.147   2.660
   86c3c     H8 1010   0.924   1.194   2.767
   86c3c     H9 1011   0.791   1.644   2.542
   86c3c    H10 1012   0.889   1.539   2.440
   86c3c    H11 1013   0.723   1.499   2.477
   86c3c    H12 1014   1.052   1.546   2.613
   86c3c    H13 1015   0.947   1.641   2.711
   86c3c     C7 1016   1.045   1.481   2.816
   86c3c    H14 1017   1.087   1.383   2.795
   86c3c    H15 1018   0.974   1.469   2.897
   86c3c     C8 1019   1.159   1.574   2.862
   86c3c    H16 1020   1.124   1.675   2.884
   86c3c    H17 1021   1.235   1.583   2.785
   86c3c    H18 1022   1.208   1.536   2.952
   87c3c      N 1023   0.883   0.259   1.989
   87c3c     C1 1024   1.023   0.304   1.987
   87c3c     C2 1025   0.800   0.377   1.962
   87c3c     C3 1026   1.023   0.454   2.018
   87c3c     C4 1027   0.878   0.496   2.015
   87c3c     C5 1028   0.864   0.161   1.882
   87c3c     C6 1029   0.846   0.192   2.115
   87c3c     H1 1030   1.068   0.295   1.888
   87c3c     H2 1031   1.088   0.250   2.055
   87c3c     H3 1032   0.788   0.393   1.854
   87c3c     H4 1033   0.699   0.372   2.003
   87c3c     H5 1034   1.080   0.509   1.943
   87c3c     H6 1035   1.068   0.476   2.115
   87c3c     H7 1036   0.862   0.582   1.950
   87c3c     H8 1037   0.849   0.525   2.116
   87c3c     H9 1038   0.923   0.071   1.899
   87c3c    H10 1039   0.759   0.132   1.873
   87c3c    H11 1040   0.896   0.200   1.786
   87c3c    H12 1041   0.744   0.153   2.105
   87c3c    H13 1042   0.910   0.105   2.130
   87c3c     C7 1043   0.849   0.274   2.245
   87c3c    H14 1044   0.785   0.362   2.239
   87c3c    H15 1045   0.950   0.310   2.267
   87c3c     C8 1046   0.798   0.189   2.362
   87c3c    H16 1047   0.866   0.106   2.383
   87c3c    H17 1048   0.700   0.146   2.341
   87c3c    H18 1049   0.789   0.249   2.452
   88c3c      N 1050   2.104   1.449   0.936
   88c3c     C1 1051   1.977   1.399   0.882
   88c3c     C2 1052   2.188   1.480   0.820
   88c3c     C3 1053   1.973   1.436   0.734
   88c3c     C4 1054   2.117   1.426   0.696
   88c3c     C5 1055   2.075   1.570   1.014
   88c3c     C6 1056   2.174   1.354   1.024
   88c3c     H1 1057   1.891   1.439   0.936
   88c3c     H2 1058   1.967   1.291   0.889
   88c3c     H3 1059   2.202   1.588   0.814
   88c3c     H4 1060   2.288   1.439   0.828
   88c3c     H5 1061   1.937   1.538   0.719
   88c3c     H6 1062   1.910   1.369   0.675
   88c3c     H7 1063   2.139   1.483   0.605
   88c3c     H8 1064   2.143   1.322   0.679
   88c3c     H9 1065   2.010   1.547   1.098
   88c3c    H10 1066   2.165   1.617   1.054
   88c3c    H11 1067   2.024   1.646   0.954
   88c3c    H12 1068   2.263   1.403   1.063
   88c3c    H13 1069   2.112   1.334   1.111
   88c3c     C7 1070   2.220   1.224   0.954
   88c3c    H14 1071   2.308   1.240   0.892
   88c3c    H15 1072   2.143   1.188   0.886
   88c3c     C8 1073   2.254   1.113   1.053
   88c3c    H16 1074   2.163   1.075   1.098
   88c3c    H17 1075   2.321   1.151   1.131
   88c3c    H18 1076   2.306   1.031   1.003
   89c3c      N 1077   2.264   2.861   0.858
   89c3c     C1 1078   2.368   2.937   0.788
   89c3c     C2 1079   2.297   2.719   0.837
   89c3c     C3 1080   2.484   2.841   0.764
   89c3c     C4 1081   2.414   2.711   0.740
   89c3c     C5 1082   2.275   2.891   1.000
   89c3c     C6 1083   2.125   2.890   0.815
   89c3c     H1 1084   2.400   3.026   0.843
   89c3c     H2 1085   2.334   2.973   0.690
   89c3c     H3 1086   2.324   2.670   0.930
   89c3c     H4 1087   2.212   2.664   0.797
   89c3c     H5 1088   2.547   2.833   0.853
   89c3c     H6 1089   2.547   2.870   0.680
   89c3c     H7 1090   2.477   2.624   0.759
   89c3c     H8 1091   2.377   2.705   0.637
   89c3c     H9 1092   2.250   2.995   1.023
   89c3c    H10 1093   2.210   2.828   1.061
   89c3c    H11 1094   2.376   2.874   1.037
   89c3c    H12 1095   2.057   2.831   0.876
   89c3c    H13 1096   2.101   2.994   0.836
   89c3c     C7 1097   2.091   2.860   0.667
   89c3c    H14 1098   2.117   2.758   0.638
   89c3c    H15 1099   2.151   2.921   0.600
   89c3c     C8 1100   1.942   2.882   0.637
   89c3c    H16 1101   1.908   2.981   0.668
   89c3c    H17 1102   1.880   2.808   0.686
   89c3c    H18 1103   1.921   2.874   0.530
   90c3c      N 1104   1.423   2.559   1.874
   90c3c     C1 1105   1.292   2.594   1.818
   90c3c     C2 1106   1.504   2.681   1.882
   90c3c     C3 1107   1.288   2.744   1.792
   90c3c     C4 1108   1.415   2.801   1.851
   90c3c     C5 1109   1.402   2.506   2.008
   90c3c     C6 1110   1.487   2.453   1.795
   90c3c     H1 1111   1.208   2.562   1.879
   90c3c     H2 1112   1.279   2.543   1.723
   90c3c     H3 1113   1.547   2.693   1.981
   90c3c     H4 1114   1.588   2.683   1.812
   90c3c     H5 1115   1.200   2.791   1.836
   90c3c     H6 1116   1.286   2.761   1.684
   90c3c     H7 1117   1.394   2.858   1.941
   90c3c     H8 1118   1.464   2.868   1.780
   90c3c     H9 1119   1.346   2.412   2.006
   90c3c    H10 1120   1.498   2.484   2.056
   90c3c    H11 1121   1.349   2.575   2.073
   90c3c    H12 1122   1.578   2.417   1.844
   90c3c    H13 1123   1.418   2.368   1.794
   90c3c     C7 1124   1.524   2.482   1.649
   90c3c    H14 1125   1.600   2.559   1.640
   90c3c    H15 1126   1.439   2.519   1.591
   90c3c     C8 1127   1.576   2.354   1.585
   90c3c    H16 1128   1.506   2.271   1.594
   90c3c    H17 1129   1.670   2.324   1.632
   90c3c    H18 1130   1.595   2.365   1.478
   91c3c      N 1131   2.279   1.120   2.790
   91c3c     C1 1132   2.286   1.038   2.668
   91c3c     C2 1133   2.339   1.041   2.898
   91c3c     C3 1134   2.320   0.894   2.708
   91c3c     C4 1135   2.321   0.894   2.860
   91c3c     C5 1136   2.355   1.244   2.769
   91c3c     C6 1137   2.142   1.164   2.821
   91c3c     H1 1138   2.366   1.074   2.602
   91c3c     H2 1139   2.195   1.044   2.608
   91c3c     H3 1140   2.446   1.060   2.906
   91c3c     H4 1141   2.295   1.063   2.995
   91c3c     H5 1142   2.419   0.868   2.670
   91c3c     H6 1143   2.249   0.822   2.668
   91c3c     H7 1144   2.401   0.831   2.899
   91c3c     H8 1145   2.227   0.854   2.899
   91c3c     H9 1146   2.314   1.302   2.687
   91c3c    H10 1147   2.353   1.307   2.858
   91c3c    H11 1148   2.459   1.222   2.744
   91c3c    H12 1149   2.144   1.229   2.908
   91c3c    H13 1150   2.105   1.224   2.738
   91c3c     C7 1151   2.036   1.057   2.848
   91c3c    H14 1152   2.064   0.992   2.931
   91c3c    H15 1153   2.024   0.997   2.758
   91c3c     C8 1154   1.903   1.122   2.881
   91c3c    H16 1155   1.869   1.182   2.797
   91c3c    H17 1156   1.910   1.187   2.968
   91c3c    H18 1157   1.825   1.048   2.900
   92c3c      N 1158   0.760   1.812   0.347
   92c3c     C1 1159   0.779   1.681   0.411
   92c3c     C2 1160   0.890   1.881   0.350
   92c3c     C3 1161   0.901   1.695   0.503
   92c3c     C4 1162   0.969   1.825   0.467
   92c3c     C5 1163   0.720   1.798   0.207
   92c3c     C6 1164   0.653   1.888   0.414
   92c3c     H1 1165   0.800   1.603   0.339
   92c3c     H2 1166   0.692   1.645   0.465
   92c3c     H3 1167   0.950   1.863   0.261
   92c3c     H4 1168   0.878   1.989   0.358
   92c3c     H5 1169   0.970   1.612   0.486
   92c3c     H6 1170   0.872   1.697   0.608
   92c3c     H7 1171   1.073   1.808   0.440
   92c3c     H8 1172   0.969   1.894   0.553
   92c3c     H9 1173   0.626   1.744   0.196
   92c3c    H10 1174   0.709   1.895   0.160
   92c3c    H11 1175   0.795   1.746   0.148
   92c3c    H12 1176   0.644   1.986   0.366
   92c3c    H13 1177   0.558   1.838   0.398
   92c3c     C7 1178   0.669   1.910   0.564
   92c3c    H14 1179   0.763   1.960   0.587
   92c3c    H15 1180   0.670   1.814   0.615
   92c3c     C8 1181   0.556   1.994   0.622
   92c3c    H16 1182   0.460   1.947   0.606
   92c3c    H17 1183   0.556   2.094   0.578
   92c3c    H18 1184   0.570   2.005   0.730
   93c3c      N 1185   0.292   2.757   0.805
   93c3c     C1 1186   0.420   2.758   0.880
   93c3c     C2 1187   0.188   2.816   0.891
   93c3c     C3 1188   0.390   2.813   1.020
   93c3c     C4 1189   0.239   2.805   1.035
   93c3c     C5 1190   0.305   2.842   0.685
   93c3c     C6 1191   0.256   2.622   0.756
   93c3c     H1 1192   0.496   2.820   0.833
   93c3c     H2 1193   0.465   2.659   0.888
   93c3c     H3 1194   0.173   2.922   0.871
   93c3c     H4 1195   0.091   2.769   0.880
   93c3c     H5 1196   0.421   2.917   1.027
   93c3c     H6 1197   0.442   2.757   1.098
   93c3c     H7 1198   0.201   2.885   1.099
   93c3c     H8 1199   0.209   2.710   1.078
   93c3c     H9 1200   0.383   2.806   0.618
   93c3c    H10 1201   0.212   2.846   0.629
   93c3c    H11 1202   0.331   2.945   0.711
   93c3c    H12 1203   0.164   2.630   0.698
   93c3c    H13 1204   0.332   2.587   0.686
   93c3c     C7 1205   0.233   2.513   0.863
   93c3c    H14 1206   0.161   2.547   0.938
   93c3c    H15 1207   0.324   2.488   0.917
   93c3c     C8 1208   0.174   2.387   0.799
   93c3c    H16 1209   0.244   2.339   0.730
   93c3c    H17 1210   0.084   2.409   0.743
   93c3c    H18 1211   0.145   2.314   0.876
   94c3c      N 1212   1.509   0.318   2.267
   94c3c     C1 1213   1.600   0.431   2.285
   94c3c     C2 1214   1.561   0.212   2.354
   94c3c     C3 1215   1.738   0.372   2.318
   94c3c     C4 1216   1.714   0.227   2.355
   94c3c     C5 1217   1.375   0.352   2.316
   94c3c     C6 1218   1.492   0.275   2.127
   94c3c     H1 1219   1.570   0.493   2.369
   94c3c     H2 1220   1.603   0.499   2.199
   94c3c     H3 1221   1.527   0.226   2.457
   94c3c     H4 1222   1.524   0.113   2.326
   94c3c     H5 1223   1.782   0.423   2.404
   94c3c     H6 1224   1.807   0.381   2.234
   94c3c     H7 1225   1.755   0.202   2.453
   94c3c     H8 1226   1.765   0.162   2.284
   94c3c     H9 1227   1.330   0.433   2.258
   94c3c    H10 1228   1.307   0.268   2.312
   94c3c    H11 1229   1.378   0.387   2.419
   94c3c    H12 1230   1.421   0.192   2.125
   94c3c    H13 1231   1.444   0.356   2.072
   94c3c     C7 1232   1.616   0.232   2.045
   94c3c    H14 1233   1.679   0.160   2.098
   94c3c    H15 1234   1.680   0.317   2.023
   94c3c     C8 1235   1.573   0.162   1.916
   94c3c    H16 1236   1.511   0.227   1.855
   94c3c    H17 1237   1.516   0.071   1.936
   94c3c    H18 1238   1.661   0.133   1.858
   95c3c      N 1239   0.949   1.881   1.373
   95c3c     C1 1240   0.988   1.761   1.298
   95c3c     C2 1241   0.987   1.860   1.513
   95c3c     C3 1242   1.081   1.680   1.387
   95c3c     C4 1243   1.037   1.718   1.526
   95c3c     C5 1244   1.025   1.994   1.321
   95c3c     C6 1245   0.807   1.922   1.360
   95c3c     H1 1246   1.043   1.783   1.206
   95c3c     H2 1247   0.904   1.700   1.266
   95c3c     H3 1248   1.068   1.926   1.545
   95c3c     H4 1249   0.906   1.879   1.583
   95c3c     H5 1250   1.185   1.709   1.371
   95c3c     H6 1251   1.077   1.573   1.367
   95c3c     H7 1252   1.119   1.712   1.597
   95c3c     H8 1253   0.956   1.653   1.560
   95c3c     H9 1254   1.001   2.020   1.218
   95c3c    H10 1255   1.009   2.082   1.383
   95c3c    H11 1256   1.132   1.976   1.326
   95c3c    H12 1257   0.791   2.012   1.419
   95c3c    H13 1258   0.787   1.951   1.257
   95c3c     C7 1259   0.703   1.818   1.405
   95c3c    H14 1260   0.722   1.790   1.509
   95c3c    H15 1261   0.711   1.726   1.346
   95c3c     C8 1262   0.559   1.867   1.395
   95c3c    H16 1263   0.534   1.897   1.294
   95c3c    H17 1264   0.542   1.952   1.462
   95c3c    H18 1265   0.490   1.788   1.425
   96c3c      N 1266   0.230   1.470   1.480
   96c3c     C1 1267   0.140   1.357   1.456
   96c3c     C2 1268   0.365   1.420   1.452
   96c3c     C3 1269   0.218   1.230   1.490
   96c3c     C4 1270   0.364   1.269   1.469
   96c3c     C5 1271   0.201   1.578   1.386
   96c3c     C6 1272   0.216   1.528   1.616
   96c3c     H1 1273   0.113   1.350   1.350
   96c3c     H2 1274   0.048   1.366   1.513
   96c3c     H3 1275   0.399   1.443   1.351
   96c3c     H4 1276   0.437   1.468   1.518
   96c3c     H5 1277   0.189   1.146   1.426
   96c3c     H6 1278   0.202   1.198   1.593
   96c3c     H7 1279   0.405   1.222   1.379
   96c3c     H8 1280   0.424   1.239   1.554
   96c3c     H9 1281   0.103   1.622   1.402
   96c3c    H10 1282   0.275   1.659   1.393
   96c3c    H11 1283   0.204   1.543   1.282
   96c3c    H12 1284   0.279   1.616   1.623
   96c3c    H13 1285   0.114   1.565   1.629
   96c3c     C7 1286   0.249   1.439   1.738
   96c3c    H14 1287   0.353   1.408   1.735
   96c3c    H15 1288   0.188   1.349   1.741
   96c3c     C8 1289   0.223   1.514   1.869
   96c3c    H16 1290   0.116   1.525   1.889
   96c3c    H17 1291   0.265   1.614   1.865
   96c3c    H18 1292   0.267   1.462   1.954
   97c3c      N 1293   2.800   1.359   2.768
   97c3c     C1 1294   2.664   1.416   2.757
   97c3c     C2 1295   2.895   1.472   2.775
   97c3c     C3 1296   2.677   1.568   2.772
   97c3c     C4 1297   2.819   1.595   2.727
   97c3c     C5 1298   2.809   1.282   2.893
   97c3c     C6 1299   2.833   1.264   2.659
   97c3c     H1 1300   2.594   1.378   2.832
   97c3c     H2 1301   2.617   1.394   2.661
   97c3c     H3 1302   2.927   1.491   2.877
   97c3c     H4 1303   2.986   1.456   2.718
   97c3c     H5 1304   2.664   1.596   2.877
   97c3c     H6 1305   2.603   1.622   2.713
   97c3c     H7 1306   2.858   1.688   2.770
   97c3c     H8 1307   2.824   1.604   2.619
   97c3c     H9 1308   2.741   1.197   2.893
   97c3c    H10 1309   2.909   1.243   2.909
   97c3c    H11 1310   2.783   1.343   2.980
   97c3c    H12 1311   2.933   1.224   2.677
   97c3c    H13 1312   2.766   1.179   2.661
   97c3c     C7 1313   2.832   1.322   2.516
   97c3c    H14 1314   2.889   1.415   2.510
   97c3c    H15 1315   2.729   1.343   2.485
   97c3c     C8 1316   2.888   1.225   2.413
   97c3c    H16 1317   2.832   1.132   2.414
   97c3c    H17 1318   2.993   1.202   2.433
   97c3c    H18 1319   2.883   1.269   2.314
   98c3c      N 1320   1.407   1.162   0.790
   98c3c     C1 1321   1.285   1.096   0.744
   98c3c     C2 1322   1.402   1.295   0.731
   98c3c     C3 1323   1.252   1.152   0.605
   98c3c     C4 1324   1.308   1.292   0.610
   98c3c     C5 1325   1.403   1.173   0.936
   98c3c     C6 1326   1.532   1.090   0.755
   98c3c     H1 1327   1.203   1.122   0.812
   98c3c     H2 1328   1.294   0.987   0.747
   98c3c     H3 1329   1.365   1.368   0.803
   98c3c     H4 1330   1.501   1.332   0.704
   98c3c     H5 1331   1.145   1.152   0.584
   98c3c     H6 1332   1.298   1.097   0.524
   98c3c     H7 1333   1.227   1.364   0.622
   98c3c     H8 1334   1.357   1.314   0.515
   98c3c     H9 1335   1.399   1.077   0.987
   98c3c    H10 1336   1.489   1.228   0.974
   98c3c    H11 1337   1.316   1.232   0.968
   98c3c    H12 1338   1.616   1.147   0.795
   98c3c    H13 1339   1.535   0.994   0.806
   98c3c     C7 1340   1.561   1.071   0.605
   98c3c    H14 1341   1.569   1.167   0.554
   98c3c    H15 1342   1.483   1.014   0.557
   98c3c     C8 1343   1.689   0.993   0.581
   98c3c    H16 1344   1.687   0.898   0.635
   98c3c    H17 1345   1.777   1.050   0.611
   98c3c    H18 1346   1.700   0.970   0.475
   99c3c      N 1347   1.430   1.934   1.327
   99c3c     C1 1348   1.573   1.909   1.340
   99c3c     C2 1349   1.377   1.896   1.459
   99c3c     C3 1350   1.587   1.787   1.430
   99c3c     C4 1351   1.458   1.776   1.506
   99c3c     C5 1352   1.408   2.078   1.311
   99c3c     C6 1353   1.372   1.862   1.211
   99c3c     H1 1354   1.623   1.992   1.391
   99c3c     H2 1355   1.623   1.898   1.244
   99c3c     H3 1356   1.394   1.975   1.531
   99c3c     H4 1357   1.269   1.878   1.462
   99c3c     H5 1358   1.668   1.800   1.502
   99c3c     H6 1359   1.604   1.695   1.374
   99c3c     H7 1360   1.485   1.784   1.611
   99c3c     H8 1361   1.408   1.680   1.492
   99c3c     H9 1362   1.456   2.117   1.221
   99c3c    H10 1363   1.302   2.102   1.305
   99c3c    H11 1364   1.448   2.137   1.393
   99c3c    H12 1365   1.264   1.878   1.207
   99c3c    H13 1366   1.408   1.908   1.119
   99c3c     C7 1367   1.396   1.710   1.193
   99c3c    H14 1368   1.379   1.653   1.284
   99c3c    H15 1369   1.500   1.692   1.164
   99c3c     C8 1370   1.304   1.650   1.086
   99c3c    H16 1371   1.322   1.693   0.988
   99c3c    H17 1372   1.198   1.665   1.109
   99c3c    H18 1373   1.318   1.542   1.078
  100c3c      N 1374   0.621   0.276   0.581
  100c3c     C1 1375   0.499   0.198   0.557
  100c3c     C2 1376   0.575   0.416   0.593
  100c3c     C3 1377   0.401   0.288   0.480
  100c3c     C4 1378   0.453   0.430   0.501
  100c3c     C5 1379   0.682   0.233   0.708
  100c3c     C6 1380   0.724   0.258   0.476
  100c3c     H1 1381   0.450   0.173   0.652
  100c3c     H2 1382   0.518   0.104   0.507
  100c3c     H3 1383   0.541   0.436   0.694
  100c3c     H4 1384   0.653   0.489   0.570
  100c3c     H5 1385   0.300   0.278   0.517
  100c3c     H6 1386   0.400   0.264   0.374
  100c3c     H7 1387   0.376   0.494   0.546
  100c3c     H8 1388   0.478   0.476   0.405
  100c3c     H9 1389   0.712   0.129   0.705
  100c3c    H10 1390   0.771   0.291   0.732
  100c3c    H11 1391   0.614   0.244   0.792
  100c3c    H12 1392   0.813   0.315   0.503
  100c3c    H13 1393   0.756   0.154   0.476
  100c3c     C7 1394   0.687   0.293   0.331
  100c3c    H14 1395   0.653   0.396   0.321
  100c3c    H15 1396   0.609   0.227   0.294
  100c3c     C8 1397   0.808   0.282   0.239
  100c3c    H16 1398   0.858   0.186   0.254
  100c3c    H17 1399   0.881   0.361   0.259
  100c3c    H18 1400   0.780   0.289   0.134
  101fsi     F1 1401   1.511   2.372   1.125
  101fsi     S1 1402   1.645   2.420   1.189
  101fsi      N 1403   1.718   2.479   1.065
  101fsi     O1 1404   1.605   2.521   1.282
  101fsi     O2 1405   1.696   2.296   1.240
  101fsi     S2 1406   1.694   2.621   1.005
  101fsi     O3 1407   1.719   2.731   1.095
  101fsi     O4 1408   1.570   2.624   0.934
  101fsi     F2 1409   1.803   2.637   0.893
  102fsi     F1 1410   1.631   0.569   2.606
  102fsi     S1 1411   1.555   0.459   2.689
  102fsi      N 1412   1.587   0.495   2.837
  102fsi     O1 1413   1.417   0.474   2.652
  102fsi     O2 1414   1.621   0.337   2.654
  102fsi     S2 1415   1.550   0.626   2.915
  102fsi     O3 1416   1.513   0.737   2.833
  102fsi     O4 1417   1.644   0.646   3.021
  102fsi     F2 1418   1.416   0.585   2.989
  103fsi     F1 1419   0.704   0.773   1.170
  103fsi     S1 1420   0.704   0.927   1.200
  103fsi      N 1421   0.804   0.933   1.319
  103fsi     O1 1422   0.746   0.984   1.076
  103fsi     O2 1423   0.569   0.950   1.242
  103fsi     S2 1424   0.953   0.979   1.321
  103fsi     O3 1425   1.027   0.953   1.202
  103fsi     O4 1426   1.018   0.941   1.442
  103fsi     F2 1427   0.941   1.136   1.332
  104fsi     F1 1428   0.324   1.635   1.088
  104fsi     S1 1429   0.407   1.512   1.035
  104fsi      N 1430   0.390   1.527   0.879
  104fsi     O1 1431   0.538   1.538   1.086
  104fsi     O2 1432   0.334   1.400   1.089
  104fsi     S2 1433   0.453   1.637   0.786
  104fsi     O3 1434   0.478   1.760   0.854
  104fsi     O4 1435   0.387   1.648   0.658
  104fsi     F2 1436   0.595   1.581   0.750
  105fsi     F1 1437   0.889   1.835   2.868
  105fsi     S1 1438   0.736   1.865   2.849
  105fsi      N 1439   0.735   2.014   2.798
  105fsi     O1 1440   0.693   1.768   2.752
  105fsi     O2 1441   0.685   1.849   2.982
  105fsi     S2 1442   0.759   2.065   2.652
  105fsi     O3 1443   0.841   1.980   2.573
  105fsi     O4 1444   0.788   2.206   2.646
  105fsi     F2 1445   0.617   2.055   2.585
  106fsi     F1 1446   0.788   1.679   2.212
  106fsi     S1 1447   0.663   1.762   2.248
  106fsi      N 1448   0.612   1.819   2.111
  106fsi     O1 1449   0.581   1.664   2.312
  106fsi     O2 1450   0.721   1.867   2.327
  106fsi     S2 1451   0.487   1.777   2.028
  106fsi     O3 1452   0.477   1.637   2.002
  106fsi     O4 1453   0.459   1.866   1.918
  106fsi     F2 1454   0.368   1.808   2.126
  107fsi     F1 1455   1.411   3.038   1.108
  107fsi     S1 1456   1.378   2.917   1.014
  107fsi      N 1457   1.226   2.935   0.983
  107fsi     O1 1458   1.468   2.933   0.904
  107fsi     O2 1459   1.394   2.801   1.098
  107fsi     S2 1460   1.154   2.962   0.846
  107fsi     O3 1461   1.236   3.021   0.744
  107fsi     O4 1462   1.022   3.016   0.863
  107fsi     F2 1463   1.128   2.816   0.794
  108fsi     F1 1464   1.704   2.199   0.131
  108fsi     S1 1465   1.784   2.298   0.223
  108fsi      N 1466   1.853   2.396   0.122
  108fsi     O1 1467   1.683   2.365   0.300
  108fsi     O2 1468   1.878   2.215   0.292
  108fsi     S2 1469   1.795   2.530   0.070
  108fsi     O3 1470   1.661   2.522   0.019
  108fsi     O4 1471   1.887   2.604  -0.012
  108fsi     F2 1472   1.783   2.620   0.198
  109fsi     F1 1473   2.325   0.713   1.653
  109fsi     S1 1474   2.261   0.586   1.720
  109fsi      N 1475   2.353   0.562   1.846
  109fsi     O1 1476   2.127   0.628   1.752
  109fsi     O2 1477   2.275   0.487   1.618
  109fsi     S2 1478   2.327   0.600   1.995
  109fsi     O3 1479   2.263   0.727   2.015
  109fsi     O4 1480   2.437   0.575   2.084
  109fsi     F2 1481   2.220   0.494   2.039
  110fsi     F1 1482   2.712   2.150   1.869
  110fsi     S1 1483   2.805   2.086   1.978
  110fsi      N 1484   2.947   2.109   1.917
  110fsi     O1 1485   2.778   2.161   2.098
  110fsi     O2 1486   2.767   1.947   1.979
  110fsi     S2 1487   3.047   2.229   1.936
  110fsi     O3 1488   2.996   2.337   2.014
  110fsi     O4 1489   3.121   2.261   1.817
  110fsi     F2 1490   3.156   2.167   2.031
  111fsi     F1 1491   0.847   2.526   1.145
  111fsi     S1 1492   0.922   2.663   1.140
  111fsi      N 1493   0.831   2.757   1.054
  111fsi     O1 1494   0.930   2.703   1.277
  111fsi     O2 1495   1.047   2.636   1.074
  111fsi     S2 1496   0.754   2.886   1.100
  111fsi     O3 1497   0.692   2.877   1.230
  111fsi     O4 1498   0.678   2.945   0.993
  111fsi     F2 1499   0.870   2.990   1.122
  112fsi     F1 1500   2.954   1.329   0.604
  112fsi     S1 1501   2.925   1.174   0.611
  112fsi      N 1502   2.786   1.172   0.683
  112fsi     O1 1503   2.924   1.132   0.474
  112fsi     O2 1504   3.030   1.125   0.695
  112fsi     S2 1505   2.647   1.202   0.620
  112fsi     O3 1506   2.658   1.286   0.505
  112fsi     O4 1507   2.551   1.247   0.718
  112fsi     F2 1508   2.594   1.064   0.570
  113fsi     F1 1509   1.506   1.393   1.151
  113fsi     S1 1510   1.635   1.406   1.238
  113fsi      N 1511   1.693   1.260   1.231
  113fsi     O1 1512   1.714   1.502   1.169
  113fsi     O2 1513   1.582   1.441   1.366
  113fsi     S2 1514   1.758   1.193   1.107
  113fsi     O3 1515   1.733   1.256   0.982
  113fsi     O4 1516   1.746   1.050   1.108
  113fsi     F2 1517   1.911   1.213   1.131
  114fsi     F1 1518   1.625   2.182   0.515
  114fsi     S1 1519   1.524   2.075   0.461
  114fsi      N 1520   1.429   2.056   0.585
  114fsi     O1 1521   1.464   2.138   0.347
  114fsi     O2 1522   1.609   1.963   0.441
  114fsi     S2 1523   1.275   2.083   0.604
  114fsi     O3 1524   1.206   2.146   0.495
  114fsi     O4 1525   1.247   2.136   0.734
  114fsi     F2 1526   1.213   1.941   0.606
  115fsi     F1 1527   0.655   1.340   1.385
  115fsi     S1 1528   0.762   1.425   1.462
  115fsi      N 1529   0.673   1.537   1.524
  115fsi     O1 1530   0.816   1.329   1.554
  115fsi     O2 1531   0.847   1.474   1.360
  115fsi     S2 1532   0.631   1.570   1.671
  115fsi     O3 1533   0.610   1.449   1.747
  115fsi     O4 1534   0.526   1.667   1.673
  115fsi     F2 1535   0.756   1.642   1.731
  116fsi     F1 1536   1.825   2.407   0.542
  116fsi     S1 1537   1.978   2.435   0.555
  116fsi      N 1538   2.026   2.459   0.407
  116fsi     O1 1539   1.982   2.552   0.637
  116fsi     O2 1540   2.030   2.313   0.610
  116fsi     S2 1541   2.086   2.584   0.336
  116fsi     O3 1542   2.025   2.712   0.363
  116fsi     O4 1543   2.121   2.560   0.198
  116fsi     F2 1544   2.226   2.598   0.405
  117fsi     F1 1545   2.487   2.392   2.622
  117fsi     S1 1546   2.351   2.337   2.569
  117fsi      N 1547   2.268   2.321   2.700
  117fsi     O1 1548   2.305   2.440   2.479
  117fsi     O2 1549   2.388   2.212   2.510
  117fsi     S2 1550   2.225   2.437   2.797
  117fsi     O3 1551   2.251   2.569   2.747
  117fsi     O4 1552   2.257   2.413   2.934
  117fsi     F2 1553   2.069   2.431   2.794
  118fsi     F1 1554   2.123   0.390   0.221
  118fsi     S1 1555   1.995   0.300   0.208
  118fsi      N 1556   2.029   0.177   0.299
  118fsi     O1 1557   1.887   0.383   0.255
  118fsi     O2 1558   1.991   0.264   0.069
  118fsi     S2 1559   2.040   0.171   0.455
  118fsi     O3 1560   2.092   0.289   0.518
  118fsi     O4 1561   2.096   0.046   0.497
  118fsi     F2 1562   1.890   0.162   0.503
  119fsi     F1 1563   2.027   0.768   2.784
  119fsi     S1 1564   1.981   0.647   2.870
  119fsi      N 1565   2.104   0.551   2.858
  119fsi     O1 1566   1.958   0.702   3.001
  119fsi     O2 1567   1.869   0.595   2.798
  119fsi     S2 1568   2.223   0.525   2.957
  119fsi     O3 1569   2.207   0.577   3.090
  119fsi     O4 1570   2.352   0.548   2.898
  119fsi     F2 1571   2.217   0.369   2.977
  120fsi     F1 1572   1.500   0.168   0.518
  120fsi     S1 1573   1.504   0.237   0.657
  120fsi      N 1574   1.649   0.296   0.662
  120fsi     O1 1575   1.397   0.333   0.655
  120fsi     O2 1576   1.487   0.124   0.743
  120fsi     S2 1577   1.703   0.436   0.617
  120fsi     O3 1578   1.670   0.472   0.482
  120fsi     O4 1579   1.838   0.458   0.661
  120fsi     F2 1580   1.621   0.536   0.707
  121fsi     F1 1581   2.663   0.495   2.886
  121fsi     S1 1582   2.706   0.613   2.791
  121fsi      N 1583   2.776   0.712   2.890
  121fsi     O1 1584   2.791   0.550   2.693
  121fsi     O2 1585   2.581   0.669   2.749
  121fsi     S2 1586   2.930   0.738   2.905
  121fsi     O3 1587   3.006   0.621   2.940
  121fsi     O4 1588   2.956   0.859   2.979
  121fsi     F2 1589   2.972   0.774   2.758
  122fsi     F1 1590   2.468   1.555   0.758
  122fsi     S1 1591   2.475   1.648   0.633
  122fsi      N 1592   2.327   1.679   0.601
  122fsi     O1 1593   2.558   1.755   0.679
  122fsi     O2 1594   2.535   1.558   0.538
  122fsi     S2 1595   2.239   1.802   0.642
  122fsi     O3 1596   2.305   1.898   0.726
  122fsi     O4 1597   2.106   1.764   0.679
  122fsi     F2 1598   2.223   1.878   0.506
  123fsi     F1 1599   2.537   0.799   0.691
  123fsi     S1 1600   2.576   0.821   0.841
  123fsi      N 1601   2.718   0.755   0.845
  123fsi     O1 1602   2.574   0.964   0.853
  123fsi     O2 1603   2.474   0.748   0.912
  123fsi     S2 1604   2.843   0.800   0.762
  123fsi     O3 1605   2.809   0.851   0.632
  123fsi     O4 1606   2.953   0.708   0.766
  123fsi     F2 1607   2.895   0.925   0.843
  124fsi     F1 1608   2.153   1.368   1.785
  124fsi     S1 1609   2.017   1.311   1.834
  124fsi      N 1610   2.058   1.224   1.956
  124fsi     O1 1611   1.939   1.426   1.867
  124fsi     O2 1612   1.976   1.229   1.724
  124fsi     S2 1613   2.012   1.240   2.104
  124fsi     O3 1614   2.040   1.367   2.166
  124fsi     O4 1615   2.040   1.120   2.178
  124fsi     F2 1616   1.857   1.241   2.093
  125fsi     F1 1617   0.876   0.781   1.618
  125fsi     S1 1618   0.907   0.637   1.566
  125fsi      N 1619   1.057   0.639   1.523
  125fsi     O1 1620   0.876   0.551   1.677
  125fsi     O2 1621   0.822   0.626   1.451
  125fsi     S2 1622   1.186   0.617   1.608
  125fsi     O3 1623   1.169   0.629   1.749
  125fsi     O4 1624   1.298   0.680   1.544
  125fsi     F2 1625   1.216   0.465   1.595
  126fsi     F1 1626   0.624   0.678   0.259
  126fsi     S1 1627   0.503   0.779   0.254
  126fsi      N 1628   0.570   0.915   0.297
  126fsi     O1 1629   0.456   0.774   0.119
  126fsi     O2 1630   0.415   0.729   0.356
  126fsi     S2 1631   0.633   1.025   0.204
  126fsi     O3 1632   0.719   0.975   0.101
  126fsi     O4 1633   0.683   1.131   0.288
  126fsi     F2 1634   0.510   1.091   0.131
  127fsi     F1 1635   0.649   2.783   0.131
  127fsi     S1 1636   0.523   2.856   0.190
  127fsi      N 1637   0.414   2.744   0.187
  127fsi     O1 1638   0.561   2.897   0.323
  127fsi     O2 1639   0.497   2.958   0.093
  127fsi     S2 1640   0.396   2.623   0.285
  127fsi     O3 1641   0.516   2.579   0.352
  127fsi     O4 1642   0.310   2.523   0.230
  127fsi     F2 1643   0.309   2.684   0.401
  128fsi     F1 1644   2.763   2.378   0.779
  128fsi     S1 1645   2.815   2.473   0.893
  128fsi      N 1646   2.788   2.383   1.020
  128fsi     O1 1647   2.953   2.493   0.859
  128fsi     O2 1648   2.726   2.585   0.884
  128fsi     S2 1649   2.882   2.298   1.112
  128fsi     O3 1650   3.008   2.263   1.054
  128fsi     O4 1651   2.806   2.190   1.170
  128fsi     F2 1652   2.913   2.392   1.234
  129fsi     F1 1653   0.989   1.781   2.432
  129fsi     S1 1654   1.123   1.847   2.481
  129fsi      N 1655   1.226   1.766   2.399
  129fsi     O1 1656   1.111   1.985   2.440
  129fsi     O2 1657   1.123   1.816   2.621
  129fsi     S2 1658   1.238   1.757   2.243
  129fsi     O3 1659   1.148   1.850   2.178
  129fsi     O4 1660   1.238   1.621   2.201
  129fsi     F2 1661   1.378   1.815   2.206
  130fsi     F1 1662   1.788   2.900   2.722
  130fsi     S1 1663   1.771   2.744   2.736
  130fsi      N 1664   1.739   2.700   2.589
  130fsi     O1 1665   1.897   2.699   2.788
  130fsi     O2 1666   1.653   2.730   2.818
  130fsi     S2 1667   1.833   2.626   2.486
  130fsi     O3 1668   1.961   2.689   2.468
  130fsi     O4 1669   1.762   2.590   2.367
  130fsi     F2 1670   1.861   2.489   2.554
  131fsi     F1 1671   1.790   2.599   1.489
  131fsi     S1 1672   1.910   2.659   1.568
  131fsi      N 1673   1.927   2.796   1.493
  131fsi     O1 1674   1.864   2.660   1.704
  131fsi     O2 1675   2.020   2.571   1.537
  131fsi     S2 1676   1.891   2.942   1.536
  131fsi     O3 1677   1.819   2.952   1.660
  131fsi     O4 1678   1.842   3.012   1.421
  131fsi     F2 1679   2.031   3.007   1.565
  132fsi     F1 1680   2.026   0.348   1.691
  132fsi     S1 1681   1.959   0.363   1.550
  132fsi      N 1682   1.831   0.273   1.557
  132fsi     O1 1683   1.928   0.503   1.535
  132fsi     O2 1684   2.052   0.309   1.456
  132fsi     S2 1685   1.693   0.311   1.618
  132fsi     O3 1686   1.705   0.377   1.744
  132fsi     O4 1687   1.591   0.212   1.600
  132fsi     F2 1688   1.642   0.423   1.520
  133fsi     F1 1689   0.825   1.653   0.935
  133fsi     S1 1690   0.802   1.801   0.968
  133fsi      N 1691   0.944   1.856   1.001
  133fsi     O1 1692   0.747   1.856   0.848
  133fsi     O2 1693   0.715   1.796   1.082
  133fsi     S2 1694   1.058   1.885   0.899
  133fsi     O3 1695   1.070   1.786   0.796
  133fsi     O4 1696   1.177   1.930   0.965
  133fsi     F2 1697   1.005   2.013   0.824
  134fsi     F1 1698   3.025   2.577   2.516
  134fsi     S1 1699   2.955   2.437   2.497
  134fsi      N 1700   2.802   2.471   2.499
  134fsi     O1 1701   3.001   2.388   2.370
  134fsi     O2 1702   2.994   2.365   2.614
  134fsi     S2 1703   2.725   2.542   2.384
  134fsi     O3 1704   2.796   2.654   2.328
  134fsi     O4 1705   2.585   2.562   2.410
  134fsi     F2 1706   2.723   2.432   2.272
  135fsi     F1 1707   0.374   2.652   2.526
  135fsi     S1 1708   0.530   2.644   2.508
  135fsi      N 1709   0.559   2.765   2.413
  135fsi     O1 1710   0.583   2.661   2.641
  135fsi     O2 1711   0.547   2.517   2.443
  135fsi     S2 1712   0.573   2.916   2.455
  135fsi     O3 1713   0.519   2.946   2.585
  135fsi     O4 1714   0.537   2.999   2.344
  135fsi     F2 1715   0.728   2.935   2.470
  136fsi     F1 1716   0.084   2.799   2.108
  136fsi     S1 1717   0.213   2.840   2.188
  136fsi      N 1718   0.272   2.705   2.242
  136fsi     O1 1719   0.302   2.900   2.092
  136fsi     O2 1720   0.166   2.924   2.293
  136fsi     S2 1721   0.317   2.578   2.161
  136fsi     O3 1722   0.285   2.581   2.021
  136fsi     O4 1723   0.297   2.456   2.234
  136fsi     F2 1724   0.474   2.596   2.161
  137fsi     F1 1725   1.909   0.297   2.623
  137fsi     S1 1726   2.043   0.217   2.630
  137fsi      N 1727   2.027   0.107   2.519
  137fsi     O1 1728   2.143   0.317   2.605
  137fsi     O2 1729   2.039   0.159   2.762
  137fsi     S2 1730   2.060   0.118   2.366
  137fsi     O3 1731   2.044   0.248   2.309
  137fsi     O4 1732   2.003   0.007   2.295
  137fsi     F2 1733   2.213   0.086   2.360
  138fsi     F1 1734   0.337   0.401   1.259
  138fsi     S1 1735   0.371   0.266   1.186
  138fsi      N 1736   0.495   0.304   1.098
  138fsi     O1 1737   0.402   0.175   1.293
  138fsi     O2 1738   0.255   0.240   1.106
  138fsi     S2 1739   0.642   0.329   1.146
  138fsi     O3 1740   0.648   0.422   1.257
  138fsi     O4 1741   0.733   0.353   1.038
  138fsi     F2 1742   0.687   0.191   1.205
  139fsi     F1 1743   0.943   1.551   0.170
  139fsi     S1 1744   0.935   1.396   0.167
  139fsi      N 1745   1.082   1.360   0.132
  139fsi     O1 1746   0.891   1.360   0.300
  139fsi     O2 1747   0.843   1.376   0.058
  139fsi     S2 1748   1.208   1.375   0.224
  139fsi     O3 1749   1.186   1.454   0.343
  139fsi     O4 1750   1.329   1.399   0.149
  139fsi     F2 1751   1.224   1.228   0.279
  140fsi     F1 1752   1.415   1.549   2.441
  140fsi     S1 1753   1.443   1.404   2.490
  140fsi      N 1754   1.393   1.313   2.371
  140fsi     O1 1755   1.585   1.401   2.511
  140fsi     O2 1756   1.357   1.392   2.605
  140fsi     S2 1757   1.480   1.245   2.259
  140fsi     O3 1758   1.592   1.320   2.212
  140fsi     O4 1759   1.403   1.175   2.161
  140fsi     F2 1760   1.547   1.126   2.335
  141fsi     F1 1761   1.631   1.905   2.932
  141fsi     S1 1762   1.785   1.923   2.914
  141fsi      N 1763   1.795   2.049   2.823
  141fsi     O1 1764   1.841   1.940   3.045
  141fsi     O2 1765   1.827   1.811   2.836
  141fsi     S2 1766   1.835   2.197   2.851
  141fsi     O3 1767   1.744   2.273   2.932
  141fsi     O4 1768   1.874   2.254   2.725
  141fsi     F2 1769   1.970   2.189   2.931
  142fsi     F1 1770   2.422   2.980   1.411
  142fsi     S1 1771   2.471   2.836   1.373
  142fsi      N 1772   2.534   2.852   1.231
  142fsi     O1 1773   2.563   2.800   1.478
  142fsi     O2 1774   2.348   2.763   1.369
  142fsi     S2 1775   2.684   2.872   1.188
  142fsi     O3 1776   2.770   2.927   1.288
  142fsi     O4 1777   2.694   2.924   1.054
  142fsi     F2 1778   2.735   2.725   1.172
  143fsi     F1 1779   0.832   0.825   1.900
  143fsi     S1 1780   0.974   0.867   1.948
  143fsi      N 1781   1.054   0.872   1.817
  143fsi     O1 1782   0.953   0.994   2.008
  143fsi     O2 1783   1.011   0.762   2.039
  143fsi     S2 1784   1.116   0.998   1.750
  143fsi     O3 1785   1.019   1.090   1.699
  143fsi     O4 1786   1.224   0.961   1.663
  143fsi     F2 1787   1.186   1.070   1.870
  144fsi     F1 1788   1.432   2.174   2.395
  144fsi     S1 1789   1.402   2.295   2.302
  144fsi      N 1790   1.335   2.397   2.400
  144fsi     O1 1791   1.531   2.340   2.256
  144fsi     O2 1792   1.309   2.244   2.205
  144fsi     S2 1793   1.391   2.532   2.455
  144fsi     O3 1794   1.508   2.522   2.536
  144fsi     O4 1795   1.289   2.620   2.505
  144fsi     F2 1796   1.438   2.607   2.325
  145fsi     F1 1797   0.956   1.427   1.875
  145fsi     S1 1798   0.915   1.497   2.008
  145fsi      N 1799   0.934   1.388   2.120
  145fsi     O1 1800   1.001   1.611   2.021
  145fsi     O2 1801   0.776   1.524   1.987
  145fsi     S2 1802   1.064   1.312   2.165
  145fsi     O3 1803   1.170   1.322   2.072
  145fsi     O4 1804   1.036   1.181   2.218
  145fsi     F2 1805   1.108   1.392   2.293
  146fsi     F1 1806   2.609   1.675   2.244
  146fsi     S1 1807   2.699   1.642   2.368
  146fsi      N 1808   2.818   1.566   2.301
  146fsi     O1 1809   2.733   1.769   2.425
  146fsi     O2 1810   2.617   1.559   2.450
  146fsi     S2 1811   2.948   1.629   2.238
  146fsi     O3 1812   2.933   1.765   2.196
  146fsi     O4 1813   3.013   1.538   2.149
  146fsi     F2 1814   3.044   1.638   2.362
  147fsi     F1 1815   1.383   0.476   1.856
  147fsi     S1 1816   1.488   0.593   1.856
  147fsi      N 1817   1.410   0.717   1.908
  147fsi     O1 1818   1.588   0.550   1.950
  147fsi     O2 1819   1.525   0.605   1.718
  147fsi     S2 1820   1.354   0.738   2.052
  147fsi     O3 1821   1.297   0.621   2.112
  147fsi     O4 1822   1.279   0.860   2.063
  147fsi     F2 1823   1.483   0.767   2.138
  148fsi     F1 1824   1.435   1.617   1.761
  148fsi     S1 1825   1.322   1.585   1.863
  148fsi      N 1826   1.205   1.551   1.766
  148fsi     O1 1827   1.374   1.475   1.938
  148fsi     O2 1828   1.300   1.710   1.930
  148fsi     S2 1829   1.203   1.429   1.670
  148fsi     O3 1830   1.328   1.395   1.610
  148fsi     O4 1831   1.088   1.427   1.585
  148fsi     F2 1832   1.172   1.313   1.768
  149fsi     F1 1833   0.395   1.515   2.493
  149fsi     S1 1834   0.251   1.562   2.450
  149fsi      N 1835   0.223   1.682   2.547
  149fsi     O1 1836   0.263   1.599   2.312
  149fsi     O2 1837   0.169   1.448   2.480
  149fsi     S2 1838   0.287   1.826   2.546
  149fsi     O3 1839   0.412   1.841   2.477
  149fsi     O4 1840   0.276   1.888   2.675
  149fsi     F2 1841   0.186   1.910   2.458
  150fsi     F1 1842   0.643   2.163   1.183
  150fsi     S1 1843   0.634   2.166   1.026
  150fsi      N 1844   0.521   2.061   0.995
  150fsi     O1 1845   0.598   2.301   0.990
  150fsi     O2 1846   0.764   2.122   0.985
  150fsi     S2 1847   0.371   2.089   0.959
  150fsi     O3 1848   0.308   2.194   1.033
  150fsi     O4 1849   0.297   1.968   0.941
  150fsi     F2 1850   0.382   2.148   0.814
  151fsi     F1 1851   2.349   1.989   1.000
  151fsi     S1 1852   2.500   2.030   1.012
  151fsi      N 1853   2.571   1.924   1.101
  151fsi     O1 1854   2.554   2.030   0.879
  151fsi     O2 1855   2.498   2.159   1.074
  151fsi     S2 1856   2.592   1.773   1.069
  151fsi     O3 1857   2.500   1.715   0.976
  151fsi     O4 1858   2.626   1.697   1.185
  151fsi     F2 1859   2.728   1.775   0.989
  152fsi     F1 1860   0.869   2.827   0.309
  152fsi     S1 1861   0.930   2.939   0.218
  152fsi      N 1862   1.040   3.005   0.308
  152fsi     O1 1863   0.984   2.872   0.103
  152fsi     O2 1864   0.821   3.029   0.192
  152fsi     S2 1865   1.180   2.944   0.341
  152fsi     O3 1866   1.176   2.801   0.353
  152fsi     O4 1867   1.254   3.016   0.440
  152fsi     F2 1868   1.261   2.970   0.209
  153fsi     F1 1869   0.566   0.808   2.296
  153fsi     S1 1870   0.688   0.730   2.238
  153fsi      N 1871   0.621   0.646   2.122
  153fsi     O1 1872   0.779   0.832   2.196
  153fsi     O2 1873   0.730   0.647   2.347
  153fsi     S2 1874   0.530   0.695   2.004
  153fsi     O3 1875   0.503   0.837   2.004
  153fsi     O4 1876   0.420   0.606   1.985
  153fsi     F2 1877   0.618   0.670   1.876
  154fsi     F1 1878   3.038   0.634   1.264
  154fsi     S1 1879   2.952   0.649   1.133
  154fsi      N 1880   3.007   0.533   1.043
  154fsi     O1 1881   2.818   0.632   1.178
  154fsi     O2 1882   2.990   0.779   1.084
  154fsi     S2 1883   2.936   0.400   0.997
  154fsi     O3 1884   2.857   0.335   1.097
  154fsi     O4 1885   3.025   0.318   0.919
  154fsi     F2 1886   2.832   0.450   0.890
  155fsi     F1 1887   1.397   1.818   0.756
  155fsi     S1 1888   1.428   1.692   0.669
  155fsi      N 1889   1.577   1.663   0.708
  155fsi     O1 1890   1.331   1.597   0.713
  155fsi     O2 1891   1.409   1.735   0.534
  155fsi     S2 1892   1.633   1.581   0.829
  155fsi     O3 1893   1.532   1.530   0.916
  155fsi     O4 1894   1.748   1.641   0.889
  155fsi     F2 1895   1.690   1.453   0.761
  156fsi     F1 1896   1.524   0.831   1.155
  156fsi     S1 1897   1.508   0.680   1.194
  156fsi      N 1898   1.356   0.666   1.224
  156fsi     O1 1899   1.544   0.609   1.076
  156fsi     O2 1900   1.593   0.665   1.310
  156fsi     S2 1901   1.246   0.683   1.115
  156fsi     O3 1902   1.268   0.796   1.030
  156fsi     O4 1903   1.113   0.657   1.163
  156fsi     F2 1904   1.271   0.561   1.018
  157fsi     F1 1905   1.268   1.917   0.034
  157fsi     S1 1906   1.268   1.798   0.136
  157fsi      N 1907   1.405   1.727   0.109
  157fsi     O1 1908   1.256   1.861   0.265
  157fsi     O2 1909   1.155   1.720   0.093
  157fsi     S2 1910   1.548   1.787   0.134
  157fsi     O3 1911   1.556   1.930   0.122
  157fsi     O4 1912   1.649   1.708   0.070
  157fsi     F2 1913   1.570   1.756   0.284
  158fsi     F1 1914   0.208   2.272   0.357
  158fsi     S1 1915   0.323   2.205   0.440
  158fsi      N 1916   0.396   2.110   0.339
  158fsi     O1 1917   0.404   2.313   0.490
  158fsi     O2 1918   0.253   2.131   0.541
  158fsi     S2 1919   0.463   2.143   0.200
  158fsi     O3 1920   0.409   2.256   0.131
  158fsi     O4 1921   0.484   2.024   0.123
  158fsi     F2 1922   0.609   2.189   0.239
  159fsi     F1 1923   2.009   1.490   1.585
  159fsi     S1 1924   1.889   1.469   1.489
  159fsi      N 1925   1.845   1.616   1.464
  159fsi     O1 1926   1.947   1.402   1.375
  159fsi     O2 1927   1.794   1.394   1.567
  159fsi     S2 1928   1.916   1.723   1.376
  159fsi     O3 1929   2.036   1.678   1.311
  159fsi     O4 1930   1.917   1.854   1.436
  159fsi     F2 1931   1.818   1.741   1.257
  160fsi     F1 1932   2.614   0.659   1.759
  160fsi     S1 1933   2.633   0.813   1.782
  160fsi      N 1934   2.789   0.827   1.792
  160fsi     O1 1935   2.573   0.876   1.668
  160fsi     O2 1936   2.571   0.838   1.909
  160fsi     S2 1937   2.901   0.822   1.682
  160fsi     O3 1938   2.856   0.799   1.548
  160fsi     O4 1939   3.017   0.750   1.728
  160fsi     F2 1940   2.951   0.971   1.679
  161fsi     F1 1941   1.252   0.234   2.576
  161fsi     S1 1942   1.117   0.155   2.565
  161fsi      N 1943   1.119   0.064   2.692
  161fsi     O1 1944   1.015   0.256   2.568
  161fsi     O2 1945   1.131   0.081   2.443
  161fsi     S2 1946   1.113   0.110   2.841
  161fsi     O3 1947   1.148   0.247   2.866
  161fsi     O4 1948   1.166   0.009   2.929
  161fsi     F2 1949   0.958   0.105   2.873
  162fsi     F1 1950   1.140   2.963   1.526
  162fsi     S1 1951   1.205   2.891   1.402
  162fsi      N 1952   1.347   2.955   1.393
  162fsi     O1 1953   1.202   2.753   1.436
  162fsi     O2 1954   1.122   2.930   1.292
  162fsi     S2 1955   1.483   2.908   1.457
  162fsi     O3 1956   1.487   2.773   1.506
  162fsi     O4 1957   1.537   3.010   1.541
  162fsi     F2 1958   1.580   2.904   1.333
  163fsi     F1 1959   2.112   0.623   0.799
  163fsi     S1 1960   2.225   0.626   0.692
  163fsi      N 1961   2.153   0.582   0.561
  163fsi     O1 1962   2.273   0.761   0.694
  163fsi     O2 1963   2.314   0.524   0.739
  163fsi     S2 1964   2.075   0.673   0.458
  163fsi     O3 1965   2.074   0.813   0.486
  163fsi     O4 1966   1.951   0.615   0.415
  163fsi     F2 1967   2.165   0.663   0.329
  164fsi     F1 1968   2.481   0.559   0.225
  164fsi     S1 1969   2.534   0.705   0.249
  164fsi      N 1970   2.682   0.683   0.299
  164fsi     O1 1971   2.523   0.766   0.119
  164fsi     O2 1972   2.455   0.756   0.356
  164fsi     S2 1973   2.806   0.654   0.209
  164fsi     O3 1974   2.776   0.588   0.086
  164fsi     O4 1975   2.921   0.608   0.282
  164fsi     F2 1976   2.850   0.798   0.166
  165fsi     F1 1977   1.896   1.046   0.844
  165fsi     S1 1978   1.981   0.915   0.830
  165fsi      N 1979   1.970   0.846   0.970
  165fsi     O1 1980   1.919   0.841   0.726
  165fsi     O2 1981   2.115   0.963   0.808
  165fsi     S2 1982   1.852   0.753   1.012
  165fsi     O3 1983   1.727   0.788   0.951
  165fsi     O4 1984   1.850   0.726   1.153
  165fsi     F2 1985   1.889   0.614   0.949
  166fsi     F1 1986   1.979   2.377   0.910
  166fsi     S1 1987   2.117   2.435   0.952
  166fsi      N 1988   2.079   2.579   1.003
  166fsi     O1 1989   2.166   2.349   1.055
  166fsi     O2 1990   2.194   2.433   0.832
  166fsi     S2 1991   2.038   2.624   1.148
  166fsi     O3 1992   1.960   2.531   1.223
  166fsi     O4 1993   1.998   2.761   1.158
  166fsi     F2 1994   2.174   2.622   1.221
  167fsi     F1 1995   0.378   1.120   2.589
  167fsi     S1 1996   0.393   0.971   2.538
  167fsi      N 1997   0.332   0.885   2.652
  167fsi     O1 1998   0.316   0.966   2.416
  167fsi     O2 1999   0.535   0.956   2.528
  167fsi     S2 2000   0.183   0.885   2.701
  167fsi     O3 2001   0.119   1.013   2.701
  167fsi     O4 2002   0.168   0.801   2.817
  167fsi     F2 2003   0.110   0.805   2.587
  168fsi     F1 2004   0.443   2.333   1.224
  168fsi     S1 2005   0.453   2.478   1.277
  168fsi      N 2006   0.317   2.540   1.234
  168fsi     O1 2007   0.470   2.460   1.418
  168fsi     O2 2008   0.560   2.538   1.203
  168fsi     S2 2009   0.173   2.512   1.288
  168fsi     O3 2010   0.166   2.425   1.402
  168fsi     O4 2011   0.080   2.494   1.181
  168fsi     F2 2012   0.133   2.652   1.346
  169fsi     F1 2013   1.633   1.499   0.275
  169fsi     S1 2014   1.687   1.473   0.419
  169fsi      N 2015   1.785   1.354   0.394
  169fsi     O1 2016   1.750   1.595   0.460
  169fsi     O2 2017   1.569   1.431   0.489
  169fsi     S2 2018   1.928   1.362   0.333
  169fsi     O3 2019   2.005   1.480   0.360
  169fsi     O4 2020   1.935   1.307   0.201
  169fsi     F2 2021   2.000   1.257   0.422
  170fsi     F1 2022   2.172   2.293   1.323
  170fsi     S1 2023   2.076   2.170   1.298
  170fsi      N 2024   2.031   2.142   1.445
  170fsi     O1 2025   1.972   2.225   1.217
  170fsi     O2 2026   2.164   2.075   1.238
  170fsi     S2 2027   1.913   2.204   1.528
  170fsi     O3 2028   1.864   2.328   1.474
  170fsi     O4 2029   1.938   2.210   1.669
  170fsi     F2 2030   1.794   2.105   1.512
  171fsi     F1 2031   2.429   2.157   1.863
  171fsi     S1 2032   2.422   2.001   1.872
  171fsi      N 2033   2.269   1.972   1.863
  171fsi     O1 2034   2.502   1.954   1.763
  171fsi     O2 2035   2.470   1.972   2.004
  171fsi     S2 2036   2.183   1.966   1.732
  171fsi     O3 2037   2.223   2.070   1.643
  171fsi     O4 2038   2.043   1.947   1.756
  171fsi     F2 2039   2.230   1.832   1.667
  172fsi     F1 2040   1.605   2.252   2.007
  172fsi     S1 2041   1.624   2.113   1.940
  172fsi      N 2042   1.486   2.046   1.962
  172fsi     O1 2043   1.659   2.146   1.806
  172fsi     O2 2044   1.725   2.053   2.019
  172fsi     S2 2045   1.369   2.035   1.861
  172fsi     O3 2046   1.361   2.139   1.764
  172fsi     O4 2047   1.251   2.001   1.934
  172fsi     F2 2048   1.399   1.910   1.777
  173fsi     F1 2049   0.613   0.836   1.505
  173fsi     S1 2050   0.572   0.959   1.593
  173fsi      N 2051   0.418   0.968   1.565
  173fsi     O1 2052   0.607   0.923   1.726
  173fsi     O2 2053   0.636   1.073   1.534
  173fsi     S2 2054   0.304   0.900   1.647
  173fsi     O3 2055   0.343   0.781   1.715
  173fsi     O4 2056   0.184   0.899   1.569
  173fsi     F2 2057   0.274   1.004   1.762
  174fsi     F1 2058   1.012   2.168   0.289
  174fsi     S1 2059   1.051   2.219   0.147
  174fsi      N 2060   0.955   2.341   0.127
  174fsi     O1 2061   1.189   2.257   0.157
  174fsi     O2 2062   1.016   2.109   0.060
  174fsi     S2 2063   0.969   2.484   0.189
  174fsi     O3 2064   1.029   2.489   0.319
  174fsi     O4 2065   0.850   2.562   0.168
  174fsi     F2 2066   1.075   2.553   0.095
  175fsi     F1 2067   1.997   1.691   0.113
  175fsi     S1 2068   2.091   1.790   0.191
  175fsi      N 2069   2.223   1.707   0.211
  175fsi     O1 2070   2.107   1.902   0.102
  175fsi     O2 2071   2.021   1.813   0.314
  175fsi     S2 2072   2.370   1.743   0.170
  175fsi     O3 2073   2.390   1.828   0.055
  175fsi     O4 2074   2.457   1.629   0.178
  175fsi     F2 2075   2.418   1.832   0.290
  176fsi     F1 2076   2.404   2.586   0.142
  176fsi     S1 2077   2.448   2.729   0.191
  176fsi      N 2078   2.514   2.699   0.330
  176fsi     O1 2079   2.538   2.774   0.088
  176fsi     O2 2080   2.324   2.802   0.205
  176fsi     S2 2081   2.664   2.662   0.362
  176fsi     O3 2082   2.735   2.599   0.254
  176fsi     O4 2083   2.677   2.602   0.492
  176fsi     F2 2084   2.733   2.802   0.378
  177fsi     F1 2085   2.821   0.854   2.521
  177fsi     S1 2086   2.801   0.774   2.387
  177fsi      N 2087   2.765   0.886   2.285
  177fsi     O1 2088   2.926   0.708   2.363
  177fsi     O2 2089   2.685   0.692   2.412
  177fsi     S2 2090   2.856   0.965   2.186
  177fsi     O3 2091   2.996   0.975   2.221
  177fsi     O4 2092   2.790   1.086   2.143
  177fsi     F2 2093   2.856   0.875   2.059
  178fsi     F1 2094   2.020   1.659   2.150
  178fsi     S1 2095   2.089   1.797   2.125
  178fsi      N 2096   2.231   1.754   2.076
  178fsi     O1 2097   2.012   1.863   2.026
  178fsi     O2 2098   2.087   1.858   2.254
  178fsi     S2 2099   2.247   1.645   1.964
  178fsi     O3 2100   2.144   1.641   1.866
  178fsi     O4 2101   2.295   1.525   2.023
  178fsi     F2 2102   2.372   1.695   1.883
  179fsi     F1 2103   1.025   1.272   0.755
  179fsi     S1 2104   1.018   1.413   0.820
  179fsi      N 2105   0.897   1.396   0.917
  179fsi     O1 2106   1.143   1.427   0.887
  179fsi     O2 2107   0.992   1.495   0.706
  179fsi     S2 2108   0.901   1.316   1.051
  179fsi     O3 2109   0.971   1.192   1.037
  179fsi     O4 2110   0.773   1.311   1.118
  179fsi     F2 2111   0.992   1.404   1.143
  180fsi     F1 2112   1.313   1.358   1.332
  180fsi     S1 2113   1.282   1.206   1.311
  180fsi      N 2114   1.420   1.133   1.296
  180fsi     O1 2115   1.207   1.169   1.427
  180fsi     O2 2116   1.211   1.205   1.187
  180fsi     S2 2117   1.489   1.042   1.403
  180fsi     O3 2118   1.464   1.078   1.538
  180fsi     O4 2119   1.621   0.996   1.369
  180fsi     F2 2120   1.405   0.911   1.388
  181fsi     F1 2121   1.596   1.774   2.604
  181fsi     S1 2122   1.559   1.920   2.560
  181fsi      N 2123   1.699   1.989   2.541
  181fsi     O1 2124   1.487   1.905   2.438
  181fsi     O2 2125   1.488   1.975   2.671
  181fsi     S2 2126   1.768   2.043   2.413
  181fsi     O3 2127   1.737   1.978   2.290
  181fsi     O4 2128   1.907   2.071   2.440
  181fsi     F2 2129   1.709   2.186   2.399
  182fsi     F1 2130   2.478   0.391   2.674
  182fsi     S1 2131   2.503   0.246   2.620
  182fsi      N 2132   2.422   0.243   2.486
  182fsi     O1 2133   2.645   0.236   2.602
  182fsi     O2 2134   2.445   0.160   2.720
  182fsi     S2 2135   2.455   0.313   2.350
  182fsi     O3 2136   2.540   0.428   2.359
  182fsi     O4 2137   2.341   0.324   2.263
  182fsi     F2 2138   2.543   0.204   2.279
  183fsi     F1 2139   2.831   2.561   2.062
  183fsi     S1 2140   2.704   2.615   1.990
  183fsi      N 2141   2.763   2.739   1.915
  183fsi     O1 2142   2.657   2.506   1.909
  183fsi     O2 2143   2.620   2.659   2.098
  183fsi     S2 2144   2.869   2.741   1.800
  183fsi     O3 2145   2.904   2.611   1.748
  183fsi     O4 2146   2.977   2.830   1.835
  183fsi     F2 2147   2.795   2.812   1.681
  184fsi     F1 2148   1.307   2.195   1.026
  184fsi     S1 2149   1.200   2.305   1.056
  184fsi      N 2150   1.208   2.320   1.211
  184fsi     O1 2151   1.248   2.419   0.981
  184fsi     O2 2152   1.076   2.245   1.017
  184fsi     S2 2153   1.252   2.439   1.302
  184fsi     O3 2154   1.312   2.550   1.233
  184fsi     O4 2155   1.312   2.393   1.423
  184fsi     F2 2156   1.117   2.500   1.345
  185fsi     F1 2157   2.302   1.313   2.200
  185fsi     S1 2158   2.414   1.369   2.293
  185fsi      N 2159   2.460   1.241   2.372
  185fsi     O1 2160   2.517   1.410   2.202
  185fsi     O2 2161   2.348   1.468   2.373
  185fsi     S2 2162   2.432   1.095   2.324
  185fsi     O3 2163   2.485   1.069   2.193
  185fsi     O4 2164   2.300   1.050   2.355
  185fsi     F2 2165   2.524   1.010   2.419
  186fsi     F1 2166   0.974   2.667   1.566
  186fsi     S1 2167   0.960   2.534   1.647
  186fsi      N 2168   0.834   2.468   1.579
  186fsi     O1 2169   1.084   2.468   1.624
  186fsi     O2 2170   0.937   2.584   1.780
  186fsi     S2 2171   0.831   2.348   1.476
  186fsi     O3 2172   0.958   2.303   1.429
  186fsi     O4 2173   0.732   2.366   1.375
  186fsi     F2 2174   0.776   2.228   1.559
  187fsi     F1 2175   1.477   1.084   0.077
  187fsi     S1 2176   1.583   1.131   0.184
  187fsi      N 2177   1.662   0.997   0.214
  187fsi     O1 2178   1.652   1.236   0.115
  187fsi     O2 2179   1.501   1.167   0.296
  187fsi     S2 2180   1.811   0.954   0.188
  187fsi     O3 2181   1.875   1.010   0.073
  187fsi     O4 2182   1.828   0.812   0.209
  187fsi     F2 2183   1.888   1.016   0.309
  188fsi     F1 2184   3.061   0.104   1.442
  188fsi     S1 2185   2.982   0.238   1.467
  188fsi      N 2186   2.837   0.200   1.424
  188fsi     O1 2187   2.999   0.260   1.608
  188fsi     O2 2188   3.047   0.329   1.378
  188fsi     S2 2189   2.719   0.151   1.514
  188fsi     O3 2190   2.759   0.081   1.633
  188fsi     O4 2191   2.613   0.092   1.437
  188fsi     F2 2192   2.657   0.285   1.565
  189fsi     F1 2193   2.560   0.072   0.664
  189fsi     S1 2194   2.448   0.168   0.613
  189fsi      N 2195   2.508   0.311   0.633
  189fsi     O1 2196   2.426   0.130   0.476
  189fsi     O2 2197   2.337   0.150   0.702
  189fsi     S2 2198   2.563   0.411   0.526
  189fsi     O3 2199   2.634   0.353   0.416
  189fsi     O4 2200   2.617   0.532   0.584
  189fsi     F2 2201   2.428   0.461   0.464
  190fsi     F1 2202   1.589   1.770   1.908
  190fsi     S1 2203   1.713   1.679   1.927
  190fsi      N 2204   1.755   1.722   2.071
  190fsi     O1 2205   1.665   1.545   1.915
  190fsi     O2 2206   1.802   1.727   1.825
  190fsi     S2 2207   1.715   1.644   2.201
  190fsi     O3 2208   1.576   1.619   2.215
  190fsi     O4 2209   1.788   1.683   2.319
  190fsi     F2 2210   1.779   1.506   2.172
  191fsi     F1 2211   0.800   1.149   0.821
  191fsi     S1 2212   0.675   1.204   0.751
  191fsi      N 2213   0.639   1.081   0.662
  191fsi     O1 2214   0.581   1.230   0.857
  191fsi     O2 2215   0.719   1.312   0.668
  191fsi     S2 2216   0.556   0.958   0.707
  191fsi     O3 2217   0.577   0.920   0.843
  191fsi     O4 2218   0.563   0.857   0.606
  191fsi     F2 2219   0.408   1.009   0.701
  192fsi     F1 2220   1.600   2.820   2.310
  192fsi     S1 2221   1.714   2.922   2.280
  192fsi      N 2222   1.816   2.839   2.193
  192fsi     O1 2223   1.646   3.027   2.212
  192fsi     O2 2224   1.766   2.949   2.411
  192fsi     S2 2225   1.811   2.815   2.038
  192fsi     O3 2226   1.706   2.883   1.969
  192fsi     O4 2227   1.829   2.675   2.007
  192fsi     F2 2228   1.940   2.884   1.985
  193fsi     F1 2229   2.034   1.647   2.935
  193fsi     S1 2230   2.008   1.493   2.929
  193fsi      N 2231   1.855   1.478   2.967
  193fsi     O1 2232   2.042   1.460   2.794
  193fsi     O2 2233   2.099   1.443   3.029
  193fsi     S2 2234   1.728   1.477   2.873
  193fsi     O3 2235   1.754   1.520   2.738
  193fsi     O4 2236   1.610   1.528   2.937
  193fsi     F2 2237   1.693   1.325   2.860
  194fsi     F1 2238   1.116   0.386   0.126
  194fsi     S1 2239   1.152   0.241   0.174
  194fsi      N 2240   1.300   0.223   0.125
  194fsi     O1 2241   1.133   0.244   0.316
  194fsi     O2 2242   1.063   0.157   0.098
  194fsi     S2 2243   1.433   0.259   0.199
  194fsi     O3 2244   1.413   0.334   0.320
  194fsi     O4 2245   1.538   0.302   0.111
  194fsi     F2 2246   1.483   0.118   0.249
  195fsi     F1 2247   2.490   1.490   1.414
  195fsi     S1 2248   2.344   1.548   1.414
  195fsi      N 2249   2.376   1.700   1.433
  195fsi     O1 2250   2.298   1.503   1.286
  195fsi     O2 2251   2.288   1.488   1.531
  195fsi     S2 2252   2.335   1.822   1.344
  195fsi     O3 2253   2.300   1.790   1.209
  195fsi     O4 2254   2.423   1.934   1.365
  195fsi     F2 2255   2.203   1.870   1.410
  196fsi     F1 2256   1.713   0.938   2.453
  196fsi     S1 2257   1.762   1.010   2.584
  196fsi      N 2258   1.902   1.067   2.543
  196fsi     O1 2259   1.661   1.109   2.610
  196fsi     O2 2260   1.771   0.902   2.678
  196fsi     S2 2261   1.932   1.210   2.485
  196fsi     O3 2262   1.844   1.249   2.380
  196fsi     O4 2263   2.072   1.237   2.468
  196fsi     F2 2264   1.894   1.307   2.600
  197fsi     F1 2265   1.031   1.858   1.833
  197fsi     S1 2266   0.919   1.949   1.895
  197fsi      N 2267   0.986   2.089   1.918
  197fsi     O1 2268   0.814   1.950   1.797
  197fsi     O2 2269   0.891   1.890   2.022
  197fsi     S2 2270   1.034   2.191   1.810
  197fsi     O3 2271   1.055   2.138   1.679
  197fsi     O4 2272   1.130   2.284   1.862
  197fsi     F2 2273   0.906   2.278   1.796
  198fsi     F1 2274   2.449   0.045   1.811
  198fsi     S1 2275   2.382   0.179   1.857
  198fsi      N 2276   2.231   0.157   1.818
  198fsi     O1 2277   2.411   0.180   1.998
  198fsi     O2 2278   2.449   0.276   1.776
  198fsi     S2 2279   2.108   0.118   1.909
  198fsi     O3 2280   2.142   0.036   2.022
  198fsi     O4 2281   1.994   0.076   1.832
  198fsi     F2 2282   2.063   0.255   1.971
  199fsi     F1 2283   1.233   0.848   2.821
  199fsi     S1 2284   1.129   0.890   2.930
  199fsi      N 2285   1.000   0.923   2.846
  199fsi     O1 2286   1.119   0.774   3.014
  199fsi     O2 2287   1.187   1.009   2.987
  199fsi     S2 2288   0.885   0.829   2.798
  199fsi     O3 2289   0.913   0.688   2.802
  199fsi     O4 2290   0.822   0.879   2.679
  199fsi     F2 2291   0.775   0.849   2.909
  200fsi     F1 2292   2.553   0.601   1.184
  200fsi     S1 2293   2.500   0.665   1.317
  200fsi      N 2294   2.597   0.784   1.339
  200fsi     O1 2295   2.365   0.701   1.284
  200fsi     O2 2296   2.519   0.562   1.416
  200fsi     S2 2297   2.611   0.914   1.255
  200fsi     O3 2298   2.516   0.932   1.149
  200fsi     O4 2299   2.748   0.951   1.231
  200fsi     F2 2300   2.563   1.021   1.357
   3.08570   3.08570   3.08570
