simbox
 2300
    1Li      Li    1   0.840   1.015   0.071  0.6284  0.5330 -0.8193
    2Li      Li    2   0.251   2.867   2.034 -0.7745  0.0140 -0.1407
    3Li      Li    3   1.186   1.655   1.107 -0.3868  0.2119  0.4856
    4Li      Li    4   0.738   2.501   1.833 -0.4674 -0.1263  0.8729
    5Li      Li    5   0.384   0.094   0.038  0.3503 -0.3840  0.3256
    6Li      Li    6   2.944   0.473   2.816 -0.6732  0.3873  1.0102
    7Li      Li    7   0.151   1.694   1.129 -0.2175 -0.5951  0.6197
    8Li      Li    8   1.496   2.586   0.761  0.1653  0.1602 -0.8016
    9Li      Li    9   0.197   2.155   0.129 -0.4126  0.2140 -0.6122
   10Li      Li   10   0.144   0.973   1.185 -0.2527 -0.1286  0.6603
   11Li      Li   11   2.160   1.390   1.171  0.2677 -0.7493  0.2525
   12Li      Li   12   2.588   1.099   1.540 -1.0482 -0.1334 -0.2910
   13Li      Li   13   2.935   2.073   2.810 -0.1366  0.0120 -0.6849
   14Li      Li   14   2.293   0.238   0.082  0.1539  0.7908  0.7069
   15Li      Li   15   1.265   0.705   1.708 -0.1407 -0.0784  0.6600
   16Li      Li   16   0.730   1.302   1.231  0.4377  0.6586 -1.3266
   17Li      Li   17   0.178   1.345   1.543  1.2939 -0.1847  0.8545
   18Li      Li   18   0.651   1.722   0.090  0.3415  0.4336 -0.0825
   19Li      Li   19   1.664   2.262   2.274  0.9765  0.9220  0.3534
   20Li      Li   20   0.745   2.557   1.275 -0.4398  0.8469  0.5281
   21Li      Li   21   2.116   2.546   2.169 -1.0896 -0.4713  0.0161
   22Li      Li   22   2.598   0.660   2.722 -0.5094 -0.0096  1.0329
   23Li      Li   23   1.369   0.857   2.698 -0.1268 -0.3736 -0.1082
   24Li      Li   24   0.141   2.176   1.542 -0.5116 -0.8180 -0.0073
   25Li      Li   25   2.803   2.136   0.807 -0.3339  0.2215  1.1273
   26Li      Li   26   2.563   2.853   2.343  0.7704 -1.1468  0.6001
   27Li      Li   27   1.664   1.480   0.682  0.4980  0.3299 -0.9877
   28Li      Li   28   1.986   0.702   2.614  0.7170  0.4384 -0.1196
   29Li      Li   29   0.078   0.165   2.441  0.3477 -0.8245  0.0113
   30Li      Li   30   0.998   2.963   0.041 -0.1807  0.5240 -0.6629
   31Li      Li   31   1.407   1.938   0.368  0.2093  0.3589  0.8039
   32Li      Li   32   0.322   2.151   0.743 -0.5292  0.2202  0.2936
   33Li      Li   33   1.711   2.232   0.352  0.7169  0.3863 -0.0820
   34Li      Li   34   0.552   0.899   1.688 -0.2527  0.1854  0.3049
   35Li      Li   35   2.447   1.692   1.609  1.1272 -0.6358  0.4130
   36Li      Li   36   1.842   0.908   0.881 -0.3466 -0.3763  0.5709
   37Li      Li   37   0.587   0.088   2.734  0.6221 -0.5248  0.1704
   38Li      Li   38   2.554   1.516   0.888  0.3876  0.7591 -0.8915
   39Li      Li   39   0.234   0.774   2.924 -0.4464  0.0469 -0.5804
   40Li      Li   40   1.332   0.996   1.231 -0.6984  0.5332  0.8011
   41Li      Li   41   0.863   1.292   1.815 -0.8509  1.4674  0.1273
   42Li      Li   42   2.874   2.715   1.912 -0.1725 -0.2548  0.1069
   43Li      Li   43   2.972   0.737   1.540 -0.2091  0.7085  0.0816
   44Li      Li   44   0.232   2.758   1.332 -0.3017 -0.6688  0.1102
   45Li      Li   45   1.323   2.930   0.508  0.0386  1.1378 -0.1896
   46Li      Li   46   1.332   1.298   0.144 -0.4603  0.2917 -0.0877
   47Li      Li   47   1.802   1.925   1.801 -0.7157 -0.1931  0.0827
   48Li      Li   48   2.860   1.718   1.586  0.0092 -0.8334 -0.7946
   49Li      Li   49   0.331   1.213   1.951 -0.2236 -0.3019  0.4079
   50Li      Li   50   2.176   2.344   0.615  0.3592  0.1392 -0.1497
   51c3c      N   51   0.970   0.330   2.020 -0.2333 -0.0094 -0.0636
   51c3c     C1   52   0.838   0.367   2.070 -0.0513 -1.1877  0.2809
   51c3c     C2   53   0.970   0.368   1.880 -0.0616 -0.3988  0.0780
   51c3c     C3   54   0.796   0.495   1.996 -0.9785  0.3472 -0.8224
   51c3c     C4   55   0.871   0.489   1.865  0.0029  0.3550  0.0248
   51c3c     C5   56   1.073   0.422   2.077  0.0801  0.4600 -0.9675
   51c3c     C6   57   1.012   0.189   2.047  0.5708  0.7525 -0.3097
   51c3c     H1   58   0.832   0.375   2.178 -0.0598 -2.3350  0.3729
   51c3c     H2   59   0.767   0.291   2.039 -0.3716 -0.8843  0.2721
   51c3c     H3   60   1.065   0.404   1.841  0.1844 -0.2107  0.8531
   51c3c     H4   61   0.943   0.285   1.815 -2.8441 -1.9598  3.0785
   51c3c     H5   62   0.820   0.579   2.061 -0.0354 -1.4187  1.1889
   51c3c     H6   63   0.689   0.498   1.975 -1.3357  0.2664  0.9201
   51c3c     H7   64   0.917   0.588   1.854  1.2952 -0.2170  0.1426
   51c3c     H8   65   0.799   0.479   1.785  1.3774  0.0751 -1.1957
   51c3c     H9   66   1.175   0.397   2.049  0.6400  0.6478  0.8078
   51c3c    H10   67   1.051   0.526   2.056  0.2816  0.9453  1.1286
   51c3c    H11   68   1.082   0.405   2.185  0.3776  1.1842 -0.8751
   51c3c    H12   69   1.109   0.162   2.006  1.6056  0.2889  2.3369
   51c3c    H13   70   1.023   0.173   2.154 -0.3224 -1.4702 -0.5053
   51c3c     C7   71   0.911   0.079   2.000  0.4015  0.4180  0.0923
   51c3c    H14   72   0.897   0.087   1.892  0.0668  3.1158  0.3133
   51c3c    H15   73   0.812   0.094   2.042 -0.3574 -0.1171 -1.4565
   51c3c     C8   74   0.957  -0.063   2.037 -0.3645  0.0982  0.0701
   51c3c    H16   75   1.062  -0.070   2.008 -1.1977 -3.2220 -2.5172
   51c3c    H17   76   0.903  -0.140   1.981  0.2034  1.4946 -2.4981
   51c3c    H18   77   0.954  -0.079   2.144 -3.5728 -2.0290 -0.2771
   52c3c      N   78   1.108   0.435   2.930 -0.3822  0.0728 -0.6141
   52c3c     C1   79   1.104   0.372   3.061 -0.5644 -0.1333  0.0265
   52c3c     C2   80   1.203   0.545   2.955 -0.1926  0.5104 -0.0580
   52c3c     C3   81   1.242   0.374   3.112  0.0816  0.0584 -0.3547
   52c3c     C4   82   1.316   0.489   3.038 -0.2006  0.2142 -0.2505
   52c3c     C5   83   1.165   0.342   2.834 -0.2089 -0.2925  0.7724
   52c3c     C6   84   0.981   0.495   2.883 -0.3920  0.2622  0.8121
   52c3c     H1   85   1.051   0.278   3.045 -0.2518 -0.8490  2.9519
   52c3c     H2   86   1.054   0.433   3.137  0.9211 -1.2490  1.9269
   52c3c     H3   87   1.227   0.588   2.858 -2.7473  0.6291 -0.6581
   52c3c     H4   88   1.177   0.638   3.007 -0.4600 -0.4336  1.5335
   52c3c     H5   89   1.296   0.283   3.087 -1.1118 -0.9589  0.7201
   52c3c     H6   90   1.247   0.405   3.217  0.0493  1.5002 -0.7628
   52c3c     H7   91   1.389   0.443   2.971 -1.1646  0.3022 -1.3745
   52c3c     H8   92   1.365   0.555   3.110  2.3404 -2.3641  0.5140
   52c3c     H9   93   1.102   0.256   2.811  1.7345 -1.1389 -1.6295
   52c3c    H10   94   1.183   0.392   2.739 -0.6911 -1.3915  0.0861
   52c3c    H11   95   1.255   0.292   2.870  0.1938 -1.2177 -1.4436
   52c3c    H12   96   0.987   0.526   2.778 -1.0547 -1.4784  0.2473
   52c3c    H13   97   0.903   0.419   2.885  1.4900 -1.7588 -0.8916
   52c3c     C7   98   0.918   0.606   2.967  0.1099  0.0266  0.7012
   52c3c    H14   99   0.973   0.701   2.966 -3.7411  2.3532  0.3294
   52c3c    H15  100   0.911   0.571   3.070 -0.0130 -1.3251  0.2434
   52c3c     C8  101   0.769   0.634   2.924 -0.0286  0.6757  0.5560
   52c3c    H16  102   0.757   0.647   2.816  0.8887  1.3715  0.5324
   52c3c    H17  103   0.721   0.719   2.971  0.8988  1.1866  0.5959
   52c3c    H18  104   0.713   0.544   2.951  0.5763  0.2783  0.4942
   53c3c      N  105   0.908   1.489   0.620 -0.0426  0.2150 -0.3621
   53c3c     C1  106   0.858   1.374   0.703 -0.5631 -0.5244  0.3563
   53c3c     C2  107   0.797   1.587   0.647  0.0081  0.3266 -0.2558
   53c3c     C3  108   0.707   1.375   0.697 -0.7283  0.0523 -0.2247
   53c3c     C4  109   0.662   1.514   0.657 -0.7332 -0.7500  0.3081
   53c3c     C5  110   1.032   1.546   0.675 -0.4491 -0.7339 -0.4771
   53c3c     C6  111   0.925   1.460   0.474 -0.6393 -0.0340  0.2171
   53c3c     H1  112   0.882   1.391   0.808 -2.2070 -2.8399  1.1278
   53c3c     H2  113   0.908   1.278   0.695 -1.0188 -0.8877  1.7181
   53c3c     H3  114   0.821   1.641   0.738 -1.3861  1.8270 -0.7453
   53c3c     H4  115   0.791   1.664   0.569  0.8479 -0.2380 -0.8887
   53c3c     H5  116   0.662   1.344   0.791 -0.7490 -2.4588 -1.0210
   53c3c     H6  117   0.683   1.304   0.618  0.9604 -0.1281 -0.6013
   53c3c     H7  118   0.593   1.552   0.733  0.5639  0.7681  0.7683
   53c3c     H8  119   0.612   1.513   0.561 -2.2360  0.6053  1.0556
   53c3c     H9  120   1.121   1.485   0.661  0.3024 -0.0860  1.2592
   53c3c    H10  121   1.056   1.646   0.638  0.4337  0.3394  2.8434
   53c3c    H11  122   1.022   1.549   0.784  1.1999 -2.0539 -0.2704
   53c3c    H12  123   0.958   1.558   0.438  0.6838  0.0189  1.5304
   53c3c    H13  124   1.001   1.382   0.475 -0.3367  0.1367 -3.1449
   53c3c     C7  125   0.811   1.421   0.376  0.5047  0.0676  0.0820
   53c3c    H14  126   0.730   1.494   0.380  1.1964  0.8276  0.3367
   53c3c    H15  127   0.776   1.319   0.387 -2.7566  0.8827 -2.0763
   53c3c     C8  128   0.856   1.428   0.234  0.6422 -0.2628  0.3412
   53c3c    H16  129   0.961   1.398   0.230  0.6374 -0.4173  1.3100
   53c3c    H17  130   0.846   1.523   0.180 -0.2683 -1.0667 -0.9241
   53c3c    H18  131   0.796   1.361   0.173  0.6871 -1.2376  1.3625
   54c3c      N  132   1.335   0.249   1.230  0.4096  0.5587  0.1188
   54c3c     C1  133   1.417   0.160   1.140 -0.5218 -0.2706  0.2717
   54c3c     C2  134   1.231   0.304   1.136 -0.4316 -1.0351 -0.3286
   54c3c     C3  135   1.320   0.114   1.027  0.5186 -0.2602  0.2496
   54c3c     C4  136   1.182   0.189   1.052  0.4964  0.2558  0.1472
   54c3c     C5  137   1.275   0.162   1.332 -0.2432  0.5162  0.3944
   54c3c     C6  138   1.409   0.363   1.293 -0.0205  0.8686 -0.0046
   54c3c     H1  139   1.449   0.067   1.188 -1.4125 -1.7401 -1.8874
   54c3c     H2  140   1.508   0.201   1.097 -0.8925 -0.0486 -0.3062
   54c3c     H3  141   1.142   0.346   1.182  1.1939 -0.0508  1.9843
   54c3c     H4  142   1.270   0.371   1.060 -2.3502 -0.2401 -0.6374
   54c3c     H5  143   1.300   0.006   1.026  3.4490 -0.8629  1.6806
   54c3c     H6  144   1.348   0.137   0.925 -2.0194 -1.2713 -0.7213
   54c3c     H7  145   1.117   0.128   1.114 -0.4185 -0.9214 -1.8955
   54c3c     H8  146   1.127   0.213   0.961  1.2114  0.2698 -0.2889
   54c3c     H9  147   1.343   0.129   1.410  0.1606 -0.1699 -0.2363
   54c3c    H10  148   1.198   0.224   1.377  0.6734  2.0150 -0.0187
   54c3c    H11  149   1.249   0.067   1.285 -0.5322  2.3235 -3.2739
   54c3c    H12  150   1.342   0.413   1.363  0.0048  0.5583  0.2435
   54c3c    H13  151   1.481   0.325   1.366 -1.2352  2.1119  1.9086
   54c3c     C7  152   1.474   0.463   1.198 -0.2018  0.1697  0.1906
   54c3c    H14  153   1.384   0.505   1.154 -0.3770  2.1907  2.3834
   54c3c    H15  154   1.543   0.427   1.122 -0.1321  1.1890 -0.2418
   54c3c     C8  155   1.558   0.575   1.258  0.4450  0.2321 -0.1829
   54c3c    H16  156   1.654   0.538   1.293 -0.7121 -2.8772 -0.1277
   54c3c    H17  157   1.509   0.631   1.338 -0.9970 -1.4577  0.1672
   54c3c    H18  158   1.584   0.640   1.174 -1.1637  0.6666 -0.3692
   55c3c      N  159   0.483   1.494   2.647 -0.4526  0.4064  0.0872
   55c3c     C1  160   0.528   1.497   2.789 -0.5923 -0.2520 -0.4284
   55c3c     C2  161   0.607   1.443   2.585  0.6789  0.6467  0.0984
   55c3c     C3  162   0.621   1.378   2.812 -0.2736 -0.3747  0.4706
   55c3c     C4  163   0.664   1.332   2.677 -0.1021  0.4270  0.2534
   55c3c     C5  164   0.375   1.397   2.625  0.5512 -1.0730  0.5086
   55c3c     C6  165   0.425   1.620   2.598 -0.2427  0.2702  0.0495
   55c3c     H1  166   0.444   1.507   2.858 -0.3998  0.7721 -0.3399
   55c3c     H2  167   0.578   1.590   2.813 -2.2408 -0.1459  2.8365
   55c3c     H3  168   0.583   1.403   2.487 -1.1143 -0.1613  0.8537
   55c3c     H4  169   0.681   1.522   2.571 -0.3448  1.2492 -2.1350
   55c3c     H5  170   0.567   1.308   2.875  0.6021 -0.9364  0.6077
   55c3c     H6  171   0.705   1.398   2.879 -1.2995  0.0790  1.6296
   55c3c     H7  172   0.622   1.233   2.664  2.1499 -0.5955  0.5639
   55c3c     H8  173   0.772   1.321   2.689  0.2089  1.7998 -1.0026
   55c3c     H9  174   0.292   1.421   2.691 -0.9143  1.9064 -2.2476
   55c3c    H10  175   0.340   1.385   2.522  1.7290 -0.3812  0.0133
   55c3c    H11  176   0.402   1.295   2.653 -1.1002 -1.1348  1.9085
   55c3c    H12  177   0.405   1.609   2.491 -0.0813 -0.1293  0.0614
   55c3c    H13  178   0.327   1.637   2.641  0.2190  0.6207  0.9892
   55c3c     C7  179   0.494   1.760   2.627  0.5808 -0.1592  0.4152
   55c3c    H14  180   0.593   1.760   2.582 -0.2489 -0.0820 -1.4423
   55c3c    H15  181   0.500   1.774   2.735 -0.1526 -0.7428  0.5288
   55c3c     C8  182   0.420   1.874   2.557  0.2837  0.1514  0.4339
   55c3c    H16  183   0.483   1.963   2.565 -1.1903  1.5253 -2.1784
   55c3c    H17  184   0.337   1.901   2.623  0.6046  1.9036  0.1631
   55c3c    H18  185   0.391   1.865   2.452  1.9599  0.7599 -0.0910
   56c3c      N  186   2.445   0.906   0.241 -0.1575  0.5502  0.6621
   56c3c     C1  187   2.554   0.845   0.174  0.0613  0.3184  0.0125
   56c3c     C2  188   2.478   0.898   0.382  0.0505 -0.1727 -0.0404
   56c3c     C3  189   2.674   0.888   0.243 -0.1592  0.4278 -0.6983
   56c3c     C4  190   2.630   0.915   0.388  0.0635  0.4116 -0.1097
   56c3c     C5  191   2.444   1.052   0.203  0.4776 -0.2609 -0.0051
   56c3c     C6  192   2.306   0.852   0.219  0.5067 -0.5003 -0.0080
   56c3c     H1  193   2.558   0.859   0.066 -1.2963  1.1008  0.0540
   56c3c     H2  194   2.549   0.738   0.194 -0.2563  0.0116 -1.6472
   56c3c     H3  195   2.422   0.973   0.437 -1.1921 -0.2844 -1.1194
   56c3c     H4  196   2.453   0.805   0.432 -1.4814  1.6264  2.6951
   56c3c     H5  197   2.710   0.988   0.217  0.7715  0.4744  0.7092
   56c3c     H6  198   2.754   0.815   0.235  0.2741  0.6740  1.2014
   56c3c     H7  199   2.652   1.020   0.410  0.1991  0.1811  0.8966
   56c3c     H8  200   2.679   0.851   0.461  2.2144  0.7012 -1.2566
   56c3c     H9  201   2.406   1.067   0.102 -1.3578  0.3739  0.7643
   56c3c    H10  202   2.369   1.104   0.262 -1.1805 -1.5144 -0.9794
   56c3c    H11  203   2.543   1.096   0.215  0.3640  0.3606 -1.2510
   56c3c    H12  204   2.239   0.903   0.287  0.5216 -0.7309  0.1808
   56c3c    H13  205   2.266   0.873   0.120 -2.9002  2.2664  1.8766
   56c3c     C7  206   2.283   0.704   0.249 -0.4986  0.2306 -0.7693
   56c3c    H14  207   2.321   0.667   0.344  0.0722 -0.7608 -1.3806
   56c3c    H15  208   2.341   0.658   0.169  1.0353  1.9085 -0.6425
   56c3c     C8  209   2.134   0.669   0.248  0.5517  0.1119 -0.6147
   56c3c    H16  210   2.120   0.560   0.247 -1.1229  0.3172 -0.8585
   56c3c    H17  211   2.077   0.699   0.160 -1.0396 -0.4380  0.1981
   56c3c    H18  212   2.090   0.710   0.339  1.8334 -0.2964  0.2040
   57c3c      N  213   0.873   2.235   0.425 -0.4447 -0.2920  0.0175
   57c3c     C1  214   0.995   2.145   0.422 -0.1454  0.5439  0.1409
   57c3c     C2  215   0.778   2.150   0.495  0.0125 -0.4182  0.3772
   57c3c     C3  216   0.995   2.067   0.550  1.0181  0.5786  0.3032
   57c3c     C4  217   0.851   2.066   0.598  0.5647 -0.3368  0.1382
   57c3c     C5  218   0.899   2.346   0.516 -0.1080  0.0565  0.5889
   57c3c     C6  219   0.835   2.297   0.297  0.9134  0.1278 -0.1075
   57c3c     H1  220   1.088   2.200   0.408  0.6317 -1.0367 -0.9596
   57c3c     H2  221   0.988   2.071   0.343  2.4383 -0.6802  1.0006
   57c3c     H3  222   0.699   2.205   0.545  2.0181  0.1734  3.0187
   57c3c     H4  223   0.740   2.079   0.422 -0.9652  1.0585 -0.5756
   57c3c     H5  224   1.066   2.119   0.614 -0.1824  1.2824  1.0867
   57c3c     H6  225   1.029   1.963   0.542 -1.9596 -0.3546 -1.2143
   57c3c     H7  226   0.850   2.110   0.698 -0.3946  1.3278 -0.5830
   57c3c     H8  227   0.811   1.965   0.602 -0.2621 -0.0136  0.1565
   57c3c     H9  228   0.970   2.417   0.474  1.4590 -1.3072  0.8969
   57c3c    H10  229   0.813   2.409   0.540 -0.3967 -0.1184  0.0172
   57c3c    H11  230   0.953   2.310   0.603  3.0245 -1.3147 -1.8063
   57c3c    H12  231   0.746   2.357   0.313  0.0316 -0.8440 -1.2565
   57c3c    H13  232   0.909   2.365   0.254 -0.3929  1.4423 -0.2949
   57c3c     C7  233   0.797   2.195   0.183 -0.3730 -0.3078 -0.7894
   57c3c    H14  234   0.705   2.144   0.211 -0.9927  1.5589  0.6885
   57c3c    H15  235   0.864   2.110   0.173 -1.2840 -0.9079 -1.9356
   57c3c     C8  236   0.765   2.273   0.053 -0.3554 -0.1825  0.2184
   57c3c    H16  237   0.848   2.329   0.011  0.7568 -2.4229 -0.6071
   57c3c    H17  238   0.682   2.343   0.065  0.0539  0.2680  0.4814
   57c3c    H18  239   0.754   2.207  -0.033 -0.0027  1.4153 -1.0682
   58c3c      N  240   0.644   0.079   1.516 -0.0013 -0.6556 -0.2115
   58c3c     C1  241   0.527   0.040   1.432 -0.1806 -0.3610 -0.1320
   58c3c     C2  242   0.586   0.187   1.598 -0.8497 -0.5534 -0.1526
   58c3c     C3  243   0.400   0.063   1.516 -0.0414 -0.0346  0.6234
   58c3c     C4  244   0.441   0.149   1.634 -0.9902 -0.3986 -0.4835
   58c3c     C5  245   0.687  -0.027   1.605 -0.1982 -0.3121  0.6491
   58c3c     C6  246   0.760   0.116   1.437 -0.1972 -0.4628  0.6441
   58c3c     H1  247   0.546  -0.062   1.399 -0.3138 -0.2634 -0.5191
   58c3c     H2  248   0.521   0.096   1.338  0.8340 -1.3940 -0.8205
   58c3c     H3  249   0.649   0.227   1.677  2.2332 -1.5948 -1.9869
   58c3c     H4  250   0.567   0.272   1.533  1.0114 -0.8730 -1.1642
   58c3c     H5  251   0.369  -0.034   1.555 -1.6775 -0.5235 -1.7600
   58c3c     H6  252   0.321   0.119   1.465  0.0347  1.3119  1.9374
   58c3c     H7  253   0.435   0.086   1.723  1.3880 -1.0903 -0.7847
   58c3c     H8  254   0.380   0.238   1.652 -0.1406 -0.3804  2.5173
   58c3c     H9  255   0.702  -0.124   1.558 -3.0850 -0.8287  0.7292
   58c3c    H10  256   0.776  -0.007   1.665  0.0363 -0.6084  0.4021
   58c3c    H11  257   0.604  -0.058   1.669 -0.6997  0.1166  0.2061
   58c3c    H12  258   0.840   0.135   1.508 -0.4783 -1.1637  1.1562
   58c3c    H13  259   0.806   0.032   1.385  1.3576  0.2955  0.7635
   58c3c     C7  260   0.747   0.248   1.349 -0.1314  0.3957 -0.0094
   58c3c    H14  261   0.735   0.339   1.408 -0.3443  0.0184  0.5201
   58c3c    H15  262   0.665   0.234   1.278 -0.3824  0.6209  0.2375
   58c3c     C8  263   0.868   0.276   1.262 -0.4264  0.6159 -0.3054
   58c3c    H16  264   0.855   0.363   1.198 -0.1436  0.7281 -0.2120
   58c3c    H17  265   0.886   0.189   1.199 -0.4933  0.8364 -0.6235
   58c3c    H18  266   0.953   0.281   1.330  0.9050  0.8236 -1.9589
   59c3c      N  267   1.290   2.153   1.295 -0.1679  0.0057  0.0408
   59c3c     C1  268   1.278   2.301   1.269  0.0365  0.3094  0.1005
   59c3c     C2  269   1.154   2.110   1.337  0.6458 -0.2079 -0.5385
   59c3c     C3  270   1.149   2.308   1.200  0.0137  0.0484  0.5776
   59c3c     C4  271   1.072   2.181   1.233 -0.2462  0.5772 -0.1129
   59c3c     C5  272   1.326   2.088   1.172 -0.2879 -0.2192  0.9387
   59c3c     C6  273   1.396   2.118   1.399  0.2399  0.1849 -0.4834
   59c3c     H1  274   1.357   2.347   1.210  0.2034 -1.2694 -0.9438
   59c3c     H2  275   1.268   2.351   1.365  0.5587 -0.3366  0.4946
   59c3c     H3  276   1.147   2.001   1.345  2.4686 -0.4497 -2.0335
   59c3c     H4  277   1.128   2.155   1.433  0.7972 -1.9359  0.3362
   59c3c     H5  278   1.157   2.321   1.092 -0.0727  0.6010  0.6379
   59c3c     H6  279   1.094   2.399   1.223  1.3100  1.2409 -0.9778
   59c3c     H7  280   1.062   2.112   1.149 -2.0508 -1.6181  1.8143
   59c3c     H8  281   0.971   2.204   1.269 -0.8562 -2.3749  0.1806
   59c3c     H9  282   1.422   2.123   1.134 -0.0963 -0.4260  1.2328
   59c3c    H10  283   1.336   1.982   1.195 -0.0244 -0.1989  0.9133
   59c3c    H11  284   1.270   2.099   1.079  0.3396 -0.5564  0.5152
   59c3c    H12  285   1.413   2.011   1.399  0.6717  0.2355 -2.4069
   59c3c    H13  286   1.490   2.156   1.359  0.3858 -0.1224 -0.4271
   59c3c     C7  287   1.386   2.189   1.537 -0.3719  0.7302  0.0666
   59c3c    H14  288   1.291   2.176   1.588  1.0281  1.1619  2.9033
   59c3c    H15  289   1.407   2.296   1.533  1.8741  0.3437  0.5837
   59c3c     C8  290   1.489   2.114   1.628  0.4191  0.0478 -1.1409
   59c3c    H16  291   1.460   2.011   1.650 -1.6211  0.5146 -1.5673
   59c3c    H17  292   1.491   2.176   1.718  0.2188 -1.2101 -0.2423
   59c3c    H18  293   1.592   2.108   1.595  0.7081 -0.3305 -0.2042
   60c3c      N  294   2.321   1.759   2.110  0.5288 -0.1745  0.6715
   60c3c     C1  295   2.234   1.726   2.221 -0.3068  0.0021  0.2445
   60c3c     C2  296   2.443   1.795   2.182  0.2123  0.1787 -0.1468
   60c3c     C3  297   2.317   1.640   2.314  0.4614  0.0910  0.2311
   60c3c     C4  298   2.459   1.689   2.294 -0.4730 -0.6829  0.8779
   60c3c     C5  299   2.340   1.637   2.025  0.4801 -0.4923 -0.5545
   60c3c     C6  300   2.266   1.864   2.019  0.1841 -0.4539 -0.5022
   60c3c     H1  301   2.146   1.681   2.176 -0.2300  1.5753 -1.5499
   60c3c     H2  302   2.206   1.810   2.285  0.6627  1.0213 -0.6399
   60c3c     H3  303   2.531   1.787   2.118 -0.0548 -1.8940 -0.2702
   60c3c     H4  304   2.441   1.894   2.228  3.5489  1.3301 -2.3082
   60c3c     H5  305   2.307   1.533   2.297 -1.5858  0.2956  0.0207
   60c3c     H6  306   2.278   1.655   2.415  0.5263  3.9510 -0.2336
   60c3c     H7  307   2.539   1.620   2.266 -0.1513  0.4373 -1.0105
   60c3c     H8  308   2.487   1.725   2.393 -1.4528 -0.9905  1.2678
   60c3c     H9  309   2.246   1.608   1.979 -0.5954  2.5430 -0.4098
   60c3c    H10  310   2.415   1.663   1.950  1.3759  0.9573  0.8103
   60c3c    H11  311   2.381   1.543   2.062  0.5969 -0.7714 -1.3640
   60c3c    H12  312   2.342   1.882   1.943 -1.3065  1.9903 -1.4836
   60c3c    H13  313   2.177   1.828   1.966 -0.4891 -1.3139  1.1902
   60c3c     C7  314   2.234   2.009   2.066  0.6707 -0.6853 -0.1088
   60c3c    H14  315   2.313   2.049   2.130 -0.2856 -0.2207  0.7957
   60c3c    H15  316   2.154   2.008   2.140 -0.2544 -0.6671 -1.1017
   60c3c     C8  317   2.221   2.116   1.952  0.4217  0.3724  0.6259
   60c3c    H16  318   2.310   2.110   1.890 -0.6668  2.3675 -1.1955
   60c3c    H17  319   2.203   2.210   2.003 -0.6826 -0.1951  1.3030
   60c3c    H18  320   2.133   2.087   1.894  0.8255 -0.4610  0.4183
   61c3c      N  321   0.300   2.647   0.381 -0.4918  0.2410 -0.7594
   61c3c     C1  322   0.283   2.551   0.270 -0.8685 -0.1075 -0.1627
   61c3c     C2  323   0.441   2.639   0.403 -0.7210 -0.3876 -0.6634
   61c3c     C3  324   0.396   2.578   0.179  0.0808 -0.1774  0.2045
   61c3c     C4  325   0.509   2.614   0.274  0.9856 -0.2123  0.0552
   61c3c     C5  326   0.263   2.782   0.338  0.4524 -0.4421  0.7754
   61c3c     C6  327   0.221   2.614   0.497 -0.0941 -0.3559  0.0481
   61c3c     H1  328   0.188   2.552   0.216 -0.5066  0.9065 -0.7956
   61c3c     H2  329   0.288   2.449   0.309 -1.6334 -1.6138 -3.7882
   61c3c     H3  330   0.484   2.722   0.460  0.9454 -1.5974 -0.1146
   61c3c     H4  331   0.457   2.545   0.456 -1.3518 -0.6331 -0.9112
   61c3c     H5  332   0.373   2.653   0.104 -0.1116  0.6637  1.0979
   61c3c     H6  333   0.405   2.484   0.123 -0.7514  0.2503 -0.6466
   61c3c     H7  334   0.562   2.702   0.237 -2.0499  1.1084 -1.3212
   61c3c     H8  335   0.572   2.527   0.290  0.2745 -0.4510  1.5951
   61c3c     H9  336   0.156   2.793   0.318  0.2562  0.0304  2.0283
   61c3c    H10  337   0.288   2.851   0.418  2.9071  0.3398 -0.6212
   61c3c    H11  338   0.300   2.815   0.241 -2.5449  1.9382  0.3519
   61c3c    H12  339   0.227   2.685   0.579 -1.1857  0.1313 -0.2848
   61c3c    H13  340   0.116   2.617   0.468 -0.3800 -2.4706  0.7774
   61c3c     C7  341   0.227   2.470   0.564  0.0671  0.2332 -0.6906
   61c3c    H14  342   0.323   2.418   0.567  0.2334  0.6324  2.0957
   61c3c    H15  343   0.156   2.409   0.508 -2.0660 -0.3251  2.5077
   61c3c     C8  344   0.159   2.461   0.699 -0.1351 -0.1822 -0.5298
   61c3c    H16  345   0.153   2.358   0.735 -0.7353 -0.3975 -1.2289
   61c3c    H17  346   0.056   2.497   0.700 -0.0674  0.0118  0.3889
   61c3c    H18  347   0.218   2.518   0.771 -0.9761 -0.5644  0.4751
   62c3c      N  348   2.440   1.763   0.370 -0.3489  0.6045 -0.5783
   62c3c     C1  349   2.385   1.891   0.327  0.1049 -0.1525  0.3837
   62c3c     C2  350   2.442   1.776   0.519  1.4856 -0.6943 -0.0663
   62c3c     C3  351   2.277   1.922   0.430 -0.4354  0.1689  0.3958
   62c3c     C4  352   2.307   1.830   0.553  0.1155  0.1744 -0.5716
   62c3c     C5  353   2.340   1.656   0.338 -0.4414 -0.1020  0.1737
   62c3c     C6  354   2.565   1.735   0.306  0.0384 -0.3005  0.5516
   62c3c     H1  355   2.327   1.878   0.236 -0.6887  0.8916  0.7274
   62c3c     H2  356   2.453   1.976   0.317  2.7436 -2.2454 -0.2368
   62c3c     H3  357   2.463   1.679   0.565  1.0395 -0.8640 -0.2131
   62c3c     H4  358   2.511   1.849   0.559  1.4164 -1.6323  1.8117
   62c3c     H5  359   2.179   1.883   0.403  0.0597 -0.2786 -0.7972
   62c3c     H6  360   2.273   2.026   0.463  1.6108  0.5960 -0.6313
   62c3c     H7  361   2.235   1.750   0.566 -0.4617  0.5037 -1.6538
   62c3c     H8  362   2.309   1.882   0.648  2.3367 -1.6285  0.4264
   62c3c     H9  363   2.238   1.673   0.372  0.1355 -0.4464  2.1328
   62c3c    H10  364   2.337   1.654   0.229 -2.5645  2.2878  0.1277
   62c3c    H11  365   2.386   1.569   0.385  0.9831  0.5772  0.0782
   62c3c    H12  366   2.603   1.642   0.348  0.6048  1.0759  3.2382
   62c3c    H13  367   2.542   1.707   0.203  0.5431 -0.9015  0.5997
   62c3c     C7  368   2.684   1.841   0.301  0.7079  0.4362 -0.7399
   62c3c    H14  369   2.695   1.891   0.398 -3.2247  2.1765 -1.1027
   62c3c    H15  370   2.653   1.923   0.237  0.7725  2.8078  2.1450
   62c3c     C8  371   2.819   1.801   0.249  0.0649  0.0234  0.1196
   62c3c    H16  372   2.865   1.727   0.314  1.3137  0.4118 -0.3159
   62c3c    H17  373   2.892   1.882   0.248  1.3466 -1.1177 -1.0537
   62c3c    H18  374   2.810   1.749   0.154  0.8220  0.0617  0.0227
   63c3c      N  375   0.814   0.901   2.415 -0.5959 -0.7421  0.1923
   63c3c     C1  376   0.928   0.906   2.326  0.1589 -0.6195 -0.6936
   63c3c     C2  377   0.871   0.943   2.550  0.0622 -0.3650 -0.0331
   63c3c     C3  378   1.020   1.026   2.381  0.7190  0.6343 -0.1672
   63c3c     C4  379   0.983   1.049   2.529 -0.1196  0.4397  0.2950
   63c3c     C5  380   0.727   1.020   2.381 -0.4504 -0.1742 -0.2311
   63c3c     C6  381   0.721   0.787   2.417 -0.2573 -0.2470 -0.7923
   63c3c     H1  382   0.899   0.906   2.221 -2.8269 -1.7333  0.0736
   63c3c     H2  383   0.989   0.816   2.337  1.1793  0.1856  0.3281
   63c3c     H3  384   0.798   0.985   2.619 -0.9513  0.2987 -1.5049
   63c3c     H4  385   0.905   0.857   2.608 -0.9633  0.6020  2.0982
   63c3c     H5  386   0.982   1.117   2.336  1.6633  0.3939 -1.4928
   63c3c     H6  387   1.126   1.021   2.354  1.0117 -2.5865  1.3177
   63c3c     H7  388   0.957   1.155   2.535 -0.7864  0.1996  1.7145
   63c3c     H8  389   1.066   1.023   2.595  1.5820  0.9623 -1.5565
   63c3c     H9  390   0.689   0.999   2.281  0.1982 -0.9704 -0.3080
   63c3c    H10  391   0.635   1.031   2.438 -0.9616 -2.8650 -0.5034
   63c3c    H11  392   0.783   1.114   2.381 -2.2018  0.9081  0.6884
   63c3c    H12  393   0.663   0.814   2.505  0.7249  1.3261 -0.5972
   63c3c    H13  394   0.660   0.789   2.326  1.1227  0.5192 -1.7212
   63c3c     C7  395   0.779   0.646   2.431  0.4794  0.3607  0.1228
   63c3c    H14  396   0.816   0.636   2.533 -1.0085  2.9256  0.9591
   63c3c    H15  397   0.860   0.631   2.360 -0.3463 -0.9186 -0.5700
   63c3c     C8  398   0.675   0.534   2.413 -0.1603 -0.4404 -0.0333
   63c3c    H16  399   0.610   0.533   2.501 -0.5156  2.2990 -0.2253
   63c3c    H17  400   0.707   0.437   2.374 -0.9710 -0.0387 -1.7519
   63c3c    H18  401   0.598   0.577   2.349 -0.1490  1.1834  1.0024
   64c3c      N  402   2.906   1.113   2.216 -0.0021  0.0639 -0.2265
   64c3c     C1  403   2.873   1.050   2.340  1.2029 -0.1592  0.6170
   64c3c     C2  404   2.988   1.231   2.259  1.5240 -0.3733  0.5309
   64c3c     C3  405   3.006   1.051   2.415 -0.0391 -1.2527  0.4956
   64c3c     C4  406   3.078   1.174   2.363 -0.4860  0.2404  0.9167
   64c3c     C5  407   2.987   1.026   2.130  0.6666 -0.5220  0.1070
   64c3c     C6  408   2.785   1.152   2.145 -0.2502 -0.6851  0.6099
   64c3c     H1  409   2.808   0.964   2.323 -2.6228  2.7488  0.1521
   64c3c     H2  410   2.801   1.100   2.404 -2.2111 -1.6927 -1.9084
   64c3c     H3  411   3.043   1.264   2.170 -0.1528 -2.9604 -1.5410
   64c3c     H4  412   2.924   1.303   2.310  1.9676  0.6490 -0.3369
   64c3c     H5  413   3.069   0.963   2.400  1.6196  0.2277 -1.6279
   64c3c     H6  414   2.990   1.059   2.522 -0.8708  2.2246  0.1769
   64c3c     H7  415   3.171   1.147   2.313  0.6305  0.8119  2.6560
   64c3c     H8  416   3.083   1.246   2.445  0.7319 -1.4619  2.3599
   64c3c     H9  417   2.920   0.945   2.102 -0.6221  1.1715 -1.8791
   64c3c    H10  418   3.013   1.091   2.046  1.6008  0.9391  1.4913
   64c3c    H11  419   3.079   0.988   2.174 -0.2651 -0.0404  2.5468
   64c3c    H12  420   2.810   1.174   2.042 -0.4092  1.0381  0.9272
   64c3c    H13  421   2.727   1.059   2.136 -2.6822  0.7493  1.0360
   64c3c     C7  422   2.699   1.262   2.209  0.0286 -0.0479 -0.2848
   64c3c    H14  423   2.761   1.352   2.211  0.3255 -0.2351 -1.0234
   64c3c    H15  424   2.669   1.243   2.312  0.5219  0.6072 -0.0124
   64c3c     C8  425   2.579   1.294   2.118  0.1768 -0.2000  0.0121
   64c3c    H16  426   2.608   1.292   2.013  0.5719 -1.3319  0.1360
   64c3c    H17  427   2.543   1.396   2.135  0.1817  0.2878 -2.6843
   64c3c    H18  428   2.492   1.229   2.128 -0.7405  0.7365 -1.6487
   65c3c      N  429   0.858   2.793   0.785  0.5791 -0.1767  0.6187
   65c3c     C1  430   0.866   2.733   0.919 -0.4749 -0.3735 -0.4514
   65c3c     C2  431   0.991   2.806   0.736 -0.7411 -0.3711  0.0043
   65c3c     C3  432   0.978   2.628   0.902 -0.2606  0.1899 -0.1527
   65c3c     C4  433   1.067   2.687   0.787 -0.0012  0.1279  1.2000
   65c3c     C5  434   0.776   2.705   0.695 -0.1828  0.2617 -0.1484
   65c3c     C6  435   0.784   2.917   0.792  0.1901  0.4078 -0.0453
   65c3c     H1  436   0.774   2.682   0.949 -0.0294 -1.1399 -0.3523
   65c3c     H2  437   0.900   2.803   0.995  1.8206 -0.7988 -1.0310
   65c3c     H3  438   0.984   2.826   0.629  0.4018 -0.6676 -0.1321
   65c3c     H4  439   1.045   2.894   0.773 -1.3748 -0.5177  1.2905
   65c3c     H5  440   0.944   2.527   0.877 -0.6342  0.2664  0.0430
   65c3c     H6  441   1.031   2.618   0.997 -2.9494  0.6603  1.4531
   65c3c     H7  442   1.069   2.609   0.712 -2.4463  0.4084  0.8064
   65c3c     H8  443   1.173   2.697   0.808  0.0532 -3.9195  3.3293
   65c3c     H9  444   0.681   2.683   0.743  0.2824 -2.4600 -0.4346
   65c3c    H10  445   0.753   2.746   0.597  1.3036  1.3926 -0.0375
   65c3c    H11  446   0.810   2.602   0.681  1.2821  0.6278  0.5810
   65c3c    H12  447   0.727   2.929   0.700 -1.0856  0.6295  0.7677
   65c3c    H13  448   0.706   2.913   0.867  0.3091 -0.8628  0.0308
   65c3c     C7  449   0.857   3.044   0.825  0.7586 -0.0866  1.0007
   65c3c    H14  450   0.921   3.065   0.740 -0.2472  2.9145  0.9179
   65c3c    H15  451   0.919   3.031   0.914  0.8683  1.2752  1.1254
   65c3c     C8  452   0.766   3.170   0.847  0.3390 -0.8169  0.1581
   65c3c    H16  453   0.829   3.244   0.896 -1.3267 -0.2102  1.4067
   65c3c    H17  454   0.683   3.149   0.915 -0.6005  1.3275 -0.3174
   65c3c    H18  455   0.722   3.211   0.756 -0.7250 -1.2841  0.4491
   66c3c      N  456   0.506   0.700   0.384 -0.0946  0.7425  0.5532
   66c3c     C1  457   0.525   0.713   0.238 -0.4923  0.3119 -0.2071
   66c3c     C2  458   0.410   0.591   0.405 -0.1980  0.4396  0.1973
   66c3c     C3  459   0.489   0.577   0.177  0.1082  0.6565 -0.3741
   66c3c     C4  460   0.454   0.485   0.297  0.7081 -0.5645  0.3988
   66c3c     C5  461   0.635   0.666   0.449  0.0120 -0.5353  0.6320
   66c3c     C6  462   0.447   0.829   0.428 -0.4381 -0.1264 -0.2028
   66c3c     H1  463   0.627   0.744   0.214  0.7893 -3.1511  0.4214
   66c3c     H2  464   0.459   0.786   0.192 -3.1165 -0.8430  1.5751
   66c3c     H3  465   0.395   0.544   0.502  1.7086 -1.2333 -0.2936
   66c3c     H4  466   0.313   0.633   0.376 -0.7211 -1.2595 -0.6195
   66c3c     H5  467   0.568   0.528   0.120 -0.7204  0.4868 -1.3928
   66c3c     H6  468   0.400   0.581   0.115  0.4479 -0.8431 -0.9897
   66c3c     H7  469   0.532   0.412   0.320  0.0477 -1.6941 -0.8881
   66c3c     H8  470   0.372   0.414   0.282 -2.8946  3.1151  1.8448
   66c3c     H9  471   0.701   0.753   0.449  0.1561 -0.6286 -0.6852
   66c3c    H10  472   0.616   0.648   0.555 -0.4531 -0.2246  0.6005
   66c3c    H11  473   0.683   0.576   0.411 -2.4569 -1.4416 -0.4060
   66c3c    H12  474   0.515   0.910   0.400  0.1086 -1.0842 -1.7317
   66c3c    H13  475   0.353   0.860   0.383 -1.8583 -0.9687  2.1000
   66c3c     C7  476   0.413   0.842   0.575  0.5593 -0.4861  0.1862
   66c3c    H14  477   0.500   0.836   0.640 -0.0299  0.3643  1.0721
   66c3c    H15  478   0.342   0.763   0.601  1.2205 -1.5095 -1.0813
   66c3c     C8  479   0.349   0.976   0.616 -0.4201  0.2527  0.1402
   66c3c    H16  480   0.306   0.975   0.716 -0.4161 -0.8468  0.1278
   66c3c    H17  481   0.264   1.006   0.555  0.0499  2.5857  0.5661
   66c3c    H18  482   0.433   1.046   0.609  1.2636 -1.8885 -1.8293
   67c3c      N  483   2.929   1.415   2.822 -0.0242  0.4218  0.1587
   67c3c     C1  484   2.995   1.299   2.763 -0.1318  0.4912  0.1885
   67c3c     C2  485   2.886   1.379   2.954  1.1363  0.3811 -0.2891
   67c3c     C3  486   3.042   1.214   2.886  0.0855  0.3308  0.6310
   67c3c     C4  487   2.992   1.289   3.009 -0.1953 -0.0312 -0.0281
   67c3c     C5  488   3.029   1.522   2.828 -0.6622  0.0931 -0.0223
   67c3c     C6  489   2.827   1.470   2.733  0.1573 -0.1559 -0.5625
   67c3c     H1  490   3.072   1.326   2.690 -0.1583  0.6389  0.2155
   67c3c     H2  491   2.926   1.239   2.705  1.3434 -1.7813  0.7313
   67c3c     H3  492   2.855   1.455   3.026  0.6017 -1.4523  1.4620
   67c3c     H4  493   2.791   1.327   2.957  1.4528 -0.1167  1.3704
   67c3c     H5  494   3.150   1.202   2.885  0.1203  0.6528 -1.5046
   67c3c     H6  495   3.010   1.110   2.897 -1.1015  0.7068  0.8184
   67c3c     H7  496   3.070   1.346   3.061 -0.5584 -0.0056  0.4961
   67c3c     H8  497   2.939   1.222   3.076  1.7489 -2.3890 -0.7928
   67c3c     H9  498   3.064   1.560   2.732  1.1914  0.6658  0.8507
   67c3c    H10  499   2.993   1.604   2.889  2.2319  0.9011  0.6910
   67c3c    H11  500   3.124   1.474   2.852 -1.8451 -2.1408  0.3146
   67c3c    H12  501   2.797   1.566   2.774  1.5086  0.2883 -0.5850
   67c3c    H13  502   2.868   1.497   2.636  0.6570  0.8266 -0.0811
   67c3c     C7  503   2.698   1.396   2.699  1.0642  0.0998  0.1096
   67c3c    H14  504   2.641   1.385   2.792 -0.0435 -0.0583 -0.5738
   67c3c    H15  505   2.711   1.296   2.658 -3.2426 -0.3579 -0.3825
   67c3c     C8  506   2.628   1.474   2.589  0.1446  0.0483  0.8966
   67c3c    H16  507   2.543   1.437   2.532  0.8809  0.0683 -0.2230
   67c3c    H17  508   2.701   1.499   2.513  1.0489 -1.2929  1.3095
   67c3c    H18  509   2.603   1.576   2.619 -0.2105 -0.3388  1.9446
   68c3c      N  510   1.728   1.691   0.008 -0.0652  0.1643 -0.1899
   68c3c     C1  511   1.815   1.809   0.030 -0.0162  0.0065  0.0620
   68c3c     C2  512   1.772   1.645  -0.128  0.1339  0.2084 -0.6758
   68c3c     C3  513   1.951   1.778  -0.029 -0.1773  0.4597 -0.2155
   68c3c     C4  514   1.921   1.667  -0.132  0.3831  0.1131 -0.1738
   68c3c     C5  515   1.766   1.574   0.095  0.8375  0.1382 -0.1427
   68c3c     C6  516   1.583   1.713   0.025  0.5198 -0.2113 -0.9381
   68c3c     H1  517   1.837   1.833   0.135  1.4153 -0.4851 -0.1066
   68c3c     H2  518   1.779   1.903  -0.011  1.5830 -0.2015 -1.8947
   68c3c     H3  519   1.755   1.540  -0.152 -1.1158  0.0393  0.8655
   68c3c     H4  520   1.717   1.704  -0.202 -0.4575 -0.2799 -0.6297
   68c3c     H5  521   2.022   1.738   0.045 -1.6931  0.7961  1.4617
   68c3c     H6  522   1.995   1.868  -0.071  0.6713 -1.1555 -2.9140
   68c3c     H7  523   1.971   1.572  -0.113 -0.2231 -0.6191 -2.0524
   68c3c     H8  524   1.947   1.696  -0.234 -0.9079 -0.6031 -0.7198
   68c3c     H9  525   1.711   1.584   0.189  0.1022  0.4929 -0.6076
   68c3c    H10  526   1.720   1.481   0.061  1.1094  0.0593 -0.2951
   68c3c    H11  527   1.874   1.558   0.103  0.4159 -3.0712 -0.2796
   68c3c    H12  528   1.529   1.619   0.014 -2.5904  1.6063 -1.5013
   68c3c    H13  529   1.572   1.740   0.130  1.2170  0.9994 -1.1647
   68c3c     C7  530   1.501   1.813  -0.062  0.5225  0.4992 -0.7331
   68c3c    H14  531   1.523   1.788  -0.166  0.5346 -0.9449 -0.3966
   68c3c    H15  532   1.532   1.915  -0.041 -1.5388  0.7412  1.3656
   68c3c     C8  533   1.345   1.807  -0.027 -0.1819 -0.0887 -0.4161
   68c3c    H16  534   1.320   1.701  -0.017  1.1715 -0.5113 -1.3658
   68c3c    H17  535   1.289   1.850  -0.109  0.2343  0.5334 -0.3718
   68c3c    H18  536   1.311   1.870   0.055 -1.8980 -0.1103 -1.1020
   69c3c      N  537   2.618   0.719   0.863  0.3579 -0.5346 -0.0298
   69c3c     C1  538   2.695   0.671   0.742  0.5813 -0.4589  0.6538
   69c3c     C2  539   2.489   0.740   0.808 -0.0108 -0.1923  0.3869
   69c3c     C3  540   2.587   0.581   0.667  0.0922 -0.1159  0.0026
   69c3c     C4  541   2.453   0.627   0.705 -1.0566 -0.4346  0.6734
   69c3c     C5  542   2.608   0.605   0.964 -0.2790 -0.0886  0.4422
   69c3c     C6  543   2.690   0.827   0.933 -0.1050  0.3828  0.2127
   69c3c     H1  544   2.779   0.609   0.775  1.3832  1.4808  2.3618
   69c3c     H2  545   2.738   0.747   0.677  0.4220 -1.9684 -1.2686
   69c3c     H3  546   2.413   0.754   0.884 -2.6556 -1.6674 -1.8664
   69c3c     H4  547   2.482   0.824   0.739  0.4579 -1.0342 -0.7090
   69c3c     H5  548   2.601   0.478   0.699  3.9381 -0.0031 -1.1405
   69c3c     H6  549   2.614   0.580   0.561  1.6638 -2.4257  0.3865
   69c3c     H7  550   2.402   0.545   0.758 -0.3389 -1.6908 -0.5498
   69c3c     H8  551   2.402   0.669   0.619 -0.3125 -1.5897 -0.3436
   69c3c     H9  552   2.697   0.566   1.013  2.0462  0.9634 -2.7635
   69c3c    H10  553   2.534   0.620   1.043 -0.5817 -0.1238  0.1648
   69c3c    H11  554   2.545   0.521   0.932 -1.3386  0.6991  0.4228
   69c3c    H12  555   2.621   0.860   1.011 -0.2887  0.0817  0.1799
   69c3c    H13  556   2.784   0.792   0.976 -0.5147  0.2957  1.0439
   69c3c     C7  557   2.708   0.951   0.851  0.2079  1.0509  0.0792
   69c3c    H14  558   2.619   1.000   0.812 -0.1382  1.6840  1.5861
   69c3c    H15  559   2.767   0.947   0.760 -1.0609  0.0557 -0.7001
   69c3c     C8  560   2.776   1.059   0.932 -0.0380  0.3324 -0.1805
   69c3c    H16  561   2.743   1.057   1.036  1.0584  1.4213  0.1999
   69c3c    H17  562   2.778   1.158   0.887 -0.3549  0.4540  0.0764
   69c3c    H18  563   2.879   1.025   0.936  0.1592  1.0789  1.3037
   70c3c      N  564   1.230   2.538   2.753  0.4361 -0.0723  1.2942
   70c3c     C1  565   1.173   2.658   2.687 -0.6788 -0.1964 -0.3064
   70c3c     C2  566   1.368   2.552   2.715  0.0813  0.3110 -0.7335
   70c3c     C3  567   1.276   2.778   2.711 -0.4405  0.4391 -0.2336
   70c3c     C4  568   1.404   2.707   2.739  0.0847  0.3318  0.2103
   70c3c     C5  569   1.212   2.541   2.897 -0.8921  0.0570 -0.7881
   70c3c     C6  570   1.164   2.412   2.701  0.1315  0.2347  0.0879
   70c3c     H1  571   1.070   2.676   2.718 -0.8128  1.0116 -1.4258
   70c3c     H2  572   1.175   2.644   2.579  1.6705 -2.4893 -0.0199
   70c3c     H3  573   1.425   2.481   2.776  0.2765  0.0424 -1.2300
   70c3c     H4  574   1.383   2.525   2.611 -0.0864  0.5998 -0.8321
   70c3c     H5  575   1.247   2.837   2.797 -0.5522  2.5070 -1.6543
   70c3c     H6  576   1.273   2.829   2.615 -0.3130  1.3650  0.2567
   70c3c     H7  577   1.424   2.735   2.842 -0.6124 -1.1581  0.7535
   70c3c     H8  578   1.494   2.729   2.681  1.7161 -1.3257  2.0513
   70c3c     H9  579   1.108   2.553   2.924 -0.5424  0.9430  0.1773
   70c3c    H10  580   1.248   2.451   2.947  1.2146  1.7126  0.7562
   70c3c    H11  581   1.251   2.626   2.952  1.1002 -0.6866 -0.9845
   70c3c    H12  582   1.208   2.320   2.740  1.1810  0.0923 -1.3840
   70c3c    H13  583   1.063   2.414   2.741 -0.1548 -2.1791 -0.4354
   70c3c     C7  584   1.132   2.388   2.545 -0.0533 -0.0797  0.1395
   70c3c    H14  585   1.223   2.382   2.486 -0.1363 -0.3766  0.0411
   70c3c    H15  586   1.064   2.464   2.506  0.7211  0.0394 -1.0048
   70c3c     C8  587   1.056   2.255   2.527 -0.3595  0.1607 -0.2545
   70c3c    H16  588   1.024   2.238   2.424 -0.1202  2.8933 -0.8351
   70c3c    H17  589   0.962   2.270   2.580  0.1667 -1.7819  1.2539
   70c3c    H18  590   1.100   2.166   2.571 -0.0794  1.2821  1.7878
   71c3c      N  591   1.450   0.116   2.243  0.2171 -0.0523 -0.2749
   71c3c     C1  592   1.471   0.224   2.340 -0.9134  0.3803  0.2214
   71c3c     C2  593   1.483  -0.006   2.315  0.1796 -0.0340  0.3604
   71c3c     C3  594   1.416   0.166   2.475  0.1402  0.0696  0.3389
   71c3c     C4  595   1.437   0.014   2.460  0.1899  0.0164  0.2617
   71c3c     C5  596   1.308   0.106   2.197  0.5895 -0.7278  0.3901
   71c3c     C6  597   1.534   0.132   2.117  0.3569 -0.8821 -0.4352
   71c3c     H1  598   1.431   0.323   2.320 -0.1819  0.3947 -1.2571
   71c3c     H2  599   1.576   0.251   2.352 -1.4933  3.0040 -0.4838
   71c3c     H3  600   1.446  -0.092   2.260 -0.5363 -0.5509  1.6082
   71c3c     H4  601   1.590  -0.025   2.306 -0.0125 -0.6223 -0.7029
   71c3c     H5  602   1.312   0.192   2.490 -0.1518 -1.9860  2.1148
   71c3c     H6  603   1.467   0.203   2.564  1.0127  0.5340 -0.3421
   71c3c     H7  604   1.341  -0.037   2.469 -1.2650  2.5092 -0.5702
   71c3c     H8  605   1.516  -0.024   2.526 -0.8677 -0.2143  1.4173
   71c3c     H9  606   1.285   0.028   2.125 -1.2018 -0.5561  0.7456
   71c3c    H10  607   1.239   0.094   2.281  1.1581 -0.6002  0.8817
   71c3c    H11  608   1.287   0.205   2.156  1.4542 -1.4218 -1.7858
   71c3c    H12  609   1.521   0.045   2.052 -0.0302 -1.1916  0.0459
   71c3c    H13  610   1.488   0.216   2.066 -0.4267 -1.3985 -0.5848
   71c3c     C7  611   1.688   0.134   2.117 -0.3438 -0.3617 -0.0510
   71c3c    H14  612   1.725   0.051   2.176  0.2696 -0.2021 -0.2089
   71c3c    H15  613   1.723   0.225   2.165  1.3556 -0.7193 -0.5789
   71c3c     C8  614   1.745   0.145   1.981 -0.5118  0.5852 -0.2163
   71c3c    H16  615   1.852   0.169   1.977 -0.5573  0.4101 -3.3051
   71c3c    H17  616   1.688   0.209   1.914 -0.4492  1.1712  0.2813
   71c3c    H18  617   1.741   0.049   1.931 -1.0080  0.4152  0.1539
   72c3c      N  618   2.421   2.744   0.342 -0.3497  0.3592  0.0675
   72c3c     C1  619   2.479   2.612   0.387 -0.0644 -0.3618 -0.1183
   72c3c     C2  620   2.509   2.778   0.229  0.8231  0.8779  0.6145
   72c3c     C3  621   2.502   2.535   0.255  0.2874 -0.2616  0.0274
   72c3c     C4  622   2.537   2.649   0.154 -0.4893 -0.2924  0.2625
   72c3c     C5  623   2.284   2.724   0.298  0.5350  0.0778 -0.1450
   72c3c     C6  624   2.417   2.858   0.436  0.0444  0.7145  0.2028
   72c3c     H1  625   2.412   2.557   0.453 -0.9849 -0.7528 -1.3658
   72c3c     H2  626   2.577   2.626   0.434 -1.1108  0.4842  1.8592
   72c3c     H3  627   2.471   2.854   0.160 -0.5136 -1.4517 -1.3047
   72c3c     H4  628   2.607   2.823   0.244  1.0706  0.6052 -0.1507
   72c3c     H5  629   2.412   2.482   0.224  0.3114 -1.0665  1.2807
   72c3c     H6  630   2.575   2.454   0.264 -0.4042 -0.7580  1.4804
   72c3c     H7  631   2.479   2.631   0.063  0.1795 -0.1733 -0.1879
   72c3c     H8  632   2.639   2.633   0.120 -0.4002  1.3781 -0.2795
   72c3c     H9  633   2.285   2.649   0.219  3.4053 -1.7782  1.5303
   72c3c    H10  634   2.230   2.675   0.380  0.4608 -1.7905 -1.2920
   72c3c    H11  635   2.241   2.819   0.267 -0.3234 -0.3288 -0.2219
   72c3c    H12  636   2.381   2.952   0.394 -1.0816 -0.3478 -1.2675
   72c3c    H13  637   2.342   2.829   0.509 -0.3170 -1.2252 -0.8903
   72c3c     C7  638   2.556   2.884   0.499 -0.3597  0.4533 -0.0961
   72c3c    H14  639   2.631   2.903   0.422  2.7805 -0.6685  2.5687
   72c3c    H15  640   2.593   2.795   0.551 -0.7938 -0.7772 -1.8539
   72c3c     C8  641   2.541   2.995   0.607 -0.4710  0.6294  0.3526
   72c3c    H16  642   2.470   2.960   0.682 -1.0894 -1.2201 -1.0736
   72c3c    H17  643   2.508   3.092   0.570 -0.1638  0.2795 -0.8401
   72c3c    H18  644   2.632   3.006   0.667 -1.2353  0.3245  1.5966
   73c3c      N  645   1.302   1.845   2.470  0.1585  0.4081  0.2819
   73c3c     C1  646   1.196   1.793   2.563 -0.0754 -0.4089  0.1934
   73c3c     C2  647   1.414   1.747   2.488 -0.0378 -0.0906  0.4403
   73c3c     C3  648   1.205   1.646   2.555  0.0092  1.4707  0.3734
   73c3c     C4  649   1.347   1.611   2.519  0.0583 -0.3506 -0.5315
   73c3c     C5  650   1.251   1.831   2.330 -0.8413  0.8095 -0.2098
   73c3c     C6  651   1.342   1.986   2.487  0.2575  0.1903 -0.0192
   73c3c     H1  652   1.103   1.835   2.523  0.0354 -0.8882 -0.5785
   73c3c     H2  653   1.211   1.825   2.666 -0.8839 -0.9119  0.4715
   73c3c     H3  654   1.470   1.733   2.395  1.5859 -1.4662  1.5999
   73c3c     H4  655   1.486   1.770   2.566 -1.2008 -2.0950  2.1616
   73c3c     H5  656   1.148   1.603   2.472  0.3695 -0.6266  1.1917
   73c3c     H6  657   1.181   1.602   2.652 -2.7338 -1.4015 -1.4957
   73c3c     H7  658   1.356   1.526   2.452  3.7837 -0.2640 -0.2312
   73c3c     H8  659   1.382   1.577   2.616 -0.1498  1.3091  0.1488
   73c3c     H9  660   1.159   1.888   2.320 -2.1094 -0.9836  0.9468
   73c3c    H10  661   1.332   1.868   2.268  0.4580  1.1641  1.6568
   73c3c    H11  662   1.224   1.728   2.309 -0.2061  0.5255  0.3430
   73c3c    H12  663   1.421   2.013   2.417 -0.6888  1.8234 -0.4798
   73c3c    H13  664   1.255   2.044   2.457  0.7833  0.9304 -0.1176
   73c3c     C7  665   1.371   2.024   2.630  0.5345  0.6021 -0.6072
   73c3c    H14  666   1.436   1.951   2.676 -0.4412 -1.2810 -2.1572
   73c3c    H15  667   1.278   2.015   2.687  1.1622  0.7619  0.4451
   73c3c     C8  668   1.429   2.162   2.661  0.1140  0.6583  0.0063
   73c3c    H16  669   1.387   2.234   2.590  2.4154  1.9211 -0.1169
   73c3c    H17  670   1.536   2.176   2.649  0.2528 -0.9460 -0.7389
   73c3c    H18  671   1.400   2.185   2.763  0.2304 -1.1702  0.4620
   74c3c      N  672   2.887   2.835   2.881  0.8180  0.7461 -0.3156
   74c3c     C1  673   2.831   2.721   2.817 -0.3977 -0.3437  0.6335
   74c3c     C2  674   3.024   2.847   2.827  0.0539  1.1329 -0.0917
   74c3c     C3  675   2.892   2.713   2.670 -0.2495 -0.0879  0.3412
   74c3c     C4  676   3.028   2.790   2.686  0.6149 -0.6547  0.0533
   74c3c     C5  677   2.818   2.959   2.844 -0.0087  0.9482  0.0331
   74c3c     C6  678   2.867   2.817   3.029  0.5422  0.2962  0.0832
   74c3c     H1  679   2.723   2.719   2.822 -0.3743  1.1391  1.9332
   74c3c     H2  680   2.855   2.629   2.872 -1.8220  1.2128  3.9631
   74c3c     H3  681   3.068   2.946   2.840  2.1697  0.2051 -0.1002
   74c3c     H4  682   3.091   2.781   2.882 -1.6712  0.0795  0.8144
   74c3c     H5  683   2.829   2.774   2.606 -0.6249  1.9254  2.5662
   74c3c     H6  684   2.907   2.612   2.631 -1.0320  0.6978 -2.0545
   74c3c     H7  685   3.050   2.865   2.610 -3.0705 -0.1836 -0.6346
   74c3c     H8  686   3.109   2.720   2.666  1.3574  0.7827 -2.1097
   74c3c     H9  687   2.710   2.957   2.857 -0.1251 -3.3049 -0.8534
   74c3c    H10  688   2.856   3.044   2.901  1.1014  0.0095  0.7122
   74c3c    H11  689   2.832   2.980   2.738 -1.1972 -0.4740 -0.4248
   74c3c    H12  690   2.888   2.911   3.080  0.9414 -0.5838  1.5807
   74c3c    H13  691   2.759   2.803   3.041  0.5820 -1.0960 -1.0023
   74c3c     C7  692   2.928   2.703   3.101  0.4186 -0.0007  0.4362
   74c3c    H14  693   3.036   2.705   3.085  0.0245  0.8879 -2.4276
   74c3c    H15  694   2.888   2.605   3.077  0.3904  0.6259 -2.2711
   74c3c     C8  695   2.907   2.709   3.251 -0.4554  0.2014 -0.0209
   74c3c    H16  696   2.985   2.644   3.292  0.3980  0.6488 -0.8929
   74c3c    H17  697   2.816   2.662   3.286 -0.3262 -1.2404 -1.5610
   74c3c    H18  698   2.919   2.806   3.300  2.0747 -0.0906  0.0438
   75c3c      N  699   1.899   2.719   2.975  0.4468  0.2381 -0.2905
   75c3c     C1  700   1.769   2.771   3.016  0.2819 -0.5921  0.2202
   75c3c     C2  701   1.987   2.735   3.097 -0.2832 -0.6934  0.3693
   75c3c     C3  702   1.754   2.722   3.162  0.1128 -0.4510  0.7234
   75c3c     C4  703   1.897   2.679   3.207 -0.3980  0.0342 -0.2158
   75c3c     C5  704   1.874   2.582   2.920  0.0167  0.8239 -0.2637
   75c3c     C6  705   1.960   2.792   2.868 -0.1502 -0.7160  0.8456
   75c3c     H1  706   1.684   2.738   2.956  1.3391 -5.1455  1.0208
   75c3c     H2  707   1.781   2.879   3.023  1.9946 -0.7101 -0.6198
   75c3c     H3  708   2.069   2.665   3.079 -2.0908 -3.3933  2.2567
   75c3c     H4  709   2.012   2.838   3.123  1.8518 -1.0930  0.0217
   75c3c     H5  710   1.691   2.633   3.174 -0.4265 -0.1322  0.2972
   75c3c     H6  711   1.716   2.804   3.222  0.1931  0.7903 -0.8951
   75c3c     H7  712   1.897   2.570   3.209  1.3381  0.0262  0.9257
   75c3c     H8  713   1.909   2.715   3.309 -1.2830  2.7096 -0.9956
   75c3c     H9  714   1.797   2.582   2.842  1.7277 -1.9635 -2.0483
   75c3c    H10  715   1.964   2.534   2.881 -0.4595 -1.6233  1.5442
   75c3c    H11  716   1.834   2.518   2.998  0.7704  2.3410  1.3880
   75c3c    H12  717   2.063   2.760   2.852  0.5631  1.4884  0.9442
   75c3c    H13  718   1.906   2.771   2.776 -0.3018  1.4398  0.4195
   75c3c     C7  719   1.963   2.950   2.883 -0.2234  0.1481 -0.4622
   75c3c    H14  720   2.028   2.984   2.964 -0.5378  0.6474 -0.4212
   75c3c    H15  721   1.866   2.997   2.898 -0.2688  0.0168 -0.3440
   75c3c     C8  722   1.994   3.008   2.746 -0.3539 -0.4594  0.3265
   75c3c    H16  723   1.936   2.972   2.661  0.9475 -0.3082 -0.6397
   75c3c    H17  724   2.098   2.985   2.724 -0.7215 -1.4539 -0.4196
   75c3c    H18  725   1.977   3.115   2.745 -2.0622 -0.7059  1.1934
   76c3c      N  726   2.627   2.616   1.064  0.3273  0.2032  0.0258
   76c3c     C1  727   2.712   2.573   1.179  0.1887 -0.0895 -0.1334
   76c3c     C2  728   2.706   2.719   0.992 -0.1681 -0.6959 -0.3665
   76c3c     C3  729   2.855   2.585   1.117 -0.5225 -0.5438  0.6754
   76c3c     C4  730   2.850   2.682   1.001  0.7272 -0.6165  0.8461
   76c3c     C5  731   2.606   2.504   0.974  0.5549  0.0182 -0.2233
   76c3c     C6  732   2.491   2.666   1.106 -1.3178 -0.1964  0.0768
   76c3c     H1  733   2.690   2.472   1.214 -0.1432 -0.0947 -0.3563
   76c3c     H2  734   2.708   2.643   1.262  1.6721 -0.7632  0.5231
   76c3c     H3  735   2.677   2.756   0.894 -0.5310  1.0669  0.3707
   76c3c     H4  736   2.695   2.813   1.046 -1.4809  0.7461 -3.0483
   76c3c     H5  737   2.881   2.485   1.082  1.3753  0.5852 -1.2928
   76c3c     H6  738   2.914   2.616   1.203 -1.4193  3.2060  0.0195
   76c3c     H7  739   2.886   2.631   0.912 -2.1969 -1.6410  0.1936
   76c3c     H8  740   2.919   2.767   1.007 -1.2441  1.0819 -0.1409
   76c3c     H9  741   2.545   2.425   1.017  0.6058 -0.0050 -0.1925
   76c3c    H10  742   2.557   2.536   0.882  0.8756 -0.6251 -0.6251
   76c3c    H11  743   2.696   2.452   0.940  0.9793 -0.2924  1.3314
   76c3c    H12  744   2.458   2.724   1.019 -0.8382  0.4564  0.3227
   76c3c    H13  745   2.422   2.582   1.109 -1.0888 -0.3799  0.1197
   76c3c     C7  746   2.473   2.775   1.215 -0.0513  0.6750 -0.2705
   76c3c    H14  747   2.506   2.870   1.173 -2.0195  0.8792 -1.4050
   76c3c    H15  748   2.532   2.753   1.304 -1.7826 -2.0633  0.2745
   76c3c     C8  749   2.328   2.805   1.245  0.4036  0.8543 -0.4702
   76c3c    H16  750   2.281   2.813   1.147 -1.6818 -1.1428  0.3254
   76c3c    H17  751   2.321   2.900   1.299 -0.5912  0.9737 -0.8114
   76c3c    H18  752   2.284   2.720   1.297  0.8209 -0.3230 -2.0082
   77c3c      N  753   2.653   0.287   1.483 -0.9061 -0.1031  0.4634
   77c3c     C1  754   2.770   0.231   1.410  0.3489 -0.5043 -0.4240
   77c3c     C2  755   2.708   0.337   1.609  0.5285 -0.3145  0.1140
   77c3c     C3  756   2.893   0.313   1.447  0.2978 -0.8626 -0.3434
   77c3c     C4  757   2.846   0.392   1.567 -0.6850  0.2473  0.4197
   77c3c     C5  758   2.604   0.402   1.404 -0.0014  0.6455  0.3336
   77c3c     C6  759   2.543   0.191   1.493 -0.1424 -0.7323 -0.1736
   77c3c     H1  760   2.748   0.214   1.305 -2.8570  1.8978 -0.1863
   77c3c     H2  761   2.801   0.133   1.447  1.0886 -0.2813 -0.4476
   77c3c     H3  762   2.635   0.406   1.653  0.7354 -0.3815  0.5604
   77c3c     H4  763   2.714   0.249   1.672 -0.6499 -0.0873  0.5518
   77c3c     H5  764   2.937   0.374   1.367 -1.5894  1.4606  0.3424
   77c3c     H6  765   2.964   0.238   1.483 -0.2591 -0.3535  1.8714
   77c3c     H7  766   2.838   0.500   1.553  2.1060  0.5802  1.0766
   77c3c     H8  767   2.903   0.364   1.656  0.9627  0.1358 -0.6425
   77c3c     H9  768   2.562   0.369   1.309  0.5152 -1.1256  0.6849
   77c3c    H10  769   2.522   0.461   1.446 -0.0466  2.0128 -1.6078
   77c3c    H11  770   2.681   0.470   1.370 -1.4354  2.3559  0.4089
   77c3c    H12  771   2.459   0.247   1.536  2.2437  3.4362 -0.6459
   77c3c    H13  772   2.501   0.163   1.397 -1.9567  0.9450  0.0859
   77c3c     C7  773   2.568   0.065   1.578 -0.5920  0.3577  0.3915
   77c3c    H14  774   2.639   0.069   1.660 -0.0665  0.0119 -0.0403
   77c3c    H15  775   2.618  -0.011   1.517 -0.2777 -0.2914  1.4572
   77c3c     C8  776   2.434  -0.011   1.607  0.1940  0.0852 -0.0302
   77c3c    H16  777   2.464  -0.089   1.676  1.9889  0.5737 -0.2210
   77c3c    H17  778   2.378  -0.044   1.519  0.8832 -1.5510  0.1244
   77c3c    H18  779   2.367   0.056   1.660 -1.3173  1.2915 -3.3490
   78c3c      N  780   1.280   0.789   0.656  0.1116  0.1470  0.6280
   78c3c     C1  781   1.367   0.890   0.724  0.0961  0.5083  0.0770
   78c3c     C2  782   1.322   0.657   0.702  0.4291 -0.7969 -0.1751
   78c3c     C3  783   1.379   0.830   0.869  0.8152 -0.2152  0.7789
   78c3c     C4  784   1.358   0.681   0.849 -0.0171  0.4788 -0.3641
   78c3c     C5  785   1.138   0.810   0.699 -0.7249  0.4417  0.0507
   78c3c     C6  786   1.284   0.804   0.521  0.9260 -0.9681  1.1475
   78c3c     H1  787   1.327   0.991   0.732 -1.1979 -0.2863  4.7209
   78c3c     H2  788   1.471   0.888   0.692  0.2147  0.8259  0.4379
   78c3c     H3  789   1.245   0.580   0.701 -1.4303  0.9949  0.3143
   78c3c     H4  790   1.398   0.615   0.637  0.3957 -0.2731 -0.5549
   78c3c     H5  791   1.296   0.865   0.930 -0.2626 -2.5917  0.7467
   78c3c     H6  792   1.474   0.858   0.914  0.4011  0.6345  1.1180
   78c3c     H7  793   1.283   0.637   0.915  0.1199 -0.3388 -0.7543
   78c3c     H8  794   1.455   0.642   0.881 -0.1783  0.7246  0.4543
   78c3c     H9  795   1.096   0.907   0.675  0.7240  0.7952 -1.1150
   78c3c    H10  796   1.072   0.736   0.653 -1.7373  0.8925  0.7647
   78c3c    H11  797   1.124   0.787   0.805  0.8186 -1.8775 -0.2015
   78c3c    H12  798   1.219   0.734   0.468 -1.3022  1.2727  0.8534
   78c3c    H13  799   1.236   0.899   0.500  0.4913 -0.6065  3.7052
   78c3c     C7  800   1.413   0.788   0.450 -0.3495  0.1959 -0.5579
   78c3c    H14  801   1.443   0.683   0.445 -2.2527 -0.5809  2.9213
   78c3c    H15  802   1.490   0.855   0.488 -0.6267  1.3947 -2.0425
   78c3c     C8  803   1.416   0.819   0.302 -0.2620  0.6004  0.0350
   78c3c    H16  804   1.516   0.808   0.259 -0.5500  0.7614 -0.6739
   78c3c    H17  805   1.388   0.922   0.285  1.8391  0.7222 -2.9654
   78c3c    H18  806   1.346   0.752   0.252 -0.4589  1.1872 -0.4717
   79c3c      N  807   1.813   1.259   1.582 -0.1886  0.4559 -0.8813
   79c3c     C1  808   1.737   1.238   1.710  0.3489  0.0012 -0.5416
   79c3c     C2  809   1.713   1.245   1.477 -0.3178  1.1422  0.4796
   79c3c     C3  810   1.595   1.290   1.686  0.0653 -0.3653  0.8177
   79c3c     C4  811   1.591   1.314   1.535  0.4894  0.1643 -0.3664
   79c3c     C5  812   1.878   1.386   1.584 -0.4346  0.0735 -0.1765
   79c3c     C6  813   1.921   1.164   1.548 -0.3867  0.3888 -0.7726
   79c3c     H1  814   1.779   1.292   1.795  0.0695  0.7932 -0.8960
   79c3c     H2  815   1.741   1.130   1.727 -0.9210  0.2945  1.9902
   79c3c     H3  816   1.741   1.268   1.375  1.6259 -0.9557  0.4956
   79c3c     H4  817   1.682   1.141   1.466 -0.1134  1.1370 -0.0587
   79c3c     H5  818   1.584   1.385   1.738  2.8760 -0.6684  2.0514
   79c3c     H6  819   1.511   1.225   1.714 -2.6846  2.0006 -1.6027
   79c3c     H7  820   1.595   1.420   1.513 -3.2636  0.6654  0.9130
   79c3c     H8  821   1.491   1.287   1.501 -0.0230  1.5714  0.0121
   79c3c     H9  822   1.963   1.381   1.651  0.1556 -0.2501 -0.9432
   79c3c    H10  823   1.919   1.425   1.491  1.6151  0.3231  0.8140
   79c3c    H11  824   1.799   1.451   1.622 -0.8288  0.2682 -1.2999
   79c3c    H12  825   1.951   1.185   1.445 -0.7931  0.3559 -0.8990
   79c3c    H13  826   2.010   1.182   1.608  0.4358 -1.7329 -1.3053
   79c3c     C7  827   1.895   1.013   1.562 -0.1507 -0.4186 -0.3926
   79c3c    H14  828   1.808   0.974   1.510 -0.9687  2.9848 -1.7407
   79c3c    H15  829   1.877   0.999   1.668  2.0739  1.0529  0.2186
   79c3c     C8  830   2.025   0.931   1.533  0.0701 -1.5361 -0.0998
   79c3c    H16  831   1.999   0.830   1.563 -0.0676 -1.1759  1.0094
   79c3c    H17  832   2.116   0.975   1.573 -0.4527 -1.1684  0.7130
   79c3c    H18  833   2.033   0.910   1.427  0.7153  0.6910 -0.5155
   80c3c      N  834   0.029   0.206   0.745  0.6229  0.2865 -0.5301
   80c3c     C1  835  -0.033   0.292   0.649 -0.2623 -0.3780  0.7344
   80c3c     C2  836   0.174   0.214   0.717 -0.5516  0.7034 -0.3874
   80c3c     C3  837   0.053   0.411   0.630 -0.2699  0.4979  0.0141
   80c3c     C4  838   0.191   0.361   0.665  0.8536 -0.1512  0.1041
   80c3c     C5  839   0.005   0.263   0.879 -0.0238 -0.4385 -0.3851
   80c3c     C6  840  -0.021   0.063   0.756 -0.0729 -0.2196  1.0875
   80c3c     H1  841  -0.131   0.334   0.672  0.0531  1.2202 -0.7423
   80c3c     H2  842  -0.042   0.245   0.551 -2.2639  0.1993  0.6235
   80c3c     H3  843   0.246   0.193   0.797 -2.5291  1.7456  1.7206
   80c3c     H4  844   0.206   0.149   0.636 -0.6865  1.3874 -0.9927
   80c3c     H5  845   0.025   0.494   0.695  0.6739  0.0326  1.0333
   80c3c     H6  846   0.045   0.452   0.529 -1.4888  0.7855  0.2166
   80c3c     H7  847   0.237   0.427   0.739 -0.8736  1.0692  0.1306
   80c3c     H8  848   0.260   0.356   0.581  0.5611  0.7886 -0.1909
   80c3c     H9  849  -0.101   0.269   0.904  0.0181  1.9571 -0.6597
   80c3c    H10  850   0.042   0.202   0.962  0.5476 -1.1291 -1.1477
   80c3c    H11  851   0.027   0.370   0.883  1.3986 -0.7743  1.6173
   80c3c    H12  852   0.038   0.011   0.832 -0.6347 -2.0636  0.2931
   80c3c    H13  853  -0.126   0.059   0.783 -0.6848 -0.4943 -1.2601
   80c3c     C7  854  -0.012  -0.031   0.628  0.8946  0.0154  0.2295
   80c3c    H14  855   0.082  -0.028   0.574 -0.2554  0.7696 -1.7916
   80c3c    H15  856  -0.087   0.014   0.563  3.6491  0.2462 -2.8974
   80c3c     C8  857  -0.052  -0.176   0.659 -0.3842 -0.4414 -0.2409
   80c3c    H16  858  -0.139  -0.172   0.725 -0.6387  0.4872 -0.6231
   80c3c    H17  859   0.030  -0.227   0.708  0.1272 -2.5696 -3.1344
   80c3c    H18  860  -0.079  -0.227   0.566 -2.7570  1.5048 -0.6919
   81c3c      N  861   0.046   1.393   0.667  0.6209  0.3393  0.2962
   81c3c     C1  862   0.117   1.427   0.785 -0.0200  0.4413  0.3305
   81c3c     C2  863   0.124   1.446   0.561  0.4743  0.1725 -0.0444
   81c3c     C3  864   0.266   1.403   0.755 -0.3688 -0.2943 -0.0170
   81c3c     C4  865   0.266   1.416   0.598 -0.0930  0.4370  0.5435
   81c3c     C5  866   0.027   1.246   0.654  0.1487 -0.7309 -0.0082
   81c3c     C6  867  -0.088   1.450   0.664  0.5965 -0.5701  0.5258
   81c3c     H1  868   0.081   1.379   0.876 -1.0605 -1.0908 -0.8740
   81c3c     H2  869   0.100   1.534   0.799 -1.6638  0.2280  0.0158
   81c3c     H3  870   0.101   1.409   0.461  1.7864  0.3092 -0.4073
   81c3c     H4  871   0.120   1.554   0.545 -0.5312  0.2295  0.5685
   81c3c     H5  872   0.302   1.307   0.791  0.1345 -0.2861 -0.5051
   81c3c     H6  873   0.339   1.471   0.799  2.3885 -1.7017 -2.3424
   81c3c     H7  874   0.311   1.331   0.548 -0.9096  1.9919 -2.9840
   81c3c     H8  875   0.332   1.499   0.575  2.5210 -1.9094 -0.6570
   81c3c     H9  876  -0.040   1.212   0.733 -0.2563 -2.1046 -0.9269
   81c3c    H10  877  -0.019   1.226   0.558  1.1094 -1.5188 -0.3096
   81c3c    H11  878   0.112   1.179   0.660  1.0548  0.4516  0.6262
   81c3c    H12  879  -0.130   1.410   0.571 -0.1258  1.8795 -0.2386
   81c3c    H13  880  -0.159   1.416   0.739 -1.4232  1.1341 -0.5403
   81c3c     C7  881  -0.114   1.605   0.661 -0.2071  0.2836  0.3442
   81c3c    H14  882  -0.067   1.660   0.579 -0.7075 -0.3382 -0.3632
   81c3c    H15  883  -0.087   1.652   0.755 -1.8463 -0.9519  1.4526
   81c3c     C8  884  -0.263   1.651   0.627 -0.3273  0.5590 -0.6322
   81c3c    H16  885  -0.294   1.622   0.527  0.9924 -2.6216 -0.1728
   81c3c    H17  886  -0.258   1.757   0.651  1.4368  0.7131 -1.6811
   81c3c    H18  887  -0.340   1.603   0.688  0.7675  1.0698  1.2044
   82c3c      N  888   2.206   0.104   2.325  0.5563 -0.5066 -0.3380
   82c3c     C1  889   2.085   0.194   2.311 -0.7676 -0.1171  0.1143
   82c3c     C2  890   2.297   0.161   2.429  0.6382  0.5135 -0.8246
   82c3c     C3  891   2.065   0.239   2.458  0.5184 -0.8673 -1.0855
   82c3c     C4  892   2.197   0.225   2.525 -0.0644  0.4886  0.1347
   82c3c     C5  893   2.152  -0.027   2.362 -0.4444  0.4146 -0.3570
   82c3c     C6  894   2.280   0.089   2.195 -0.2589  0.2104  0.3414
   82c3c     H1  895   2.002   0.156   2.251 -0.8984 -0.3720  0.4525
   82c3c     H2  896   2.118   0.281   2.254 -1.6006  1.2928  1.7357
   82c3c     H3  897   2.371   0.093   2.471 -1.5201 -1.7036 -0.5038
   82c3c     H4  898   2.358   0.246   2.397 -0.5657  1.9985  0.7382
   82c3c     H5  899   2.001   0.168   2.512  0.2243  0.5687  0.4787
   82c3c     H6  900   2.026   0.339   2.477  2.1832 -0.5276  0.7159
   82c3c     H7  901   2.188   0.154   2.607  0.8237 -1.7859 -1.6704
   82c3c     H8  902   2.233   0.324   2.554  0.8958  0.8925 -2.3030
   82c3c     H9  903   2.064  -0.063   2.308 -0.2133  1.8348 -1.7122
   82c3c    H10  904   2.228  -0.105   2.352 -3.1178 -1.9503 -3.4062
   82c3c    H11  905   2.113  -0.032   2.464  0.7482 -0.2790  0.0788
   82c3c    H12  906   2.358   0.015   2.211 -0.5761 -1.1630 -3.9184
   82c3c    H13  907   2.206   0.052   2.124 -0.9131  1.7578  0.1904
   82c3c     C7  908   2.340   0.217   2.129 -0.5042  0.7179  0.2019
   82c3c    H14  909   2.404   0.276   2.195  2.5391 -1.7772 -0.4272
   82c3c    H15  910   2.261   0.287   2.102 -0.3296  0.0094 -2.2218
   82c3c     C8  911   2.435   0.178   2.012  0.0071 -0.0095  0.2948
   82c3c    H16  912   2.529   0.132   2.041 -0.7802 -1.6607  0.2825
   82c3c    H17  913   2.453   0.270   1.956  0.3595  0.3036  0.9064
   82c3c    H18  914   2.379   0.111   1.946  0.2582  0.3357 -0.2690
   83c3c      N  915   0.618   2.506   2.449  0.1989 -0.1405 -0.3176
   83c3c     C1  916   0.558   2.542   2.582  0.1188 -0.4037  0.2174
   83c3c     C2  917   0.737   2.440   2.503  0.0754  0.2692  0.0928
   83c3c     C3  918   0.579   2.425   2.678  0.1460  0.1530 -0.1673
   83c3c     C4  919   0.708   2.358   2.629 -0.4649  0.5711 -0.3936
   83c3c     C5  920   0.532   2.404   2.381 -0.1992  0.2203  0.2417
   83c3c     C6  921   0.635   2.618   2.356 -0.1428  0.0944  0.1656
   83c3c     H1  922   0.451   2.565   2.579 -0.1696 -1.5162  1.4223
   83c3c     H2  923   0.606   2.633   2.618 -0.4185 -0.0200 -0.0191
   83c3c     H3  924   0.813   2.396   2.439  0.0582  0.8395 -0.3209
   83c3c     H4  925   0.793   2.517   2.556  0.4602 -0.8233  1.3125
   83c3c     H5  926   0.504   2.346   2.691 -1.1795  1.2282 -1.2076
   83c3c     H6  927   0.598   2.480   2.770  0.1200 -0.4967  0.2304
   83c3c     H7  928   0.694   2.254   2.598 -1.9877  0.7138 -0.2034
   83c3c     H8  929   0.782   2.360   2.709  0.4250  0.6686 -1.2085
   83c3c     H9  930   0.433   2.444   2.363  0.9485  3.6616  1.2268
   83c3c    H10  931   0.578   2.386   2.284  1.2218  0.5379  0.8392
   83c3c    H11  932   0.526   2.311   2.438  1.4302  0.4986  0.9018
   83c3c    H12  933   0.682   2.570   2.270  0.4595  1.9217 -0.5475
   83c3c    H13  934   0.535   2.645   2.322  0.2450  0.6204 -0.5878
   83c3c     C7  935   0.717   2.739   2.406 -0.2904 -0.0355 -0.4163
   83c3c    H14  936   0.815   2.720   2.452  1.4144  1.6034 -3.2685
   83c3c    H15  937   0.648   2.796   2.468 -0.0025  1.0681 -1.1111
   83c3c     C8  938   0.749   2.828   2.281  0.3860  0.5938 -0.5286
   83c3c    H16  939   0.790   2.771   2.198 -1.5361 -0.5480 -0.7257
   83c3c    H17  940   0.814   2.906   2.320  0.3888 -0.2866  1.2685
   83c3c    H18  941   0.657   2.878   2.252  0.2756  0.7194  0.0311
   84c3c      N  942   1.996   0.472   1.451 -0.3584  0.2448 -0.3899
   84c3c     C1  943   1.947   0.433   1.321 -0.7890  0.8513 -0.0504
   84c3c     C2  944   2.104   0.560   1.421  0.6871  0.0298  0.5439
   84c3c     C3  945   1.966   0.548   1.223 -0.2341  0.5346  0.3636
   84c3c     C4  946   2.064   0.637   1.296 -0.2898 -0.4099  0.1377
   84c3c     C5  947   1.886   0.538   1.521 -0.8304 -0.0675  0.1191
   84c3c     C6  948   2.044   0.360   1.536 -0.4674 -0.1401  0.5270
   84c3c     H1  949   1.843   0.403   1.328 -1.0264  2.0377  1.9920
   84c3c     H2  950   1.998   0.345   1.281 -0.2622  0.9221  0.4482
   84c3c     H3  951   2.145   0.629   1.495  2.6442 -0.3391 -0.1648
   84c3c     H4  952   2.191   0.497   1.402 -0.5161 -1.4123 -0.1980
   84c3c     H5  953   1.865   0.590   1.220 -0.2071  0.7317  1.7587
   84c3c     H6  954   2.005   0.532   1.123  0.8606 -0.3983  0.9240
   84c3c     H7  955   2.024   0.734   1.325  1.3555  0.1384  0.6529
   84c3c     H8  956   2.151   0.656   1.233 -0.8734 -1.7080 -1.0867
   84c3c     H9  957   1.911   0.583   1.617 -1.1420  1.1889 -0.3762
   84c3c    H10  958   1.849   0.622   1.461  1.0079  1.2102  0.7297
   84c3c    H11  959   1.804   0.468   1.535  0.3130 -1.7713 -1.5034
   84c3c    H12  960   1.960   0.295   1.560 -0.5726  0.3220  1.4231
   84c3c    H13  961   2.116   0.300   1.480 -1.6307 -2.9908  1.9989
   84c3c     C7  962   2.103   0.398   1.673 -0.2064 -0.1318 -0.1374
   84c3c    H14  963   2.030   0.448   1.736  0.5762  1.3599 -0.4014
   84c3c    H15  964   2.188   0.465   1.660  0.3778 -0.5842  1.2615
   84c3c     C8  965   2.163   0.274   1.739  0.6515 -0.0681  0.0687
   84c3c    H16  966   2.082   0.214   1.781  0.2281 -0.9373 -1.9153
   84c3c    H17  967   2.219   0.310   1.825 -0.6688 -0.0634  0.9459
   84c3c    H18  968   2.225   0.212   1.675  0.4327 -1.3916  1.1216
   85c3c      N  969   0.578   1.907   2.050 -0.0725  0.4023  0.1312
   85c3c     C1  970   0.641   1.779   2.023 -0.4523 -0.1996  0.2810
   85c3c     C2  971   0.606   1.977   1.921  0.0313 -0.0132 -0.0672
   85c3c     C3  972   0.600   1.743   1.881 -0.1184  0.1748  0.2015
   85c3c     C4  973   0.575   1.874   1.808 -0.4208  0.1988  0.3279
   85c3c     C5  974   0.434   1.893   2.072 -0.0901  0.0942  0.3970
   85c3c     C6  975   0.634   1.984   2.161 -0.0654  1.1313 -0.5409
   85c3c     H1  976   0.596   1.700   2.083  0.2729 -0.8542 -0.0286
   85c3c     H2  977   0.749   1.789   2.033 -0.7606  1.5329  2.1681
   85c3c     H3  978   0.552   2.072   1.910  1.3614  1.0521  2.2395
   85c3c     H4  979   0.713   1.994   1.917  0.0804 -0.0860  0.8650
   85c3c     H5  980   0.512   1.678   1.874  0.1358 -0.3225  1.5065
   85c3c     H6  981   0.683   1.700   1.825  0.3545  1.8137 -0.3791
   85c3c     H7  982   0.472   1.872   1.774 -0.3070  3.1601 -0.2938
   85c3c     H8  983   0.640   1.880   1.720 -1.5071  0.3467 -0.4660
   85c3c     H9  984   0.426   1.861   2.176 -0.7023  0.5333  0.4890
   85c3c    H10  985   0.380   1.987   2.060 -2.8923 -1.6858 -1.4736
   85c3c    H11  986   0.388   1.819   2.006  1.7303 -0.4626 -0.2622
   85c3c    H12  987   0.581   2.078   2.175 -0.0796  1.1450 -0.6796
   85c3c    H13  988   0.623   1.920   2.249  1.8841  1.7627  0.1705
   85c3c     C7  989   0.784   2.008   2.162 -0.0316  0.1802 -0.0500
   85c3c    H14  990   0.817   2.080   2.088 -0.3698  1.6628  1.2167
   85c3c    H15  991   0.840   1.914   2.167  0.7033  0.6590  0.8098
   85c3c     C8  992   0.843   2.056   2.298  0.7616  0.3741  0.1626
   85c3c    H16  993   0.950   2.056   2.276  0.8576 -0.6693  0.6183
   85c3c    H17  994   0.812   1.989   2.378  0.5206  0.1454 -0.1249
   85c3c    H18  995   0.821   2.160   2.323  0.3202  0.7783 -1.8556
   86c3c      N  996   1.902   0.053   0.986  0.1033  0.4134  0.3692
   86c3c     C1  997   1.883   0.011   0.842 -0.1047 -0.1092 -0.7108
   86c3c     C2  998   2.032  -0.007   1.009 -0.4039 -0.8953  0.6011
   86c3c     C3  999   2.019  -0.002   0.774  0.9570  0.1139 -0.0425
   86c3c     C4 1000   2.121   0.020   0.883  0.0432 -0.6649  0.1718
   86c3c     C5 1001   1.904   0.197   0.995 -0.0385  0.0152 -0.0420
   86c3c     C6 1002   1.806  -0.001   1.077 -0.6444 -0.1508 -0.2722
   86c3c     H1 1003   1.811   0.071   0.786  0.9780  1.6775 -0.2170
   86c3c     H2 1004   1.843  -0.090   0.846 -0.8343  0.1660 -0.9045
   86c3c     H3 1005   2.074   0.019   1.106  0.5662  0.3206 -0.1334
   86c3c     H4 1006   2.024  -0.115   1.013 -1.4068 -0.8837 -0.4154
   86c3c     H5 1007   2.022   0.068   0.690  2.5379  0.9746  0.7019
   86c3c     H6 1008   2.040  -0.103   0.737  0.4459 -0.2936  0.7592
   86c3c     H7 1009   2.164   0.120   0.886 -0.0954 -0.4700 -3.0120
   86c3c     H8 1010   2.203  -0.051   0.885 -1.0649 -1.9750  0.5140
   86c3c     H9 1011   1.806   0.237   0.971 -0.5649 -0.8474  0.6421
   86c3c    H10 1012   1.926   0.218   1.100 -0.4493  1.8231 -0.2910
   86c3c    H11 1013   1.976   0.248   0.931  1.0942 -0.3797  0.8895
   86c3c    H12 1014   1.834   0.041   1.174  2.3908  0.4650 -1.3429
   86c3c    H13 1015   1.710   0.048   1.059  0.3877  1.9093 -0.3687
   86c3c     C7 1016   1.801  -0.155   1.100  0.5523 -0.5857  0.0247
   86c3c    H14 1017   1.894  -0.193   1.141  0.3564  0.6639  1.6933
   86c3c    H15 1018   1.773  -0.217   1.015  0.6945  1.4135 -1.5145
   86c3c     C8 1019   1.696  -0.188   1.207 -0.4349 -0.2467 -0.1558
   86c3c    H16 1020   1.696  -0.123   1.294  1.6530 -0.3466 -0.0624
   86c3c    H17 1021   1.694  -0.291   1.244  1.0365  0.3970  1.7471
   86c3c    H18 1022   1.594  -0.174   1.169 -1.0389 -2.3503  0.5866
   87c3c      N 1023   0.703   0.708   1.131  0.8380  0.9239  0.5459
   87c3c     C1 1024   0.627   0.602   1.195 -0.6810  0.5246  0.8973
   87c3c     C2 1025   0.595   0.766   1.041  0.4448  0.4020 -0.3541
   87c3c     C3 1026   0.487   0.662   1.224 -0.6871 -0.1953  0.6900
   87c3c     C4 1027   0.463   0.765   1.114 -0.4970 -0.2469 -0.4813
   87c3c     C5 1028   0.736   0.799   1.238 -0.6861 -0.3254  0.1793
   87c3c     C6 1029   0.820   0.667   1.063 -0.2899 -0.0174  0.8062
   87c3c     H1 1030   0.684   0.565   1.280  3.1881  0.4304 -1.6317
   87c3c     H2 1031   0.611   0.515   1.131  0.5980 -0.1514  1.4891
   87c3c     H3 1032   0.621   0.864   1.001 -1.8573  1.1026 -0.1810
   87c3c     H4 1033   0.583   0.714   0.946  0.8874  2.0431 -1.3239
   87c3c     H5 1034   0.466   0.708   1.321  2.0292  1.3382  0.6037
   87c3c     H6 1035   0.418   0.578   1.218  1.1211 -1.7457  1.1917
   87c3c     H7 1036   0.452   0.868   1.148 -0.0299  0.7914 -3.3164
   87c3c     H8 1037   0.379   0.742   1.048 -0.7085 -0.4017 -0.1574
   87c3c     H9 1038   0.815   0.756   1.301 -1.4694 -1.4601  0.4076
   87c3c    H10 1039   0.783   0.889   1.201 -1.2992 -0.5098 -1.0799
   87c3c    H11 1040   0.654   0.841   1.296  1.3117  1.1411  1.9935
   87c3c    H12 1041   0.863   0.758   1.022 -0.9342 -0.5230 -1.0215
   87c3c    H13 1042   0.889   0.633   1.140  1.5796 -0.8487 -1.1733
   87c3c     C7 1043   0.819   0.561   0.947 -0.2116 -0.1348 -0.4197
   87c3c    H14 1044   0.743   0.593   0.876 -1.5436 -1.4056  0.3826
   87c3c    H15 1045   0.777   0.465   0.980  3.7614 -1.8064  0.0194
   87c3c     C8 1046   0.949   0.534   0.877  0.3643  0.2591  0.7387
   87c3c    H16 1047   1.040   0.553   0.934  0.6823 -1.2920  0.7597
   87c3c    H17 1048   0.953   0.596   0.788 -0.3930  1.3517  1.4504
   87c3c    H18 1049   0.955   0.438   0.826  0.6589  0.7483 -0.1538
   88c3c      N 1050   1.803   1.870   1.109 -0.4736 -0.6090  0.2952
   88c3c     C1 1051   1.847   1.735   1.151  0.3219 -0.5707  0.3462
   88c3c     C2 1052   1.718   1.853   0.991 -0.7986 -0.1996  0.3915
   88c3c     C3 1053   1.726   1.651   1.122  0.5495 -0.5060  0.1568
   88c3c     C4 1054   1.644   1.724   1.019  0.0266  0.3558  0.0635
   88c3c     C5 1055   1.724   1.934   1.216  0.2835  0.1014 -0.0800
   88c3c     C6 1056   1.911   1.968   1.080  0.1054  0.4584  0.3162
   88c3c     H1 1057   1.890   1.714   1.249  1.0180  0.4510  0.2662
   88c3c     H2 1058   1.926   1.696   1.086  1.2055  1.6068  0.0796
   88c3c     H3 1059   1.659   1.944   0.979 -0.6396 -0.1129  0.2678
   88c3c     H4 1060   1.780   1.820   0.908 -1.7654 -3.5533  0.8973
   88c3c     H5 1061   1.666   1.615   1.205  0.6024 -0.0554  0.3878
   88c3c     H6 1062   1.757   1.559   1.073 -0.1475 -0.8846  0.4165
   88c3c     H7 1063   1.549   1.745   1.069 -0.8646  0.3934 -1.6062
   88c3c     H8 1064   1.639   1.660   0.931  0.9708 -0.6021  0.6853
   88c3c     H9 1065   1.784   1.968   1.300  0.2572 -1.4242  0.5850
   88c3c    H10 1066   1.672   2.021   1.177 -2.7902 -1.7019 -0.2454
   88c3c    H11 1067   1.635   1.878   1.247  0.8924 -0.0367  1.4739
   88c3c    H12 1068   1.862   2.057   1.041  0.8035 -0.6634 -3.3637
   88c3c    H13 1069   1.963   1.993   1.172 -0.3156  0.9418  0.4224
   88c3c     C7 1070   2.020   1.940   0.977 -0.2504  0.4530  0.2910
   88c3c    H14 1071   1.982   1.916   0.877  0.9273 -0.8505  0.1381
   88c3c    H15 1072   2.086   1.865   1.019 -0.3982  0.5572  0.7150
   88c3c     C8 1073   2.112   2.064   0.953  0.2796  0.1878 -0.5387
   88c3c    H16 1074   2.162   2.083   1.048  0.0011  1.2597 -0.5993
   88c3c    H17 1075   2.045   2.148   0.936 -1.9882 -1.4333  0.2263
   88c3c    H18 1076   2.185   2.049   0.873 -2.0993 -0.9150 -2.5693
   89c3c      N 1077   2.256   2.359   1.492 -0.2363  0.3621 -0.0559
   89c3c     C1 1078   2.157   2.280   1.573 -0.2940 -0.1933 -0.6571
   89c3c     C2 1079   2.322   2.256   1.405  0.2580  0.8094 -0.1618
   89c3c     C3 1080   2.108   2.169   1.479 -0.1360  0.0634 -0.6424
   89c3c     C4 1081   2.195   2.177   1.350  0.2543  0.5181  0.2842
   89c3c     C5 1082   2.200   2.468   1.412  0.6980  0.4391 -0.1405
   89c3c     C6 1083   2.348   2.415   1.592  0.1398 -0.3313  0.1458
   89c3c     H1 1084   2.077   2.333   1.624 -0.8858  0.2417 -2.0215
   89c3c     H2 1085   2.215   2.230   1.651 -2.0849  2.7381  2.6997
   89c3c     H3 1086   2.388   2.281   1.322 -0.2369 -1.3305 -1.2205
   89c3c     H4 1087   2.373   2.188   1.473 -3.5002 -2.9171 -0.8537
   89c3c     H5 1088   2.008   2.206   1.457 -0.4322  0.4755  1.2564
   89c3c     H6 1089   2.094   2.072   1.527 -1.3157  0.5931  0.1044
   89c3c     H7 1090   2.137   2.218   1.267  0.3657  1.1279  0.5017
   89c3c     H8 1091   2.238   2.081   1.323  0.8645  0.7914  0.2738
   89c3c     H9 1092   2.155   2.542   1.478 -0.8119  0.9358 -1.6787
   89c3c    H10 1093   2.272   2.525   1.353  3.1509 -3.7462 -1.3994
   89c3c    H11 1094   2.115   2.435   1.353  0.6832 -0.7133  0.5158
   89c3c    H12 1095   2.303   2.460   1.681  2.2264 -0.9468  1.5563
   89c3c    H13 1096   2.406   2.329   1.624  0.7971  0.3592  0.8518
   89c3c     C7 1097   2.452   2.521   1.529 -1.0292  0.3208  0.3357
   89c3c    H14 1098   2.408   2.614   1.492 -2.6786 -1.3775 -2.0654
   89c3c    H15 1099   2.499   2.473   1.444  0.2261  1.7223  0.2166
   89c3c     C8 1100   2.555   2.564   1.637 -0.4763  0.0021  0.7167
   89c3c    H16 1101   2.627   2.486   1.662 -0.9773 -0.1476  1.7160
   89c3c    H17 1102   2.499   2.599   1.723 -2.5759 -2.9421  0.6386
   89c3c    H18 1103   2.618   2.650   1.614 -1.5537  1.0608  1.6901
   90c3c      N 1104   1.462   2.657   1.725  0.6049 -0.1135 -0.3207
   90c3c     C1 1105   1.532   2.744   1.631  0.6830  0.0070 -0.1859
   90c3c     C2 1106   1.435   2.531   1.651 -0.3983 -0.5302  0.5121
   90c3c     C3 1107   1.617   2.650   1.535  0.1043  0.2063  0.3519
   90c3c     C4 1108   1.558   2.510   1.560 -0.4613  0.0168 -0.2411
   90c3c     C5 1109   1.557   2.628   1.832  0.2292 -0.1473  0.4010
   90c3c     C6 1110   1.337   2.716   1.784  0.0085 -0.0358 -0.3848
   90c3c     H1 1111   1.596   2.815   1.684  1.2026 -0.6099  0.0086
   90c3c     H2 1112   1.457   2.789   1.565  0.4952 -1.5225 -1.0377
   90c3c     H3 1113   1.424   2.440   1.711  0.4275  0.0682  1.5788
   90c3c     H4 1114   1.361   2.534   1.571  1.0385 -0.1223 -0.8358
   90c3c     H5 1115   1.718   2.636   1.572  0.1332  0.9272  0.5467
   90c3c     H6 1116   1.622   2.679   1.431  0.1406  0.1817  0.3468
   90c3c     H7 1117   1.623   2.431   1.598  0.8273  0.5989 -1.1704
   90c3c     H8 1118   1.531   2.474   1.461  0.7554 -1.7580  0.0435
   90c3c     H9 1119   1.514   2.546   1.890 -1.4904  2.8165  3.4610
   90c3c    H10 1120   1.656   2.598   1.796 -1.0940 -1.0838 -2.7017
   90c3c    H11 1121   1.577   2.710   1.900  1.9893  0.4036 -0.7251
   90c3c    H12 1122   1.289   2.644   1.851 -3.6953  1.5200 -1.2898
   90c3c    H13 1123   1.352   2.804   1.846 -0.1567 -0.2398 -0.0562
   90c3c     C7 1124   1.232   2.739   1.673  0.3062  0.5225  0.2276
   90c3c    H14 1125   1.203   2.653   1.612 -1.6332  0.8906  0.5784
   90c3c    H15 1126   1.258   2.810   1.594 -0.1587 -0.5616 -0.9297
   90c3c     C8 1127   1.109   2.803   1.733 -0.5507 -0.6048 -0.2618
   90c3c    H16 1128   1.139   2.891   1.789  0.3581 -0.8200 -0.4094
   90c3c    H17 1129   1.056   2.724   1.786 -1.0055  0.2718  0.6105
   90c3c    H18 1130   1.033   2.826   1.659 -0.0704  0.1272 -0.5283
   91c3c      N 1131   1.926   1.133   0.311  0.3246 -0.0899 -0.3485
   91c3c     C1 1132   1.827   1.120   0.420 -0.1401  0.1767  0.0085
   91c3c     C2 1133   1.981   0.995   0.305  0.4966 -0.2002 -0.2993
   91c3c     C3 1134   1.757   0.988   0.399 -0.4715 -0.4082 -0.2350
   91c3c     C4 1135   1.856   0.905   0.320 -0.0513  0.0814  0.1567
   91c3c     C5 1136   1.860   1.154   0.179 -0.5801 -0.6349 -0.6812
   91c3c     C6 1137   2.028   1.236   0.334 -0.2605 -0.1175 -0.1322
   91c3c     H1 1138   1.762   1.206   0.425  1.3079  1.3339 -0.7267
   91c3c     H2 1139   1.865   1.107   0.522 -0.6373 -1.1512  0.0398
   91c3c     H3 1140   2.044   0.975   0.218  1.5959 -0.1150  0.4625
   91c3c     H4 1141   2.041   0.957   0.388  1.6204  0.4312 -0.8171
   91c3c     H5 1142   1.657   0.989   0.355 -0.8395  0.9753  0.5989
   91c3c     H6 1143   1.744   0.937   0.494  0.3797 -0.5564 -0.1943
   91c3c     H7 1144   1.817   0.888   0.219 -0.1268  0.5576  0.1039
   91c3c     H8 1145   1.879   0.817   0.379 -1.0653  0.0243  0.4703
   91c3c     H9 1146   1.833   1.259   0.162 -1.1501 -1.1150 -2.8930
   91c3c    H10 1147   1.929   1.128   0.100  0.7011 -1.4036  0.6670
   91c3c    H11 1148   1.760   1.110   0.174 -0.5819 -1.0951  2.4713
   91c3c    H12 1149   2.092   1.247   0.247 -0.2964  0.1145 -0.1303
   91c3c    H13 1150   1.968   1.327   0.343 -0.4874 -0.2560 -0.2443
   91c3c     C7 1151   2.117   1.215   0.461 -0.5472 -0.3399 -0.3453
   91c3c    H14 1152   2.198   1.145   0.444  1.0294  1.3740  0.0215
   91c3c    H15 1153   2.064   1.167   0.543  2.1833 -0.6692  1.2884
   91c3c     C8 1154   2.183   1.345   0.514  0.1008 -0.0401 -0.8981
   91c3c    H16 1155   2.243   1.394   0.437  1.0785 -0.3234 -0.3280
   91c3c    H17 1156   2.247   1.333   0.601 -0.0187  0.7216 -0.7068
   91c3c    H18 1157   2.107   1.415   0.548  0.5586 -0.6133  1.3719
   92c3c      N 1158   0.140   0.419   1.970 -0.5118  0.1226  0.3455
   92c3c     C1 1159   0.190   0.401   2.107  0.5583  0.0976  1.1261
   92c3c     C2 1160   0.181   0.562   1.956  0.7075 -0.2717 -0.1821
   92c3c     C3 1161   0.327   0.469   2.115  0.1096 -0.0854  0.7786
   92c3c     C4 1162   0.321   0.565   2.006  0.5960 -0.4644 -0.4260
   92c3c     C5 1163   0.207   0.336   1.879 -0.0214 -0.0572 -0.6653
   92c3c     C6 1164  -0.003   0.384   1.958  0.5476 -0.1554  0.0179
   92c3c     H1 1165   0.212   0.297   2.131 -3.0034 -0.6326  1.5692
   92c3c     H2 1166   0.120   0.450   2.175  0.2649  1.2576  0.0116
   92c3c     H3 1167   0.176   0.579   1.848  2.3725 -0.0984 -0.2542
   92c3c     H4 1168   0.127   0.643   2.005  0.7293  0.8872 -2.0202
   92c3c     H5 1169   0.407   0.397   2.096 -1.0900 -1.9803  2.6165
   92c3c     H6 1170   0.337   0.513   2.215 -1.8345  1.2974  0.3820
   92c3c     H7 1171   0.405   0.553   1.937  0.2024 -0.8857 -0.8304
   92c3c     H8 1172   0.348   0.660   2.053  0.9171 -1.1906  0.8870
   92c3c     H9 1173   0.182   0.231   1.893 -0.1532  0.4646  3.6368
   92c3c    H10 1174   0.188   0.352   1.773  1.3971 -1.2071 -1.1098
   92c3c    H11 1175   0.315   0.351   1.872 -0.0357  0.0740 -0.6013
   92c3c    H12 1176  -0.041   0.371   1.857  1.0920  1.8202 -0.4690
   92c3c    H13 1177  -0.008   0.284   1.999  1.1079  0.2304  1.0679
   92c3c     C7 1178  -0.102   0.465   2.038 -0.4006  0.0299 -0.7175
   92c3c    H14 1179  -0.092   0.570   2.011 -2.6183 -0.1249 -2.2675
   92c3c    H15 1180  -0.084   0.465   2.145 -0.7108  0.0730 -0.6654
   92c3c     C8 1181  -0.252   0.431   2.014  0.3259 -0.0388  0.1310
   92c3c    H16 1182  -0.266   0.332   2.057  1.9855 -2.0032 -3.5430
   92c3c    H17 1183  -0.285   0.443   1.910 -0.5635 -1.2309  0.2694
   92c3c    H18 1184  -0.313   0.485   2.085  2.1506 -1.4554  2.8535
   93c3c      N 1185   1.660   0.340   0.273 -0.1281  0.9967 -0.1200
   93c3c     C1 1186   1.770   0.347   0.377  0.6203  0.8843  0.5073
   93c3c     C2 1187   1.651   0.478   0.222 -0.0048 -0.1386  0.5047
   93c3c     C3 1188   1.873   0.449   0.316 -0.7536 -0.7936  0.4858
   93c3c     C4 1189   1.797   0.523   0.209  0.1980  0.0055 -0.8477
   93c3c     C5 1190   1.702   0.254   0.162 -0.6546 -0.2653 -0.7711
   93c3c     C6 1191   1.535   0.285   0.320  0.0738  0.2172  0.4841
   93c3c     H1 1192   1.804   0.252   0.419 -1.1536  0.8606  1.9636
   93c3c     H2 1193   1.733   0.393   0.469 -0.1559  0.1136  0.5914
   93c3c     H3 1194   1.603   0.474   0.124 -0.1351  2.4348  0.4260
   93c3c     H4 1195   1.595   0.546   0.286 -1.6889  1.2324 -2.3628
   93c3c     H5 1196   1.954   0.388   0.275  0.4404 -1.0213  3.0748
   93c3c     H6 1197   1.930   0.518   0.377  0.5193 -0.6983 -0.7842
   93c3c     H7 1198   1.833   0.495   0.110  0.7499 -1.4426 -0.2412
   93c3c     H8 1199   1.803   0.631   0.227  1.8566 -0.3380  0.8023
   93c3c     H9 1200   1.636   0.257   0.075  2.2588 -0.5549 -3.0813
   93c3c    H10 1201   1.798   0.273   0.114 -0.2048  0.0869  0.2634
   93c3c    H11 1202   1.705   0.155   0.206  2.2694  0.7228  1.3938
   93c3c    H12 1203   1.471   0.260   0.235 -0.4282 -3.4014  1.8468
   93c3c    H13 1204   1.541   0.184   0.360 -0.3239  0.6004  1.5159
   93c3c     C7 1205   1.456   0.366   0.427  0.7219 -0.1459 -0.0632
   93c3c    H14 1206   1.415   0.460   0.391  1.9708 -0.1040 -1.4296
   93c3c    H15 1207   1.533   0.383   0.503  1.9285 -0.0708 -1.2658
   93c3c     C8 1208   1.331   0.298   0.495  0.2118 -0.3363 -0.9552
   93c3c    H16 1209   1.258   0.259   0.424 -1.4164  0.9947 -0.0355
   93c3c    H17 1210   1.297   0.373   0.566  1.0785 -0.2872 -0.5733
   93c3c    H18 1211   1.357   0.213   0.558  2.1065 -0.4056 -1.7922
   94c3c      N 1212   2.966   2.120   2.079  0.0347  0.0092 -0.6955
   94c3c     C1 1213   2.893   1.997   2.090 -0.4435 -0.2576 -0.5738
   94c3c     C2 1214   3.006   2.153   2.220  0.7896  0.2273  0.5615
   94c3c     C3 1215   2.971   1.908   2.189 -0.3497  0.6502 -0.0253
   94c3c     C4 1216   3.035   2.015   2.275  0.1722  0.0205 -0.0538
   94c3c     C5 1217   3.092   2.107   1.998 -0.6145  0.2544  0.0960
   94c3c     C6 1218   2.887   2.227   2.015 -0.4762  0.1214 -0.6896
   94c3c     H1 1219   2.875   1.950   1.993 -2.0019 -0.5135 -0.1702
   94c3c     H2 1220   2.794   2.010   2.134 -0.2822  2.5331 -0.9540
   94c3c     H3 1221   3.096   2.213   2.235 -0.0039  1.5332  0.1936
   94c3c     H4 1222   2.929   2.200   2.281 -0.0079  0.3051 -0.4958
   94c3c     H5 1223   3.048   1.847   2.140  0.7882  3.9429 -2.5106
   94c3c     H6 1224   2.901   1.840   2.238 -1.3015  3.1300  2.1431
   94c3c     H7 1225   3.141   2.000   2.298  0.5468  0.1955 -1.6193
   94c3c     H8 1226   2.995   2.000   2.376  0.8284 -0.1895  0.1807
   94c3c     H9 1227   3.079   2.093   1.891 -1.3693 -1.1241  0.3542
   94c3c    H10 1228   3.158   2.194   2.008 -0.4721  0.1236  0.2930
   94c3c    H11 1229   3.150   2.024   2.038  1.5787  1.5154 -0.3687
   94c3c    H12 1230   2.942   2.320   2.031 -0.5450 -0.4175  3.2606
   94c3c    H13 1231   2.892   2.219   1.906  0.2181 -0.0625 -0.6471
   94c3c     C7 1232   2.741   2.249   2.066 -1.2094  0.1235  0.2253
   94c3c    H14 1233   2.743   2.262   2.174  0.7683  0.7276  0.1420
   94c3c    H15 1234   2.667   2.170   2.056  0.6903 -1.5878 -0.6598
   94c3c     C8 1235   2.671   2.365   1.996  0.2132 -0.2075 -0.1147
   94c3c    H16 1236   2.564   2.374   2.015  0.1233  3.6690 -1.9109
   94c3c    H17 1237   2.689   2.369   1.889 -1.7827  1.2942 -0.4354
   94c3c    H18 1238   2.706   2.461   2.035  0.9845 -0.8896  0.9114
   95c3c      N 1239   0.572   1.924   1.290 -0.6081 -0.6845 -0.1445
   95c3c     C1 1240   0.698   1.941   1.216  0.1295 -0.2475  0.2941
   95c3c     C2 1241   0.479   1.985   1.193  0.1955  0.7143 -0.2696
   95c3c     C3 1242   0.670   1.921   1.063 -0.1780 -1.1321 -0.3665
   95c3c     C4 1243   0.522   1.953   1.045 -0.7308  0.0302 -0.3951
   95c3c     C5 1244   0.553   1.778   1.304 -0.4945 -0.7668 -0.3657
   95c3c     C6 1245   0.554   1.985   1.428 -0.4420  0.0317 -0.3439
   95c3c     H1 1246   0.778   1.872   1.245 -0.6785 -0.8127  1.1899
   95c3c     H2 1247   0.736   2.042   1.230 -0.5731  0.1636 -0.7321
   95c3c     H3 1248   0.376   1.953   1.207 -0.0287  1.9369  0.9809
   95c3c     H4 1249   0.474   2.094   1.202 -0.0961  0.5936  1.2051
   95c3c     H5 1250   0.668   1.819   1.026 -0.3163 -1.1422 -0.3293
   95c3c     H6 1251   0.732   1.973   0.990 -4.0244  1.4437 -1.9366
   95c3c     H7 1252   0.473   1.861   1.012  1.1048 -1.6617  1.4044
   95c3c     H8 1253   0.494   2.042   0.990 -1.9498  0.7389  1.3410
   95c3c     H9 1254   0.457   1.756   1.350  0.3592  0.1427  1.9185
   95c3c    H10 1255   0.555   1.739   1.202 -1.9140 -0.9772 -0.3180
   95c3c    H11 1256   0.636   1.731   1.356 -0.2978  0.1847  0.1901
   95c3c    H12 1257   0.456   1.957   1.467 -0.6955  0.7596 -0.4435
   95c3c    H13 1258   0.622   1.928   1.491  0.5284  1.4018 -0.1475
   95c3c     C7 1259   0.583   2.134   1.443 -0.1384 -1.2782 -0.6992
   95c3c    H14 1260   0.528   2.194   1.371 -2.0387 -3.9065 -1.5031
   95c3c    H15 1261   0.689   2.153   1.423  0.3421  0.1608  2.9389
   95c3c     C8 1262   0.529   2.192   1.580  0.1783 -0.2375 -0.2355
   95c3c    H16 1263   0.583   2.132   1.652 -0.3930 -1.1258 -0.5335
   95c3c    H17 1264   0.423   2.175   1.601  0.4905  0.4139  1.9789
   95c3c    H18 1265   0.546   2.297   1.605  0.1023 -0.4567  0.7339
   96c3c      N 1266   1.616   0.873   2.270  0.0797 -0.5121 -1.1303
   96c3c     C1 1267   1.512   0.975   2.246 -0.4473  0.1408 -0.5047
   96c3c     C2 1268   1.724   0.911   2.178 -0.0265  0.0844  0.3906
   96c3c     C3 1269   1.594   1.099   2.234  0.7466 -0.0049  0.3946
   96c3c     C4 1270   1.729   1.063   2.173 -0.0607 -0.0177 -0.4097
   96c3c     C5 1271   1.668   0.873   2.409  0.1923  0.2253  0.1959
   96c3c     C6 1272   1.572   0.734   2.246 -0.1556 -0.2687  0.7958
   96c3c     H1 1273   1.437   0.996   2.322  0.9267 -0.4587  1.0538
   96c3c     H2 1274   1.453   0.955   2.156  1.1263 -1.6130 -1.1928
   96c3c     H3 1275   1.815   0.874   2.226 -0.4983 -1.2055  0.2933
   96c3c     H4 1276   1.720   0.880   2.074 -1.9692 -1.1632  0.8216
   96c3c     H5 1277   1.615   1.135   2.334  0.4598 -0.9134  0.7862
   96c3c     H6 1278   1.552   1.182   2.176  1.1247  0.9417  1.4619
   96c3c     H7 1279   1.803   1.115   2.233  0.2890 -0.0097 -0.8498
   96c3c     H8 1280   1.731   1.105   2.073  0.7392 -0.1083 -0.4382
   96c3c     H9 1281   1.580   0.849   2.469  1.0593 -3.6899  0.0603
   96c3c    H10 1282   1.749   0.801   2.420 -1.0830 -1.3894 -0.6783
   96c3c    H11 1283   1.700   0.969   2.448 -0.5734  1.1083 -1.3226
   96c3c    H12 1284   1.648   0.666   2.285  0.9284  1.6542  2.1063
   96c3c    H13 1285   1.479   0.707   2.295 -0.2069 -0.7858  0.4132
   96c3c     C7 1286   1.533   0.704   2.099 -0.6231 -1.1729  0.8260
   96c3c    H14 1287   1.619   0.718   2.033 -0.9027  0.7740  0.8499
   96c3c    H15 1288   1.455   0.773   2.069  0.2667 -0.0804  0.9723
   96c3c     C8 1289   1.484   0.556   2.090 -0.1638  1.2332  0.1655
   96c3c    H16 1290   1.399   0.539   2.156  0.6828 -1.9704  0.5393
   96c3c    H17 1291   1.562   0.488   2.124 -0.7944  0.4686  0.0920
   96c3c    H18 1292   1.469   0.526   1.987 -1.0623  3.2711 -0.3105
   97c3c      N 1293   1.270   1.681   1.884  0.2248 -0.0459 -0.2284
   97c3c     C1 1294   1.153   1.725   1.963  0.0611  0.1656  0.2087
   97c3c     C2 1295   1.197   1.587   1.799  0.4138  0.3200 -0.1263
   97c3c     C3 1296   1.031   1.745   1.865  0.5399  0.7875 -0.5425
   97c3c     C4 1297   1.065   1.647   1.745 -0.0942 -0.2375 -0.6559
   97c3c     C5 1298   1.325   1.794   1.807  0.3199 -0.6937 -0.2992
   97c3c     C6 1299   1.382   1.610   1.955  0.5050  0.3652 -0.5482
   97c3c     H1 1300   1.170   1.807   2.033  1.3845  0.3908 -0.3489
   97c3c     H2 1301   1.121   1.641   2.025  2.3534 -0.9186  0.0036
   97c3c     H3 1302   1.252   1.556   1.711 -0.3365  0.1376 -0.5327
   97c3c     H4 1303   1.164   1.492   1.841 -0.0504  0.9442  0.9479
   97c3c     H5 1304   1.037   1.841   1.813  0.2112  0.2372 -1.6166
   97c3c     H6 1305   0.929   1.733   1.903  0.7846 -3.0373 -0.9359
   97c3c     H7 1306   1.072   1.693   1.646 -1.5814  1.4889 -0.0063
   97c3c     H8 1307   0.998   1.561   1.742 -0.5280  0.0615  0.2307
   97c3c     H9 1308   1.382   1.855   1.877  0.1108  2.4957 -2.7772
   97c3c    H10 1309   1.392   1.757   1.730 -1.3946 -0.3349 -2.0221
   97c3c    H11 1310   1.250   1.857   1.759  0.7648  0.6079  0.6819
   97c3c    H12 1311   1.457   1.568   1.888 -0.6197 -0.6432 -1.1825
   97c3c    H13 1312   1.423   1.681   2.027 -2.1560 -1.2715  2.6891
   97c3c     C7 1313   1.336   1.493   2.045 -0.7958 -0.4178  0.2940
   97c3c    H14 1314   1.288   1.412   1.989 -0.8261 -0.1328 -0.0912
   97c3c    H15 1315   1.280   1.525   2.133  1.7703 -2.2320  2.6770
   97c3c     C8 1316   1.460   1.425   2.093  0.1110  0.3113  0.2886
   97c3c    H16 1317   1.545   1.482   2.129 -0.3777  0.3871  1.3334
   97c3c    H17 1318   1.498   1.357   2.017  0.8450  3.3145 -2.1481
   97c3c    H18 1319   1.442   1.362   2.180  0.2211 -1.2105 -0.7644
   98c3c      N 1320   2.136   1.284   2.560 -0.2810  0.0073  0.1539
   98c3c     C1 1321   2.039   1.355   2.643 -0.0536  0.0828 -0.8920
   98c3c     C2 1322   2.043   1.180   2.501 -0.1571 -0.2592 -0.0024
   98c3c     C3 1323   1.901   1.365   2.561 -0.0036  0.4510 -0.1758
   98c3c     C4 1324   1.916   1.253   2.456 -0.2047  0.1564 -1.2163
   98c3c     C5 1325   2.192   1.380   2.459  0.3815 -0.2498  0.3716
   98c3c     C6 1326   2.247   1.222   2.638  0.3336 -0.0719  0.4568
   98c3c     H1 1327   2.064   1.460   2.660  0.1351 -0.0348 -0.4472
   98c3c     H2 1328   2.036   1.316   2.745  0.4271 -2.8479 -1.9552
   98c3c     H3 1329   2.077   1.125   2.413 -2.1303 -1.6007  0.0413
   98c3c     H4 1330   2.013   1.102   2.572 -1.5165 -0.1636 -0.4600
   98c3c     H5 1331   1.895   1.463   2.514  4.7734  1.2430  0.6535
   98c3c     H6 1332   1.823   1.351   2.635  1.7824  0.2139  1.7120
   98c3c     H7 1333   1.939   1.297   2.359  2.5130  0.9803 -0.2364
   98c3c     H8 1334   1.826   1.192   2.448 -0.3796  0.3672 -0.8521
   98c3c     H9 1335   2.266   1.331   2.396  1.7070  0.0468  1.6752
   98c3c    H10 1336   2.112   1.416   2.395  0.8513 -1.9707 -1.2155
   98c3c    H11 1337   2.246   1.460   2.510 -0.4060 -0.9040  2.3047
   98c3c    H12 1338   2.299   1.150   2.574 -1.3096 -1.5976  0.8037
   98c3c    H13 1339   2.324   1.294   2.666  0.3537 -0.6668  1.9507
   98c3c     C7 1340   2.202   1.124   2.755 -0.8104 -0.0882  0.1534
   98c3c    H14 1341   2.114   1.062   2.740 -1.7160  0.7154  1.9991
   98c3c    H15 1342   2.170   1.197   2.829  2.4385  1.5312  0.0567
   98c3c     C8 1343   2.316   1.047   2.828  0.3411 -0.0497  1.1198
   98c3c    H16 1344   2.354   0.977   2.754  2.9833  1.0070  1.4184
   98c3c    H17 1345   2.284   0.987   2.914  1.8248 -1.0210  1.0161
   98c3c    H18 1346   2.403   1.107   2.857 -0.7923  0.9740  2.4780
   99c3c      N 1347   2.279   0.909   1.942  0.2637 -0.3808  0.2822
   99c3c     C1 1348   2.217   0.950   2.069  0.2048  0.0871  0.3512
   99c3c     C2 1349   2.167   0.871   1.859 -0.1274  0.2487  0.1440
   99c3c     C3 1350   2.113   1.037   2.027  0.1426  0.2348 -0.5998
   99c3c     C4 1351   2.057   0.975   1.892 -0.1694  0.2624 -0.2630
   99c3c     C5 1352   2.352   1.019   1.883 -0.1751  0.2668 -0.4317
   99c3c     C6 1353   2.374   0.794   1.976  0.4276  0.9354 -0.2929
   99c3c     H1 1354   2.282   1.004   2.138  0.9920 -1.1438  0.5885
   99c3c     H2 1355   2.162   0.872   2.123  0.1577  0.8379  1.4085
   99c3c     H3 1356   2.188   0.872   1.751 -0.0063 -0.9418  0.1511
   99c3c     H4 1357   2.119   0.777   1.884 -0.5655  0.2356 -0.7275
   99c3c     H5 1358   2.165   1.132   2.023  0.9294 -0.1815 -0.3151
   99c3c     H6 1359   2.039   1.057   2.105  1.1909 -0.5354  0.6011
   99c3c     H7 1360   2.047   1.043   1.808  0.4280  1.6581  0.7539
   99c3c     H8 1361   1.963   0.927   1.918  0.3883 -0.5857  0.2097
   99c3c     H9 1362   2.427   1.057   1.952 -0.9307  0.6751  0.1644
   99c3c    H10 1363   2.420   0.981   1.806 -0.5729 -4.0725  1.2004
   99c3c    H11 1364   2.291   1.098   1.841  0.3700  0.2307 -1.3088
   99c3c    H12 1365   2.431   0.783   1.883  0.4094  3.2414 -0.6018
   99c3c    H13 1366   2.456   0.814   2.044  1.1358  0.1524 -0.8959
   99c3c     C7 1367   2.307   0.664   2.008 -0.1743  0.4722  0.6704
   99c3c    H14 1368   2.258   0.632   1.916 -3.1439  2.5364  1.4575
   99c3c    H15 1369   2.243   0.668   2.095 -0.1741  0.9447  0.6490
   99c3c     C8 1370   2.409   0.560   2.039 -0.4389  0.5055  0.1562
   99c3c    H16 1371   2.437   0.536   2.141  1.4134  1.1834 -0.1623
   99c3c    H17 1372   2.502   0.588   1.988  1.3486  0.3403  3.2329
   99c3c    H18 1373   2.366   0.469   1.998  1.0511  0.0218 -0.3687
  100c3c      N 1374   2.357   2.271   2.729 -0.5005 -0.1259 -0.0238
  100c3c     C1 1375   2.317   2.154   2.809  0.0678 -0.2193  0.5956
  100c3c     C2 1376   2.270   2.266   2.613  0.2223 -0.9240  0.6566
  100c3c     C3 1377   2.292   2.041   2.695 -0.5161  0.5369 -0.0357
  100c3c     C4 1378   2.269   2.121   2.561 -0.4325 -0.1017  0.3835
  100c3c     C5 1379   2.332   2.398   2.802 -0.6260 -0.3991 -0.0448
  100c3c     C6 1380   2.498   2.258   2.705  0.0781 -0.0185  0.2251
  100c3c     H1 1381   2.225   2.172   2.866 -0.5395 -0.2763 -0.3539
  100c3c     H2 1382   2.388   2.134   2.889  0.0220 -1.3024  0.3868
  100c3c     H3 1383   2.168   2.292   2.643  0.9517  1.5391  1.1273
  100c3c     H4 1384   2.303   2.338   2.539 -1.7430  0.8906  1.5204
  100c3c     H5 1385   2.216   1.968   2.722  0.7125  0.1525  2.5729
  100c3c     H6 1386   2.382   1.980   2.683 -0.9326  0.0235 -0.5638
  100c3c     H7 1387   2.176   2.095   2.512 -0.2586 -0.0656  0.0266
  100c3c     H8 1388   2.347   2.116   2.485  2.0720  1.3096  2.7419
  100c3c     H9 1389   2.385   2.394   2.898 -2.7547  1.1321  1.2412
  100c3c    H10 1390   2.361   2.491   2.755 -2.2107  1.1764  1.9946
  100c3c    H11 1391   2.229   2.406   2.836 -0.4526  0.5717  0.2698
  100c3c    H12 1392   2.547   2.270   2.801  0.2113  2.9518 -0.1715
  100c3c    H13 1393   2.524   2.156   2.675  0.6839  0.7653 -1.9981
  100c3c     C7 1394   2.562   2.362   2.607  0.0938  0.5499  0.2232
  100c3c    H14 1395   2.555   2.460   2.654  2.2869  0.5893  0.5340
  100c3c    H15 1396   2.504   2.369   2.515 -1.6833 -0.9023  1.1862
  100c3c     C8 1397   2.705   2.325   2.567  0.4453  0.0961  0.4546
  100c3c    H16 1398   2.749   2.382   2.486  0.2233 -1.7736 -1.0044
  100c3c    H17 1399   2.716   2.222   2.534 -1.9981 -0.2365  0.6038
  100c3c    H18 1400   2.767   2.344   2.655  0.8695  0.2106  0.1334
  101fsi     F1 1401   0.584   2.735   2.044  0.0001 -0.9451  0.0103
  101fsi     S1 1402   0.585   2.810   1.905 -0.0186 -0.0011 -0.1848
  101fsi      N 1403   0.619   2.958   1.941  0.2210  0.3212 -0.2879
  101fsi     O1 1404   0.687   2.748   1.828  0.4570 -0.0119 -0.4207
  101fsi     O2 1405   0.449   2.794   1.861 -0.2067 -0.0780  0.0528
  101fsi     S2 1406   0.516   3.073   1.988  0.5784  0.1508 -0.0217
  101fsi     O3 1407   0.376   3.048   1.992  0.1125  0.0900  0.2306
  101fsi     O4 1408   0.554   3.195   1.928 -0.5844 -0.0084  0.1068
  101fsi     F2 1409   0.549   3.090   2.129  0.4349 -0.0817  0.0345
  102fsi     F1 1410   2.879   1.264   1.323  0.6141 -0.3485 -0.2413
  102fsi     S1 1411   2.990   1.276   1.206 -0.2165 -0.3100  0.0089
  102fsi      N 1412   2.901   1.335   1.087  0.1276 -0.7881  0.4174
  102fsi     O1 1413   3.096   1.354   1.248 -0.0167  0.3194 -0.0648
  102fsi     O2 1414   3.026   1.143   1.163  0.0243 -0.3770  0.6538
  102fsi     S2 1415   2.851   1.484   1.075 -0.0640 -0.0568  0.0065
  102fsi     O3 1416   2.769   1.498   0.956 -0.9334 -0.2241 -0.6564
  102fsi     O4 1417   2.957   1.581   1.090  0.2430 -0.1455  0.4665
  102fsi     F2 1418   2.751   1.493   1.197 -0.0031  0.2581 -0.6565
  103fsi     F1 1419   1.038   1.147   0.441 -0.0248  0.4914  0.0099
  103fsi     S1 1420   1.067   1.110   0.287  0.1888 -0.3155 -0.6760
  103fsi      N 1421   1.102   0.954   0.296 -0.3185 -0.2708  0.2359
  103fsi     O1 1422   0.944   1.135   0.222 -1.0530  0.3444  0.3840
  103fsi     O2 1423   1.187   1.190   0.253  0.0369 -0.0833  0.0513
  103fsi     S2 1424   1.009   0.826   0.278  0.3744  0.8009  0.0243
  103fsi     O3 1425   1.083   0.702   0.251 -0.1229 -0.1767 -0.4113
  103fsi     O4 1426   0.894   0.834   0.196  0.0036 -0.3822 -0.5813
  103fsi     F2 1427   0.951   0.789   0.420 -0.4412  0.3200  0.1433
  104fsi     F1 1428   1.026   1.181   0.914  0.0402 -0.5365 -0.4691
  104fsi     S1 1429   0.957   1.054   0.978 -0.1250 -0.0279  0.2049
  104fsi      N 1430   0.913   0.984   0.846 -0.5523  0.2596  0.9104
  104fsi     O1 1431   1.068   0.996   1.046 -0.4112  0.5326  0.4722
  104fsi     O2 1432   0.852   1.110   1.064 -0.4987  0.3113 -0.4359
  104fsi     S2 1433   0.783   0.972   0.758 -0.4160  0.0804 -0.0356
  104fsi     O3 1434   0.673   1.058   0.794  0.0725 -0.3605 -0.4103
  104fsi     O4 1435   0.760   0.833   0.724 -0.2231 -0.1264 -0.1584
  104fsi     F2 1436   0.838   1.035   0.625 -0.1995 -0.2384  0.7596
  105fsi     F1 1437   1.292   2.560   2.194  0.5321 -0.0886  0.8118
  105fsi     S1 1438   1.183   2.666   2.177 -0.0704  0.2598  0.2613
  105fsi      N 1439   1.080   2.592   2.079 -0.2386  0.0923  0.6384
  105fsi     O1 1440   1.133   2.696   2.307 -0.2979  0.0740 -0.4422
  105fsi     O2 1441   1.257   2.767   2.111 -0.2819  0.1685  0.0118
  105fsi     S2 1442   0.970   2.488   2.103 -0.0417  0.5500 -0.1525
  105fsi     O3 1443   0.880   2.474   1.994 -0.1500 -0.2441  0.0116
  105fsi     O4 1444   0.915   2.480   2.235 -0.3508 -0.3542 -0.3953
  105fsi     F2 1445   1.038   2.348   2.093 -0.3140 -0.1106  0.1249
  106fsi     F1 1446   2.542   2.522   2.250 -0.1272 -0.3399 -0.3505
  106fsi     S1 1447   2.424   2.596   2.196 -0.2613  0.0933  0.0314
  106fsi      N 1448   2.485   2.642   2.054  0.1474 -0.4061  0.2690
  106fsi     O1 1449   2.328   2.493   2.186 -0.9573 -0.3033  0.4648
  106fsi     O2 1450   2.398   2.701   2.290  0.4048  0.1999 -0.5859
  106fsi     S2 1451   2.544   2.779   2.009 -0.0867 -0.0838 -0.0579
  106fsi     O3 1452   2.643   2.761   1.907  0.5734  0.2630 -0.0065
  106fsi     O4 1453   2.573   2.878   2.116  0.1466 -0.3575  0.6179
  106fsi     F2 1454   2.425   2.842   1.930 -0.0498 -0.4027  0.0473
  107fsi     F1 1455   0.474   2.011   2.848  0.1017  0.5065  0.1914
  107fsi     S1 1456   0.425   1.985   2.995 -0.0174 -0.0297 -0.0353
  107fsi      N 1457   0.269   1.982   2.975  0.1331 -0.9033  0.2243
  107fsi     O1 1458   0.485   1.857   3.020 -0.2378 -0.1021 -0.2401
  107fsi     O2 1459   0.467   2.104   3.074 -0.1807  0.2039  0.0106
  107fsi     S2 1460   0.186   1.868   2.912  0.0506 -0.2808 -0.1083
  107fsi     O3 1461   0.260   1.755   2.869  0.0398  0.3376  0.6206
  107fsi     O4 1462   0.078   1.909   2.828 -0.0755  0.5324 -0.0216
  107fsi     F2 1463   0.115   1.804   3.041 -0.3597  0.3761 -0.3118
  108fsi     F1 1464   1.210   0.918   0.013  0.2786  0.1293 -0.0411
  108fsi     S1 1465   1.120   0.956  -0.116  0.1984 -0.5984 -0.0747
  108fsi      N 1466   1.175   1.104  -0.140 -0.4165  0.1961  0.8431
  108fsi     O1 1467   1.166   0.860  -0.212 -0.0047 -0.3493  0.7951
  108fsi     O2 1468   0.986   0.951  -0.072  0.2309  0.0731  0.3090
  108fsi     S2 1469   1.109   1.240  -0.113  0.2813 -0.2403  0.4898
  108fsi     O3 1470   1.188   1.325  -0.027 -0.6796 -0.3566  0.0996
  108fsi     O4 1471   0.964   1.236  -0.099 -0.3155  0.3152 -0.1813
  108fsi     F2 1472   1.123   1.312  -0.251 -0.3519 -0.4148  0.4549
  109fsi     F1 1473   2.020   1.347   0.805  0.3726 -0.2536  0.2230
  109fsi     S1 1474   1.999   1.486   0.882  0.2682 -0.1220 -0.0782
  109fsi      N 1475   2.122   1.574   0.830  0.3840  0.1913  0.1071
  109fsi     O1 1476   1.871   1.542   0.840  0.0031 -0.3078 -0.0619
  109fsi     O2 1477   2.009   1.442   1.021  0.2251  0.0268 -0.0299
  109fsi     S2 1478   2.268   1.596   0.895  0.3766  0.0415 -0.1496
  109fsi     O3 1479   2.364   1.572   0.792 -0.3016  0.1283 -0.6023
  109fsi     O4 1480   2.287   1.534   1.022 -0.6570  0.0332 -0.7032
  109fsi     F2 1481   2.273   1.749   0.929 -0.1659 -0.1091  0.1289
  110fsi     F1 1482   2.221   0.260   0.642  0.3803  0.3558  0.0513
  110fsi     S1 1483   2.186   0.309   0.500 -0.0685 -0.1727 -0.1572
  110fsi      N 1484   2.076   0.202   0.460  0.2546 -0.1359  0.2783
  110fsi     O1 1485   2.133   0.434   0.531  0.3880  0.5596  0.2642
  110fsi     O2 1486   2.306   0.302   0.432 -0.2406  0.2532  0.2025
  110fsi     S2 1487   2.090   0.083   0.354  0.1135  0.0169  0.0616
  110fsi     O3 1488   2.199   0.100   0.262 -0.4657 -0.2395  0.1201
  110fsi     O4 1489   1.960   0.044   0.303  0.3347 -0.3838 -0.0034
  110fsi     F2 1490   2.135  -0.040   0.441 -0.4307  0.3699 -0.1522
  111fsi     F1 1491   0.775   1.632   1.029  0.3361 -0.0211 -0.0795
  111fsi     S1 1492   0.874   1.532   1.098 -0.2118  0.2067  0.1263
  111fsi      N 1493   0.868   1.562   1.249 -0.3774  0.6505 -0.4153
  111fsi     O1 1494   0.825   1.402   1.060 -0.2867 -0.2407 -0.3582
  111fsi     O2 1495   1.002   1.568   1.046  0.3752 -0.1240 -0.1112
  111fsi     S2 1496   0.949   1.658   1.343  0.3837  0.0513 -0.1240
  111fsi     O3 1497   0.872   1.712   1.453  0.4525 -0.2745  0.0984
  111fsi     O4 1498   1.037   1.744   1.275  0.4226 -0.7035  0.2082
  111fsi     F2 1499   1.047   1.566   1.415 -0.2910 -0.0102 -0.1866
  112fsi     F1 1500   2.844   0.034   2.115  0.2260 -0.3832 -0.3131
  112fsi     S1 1501   2.982  -0.007   2.177 -0.1044 -0.1541 -0.6404
  112fsi      N 1502   2.934  -0.107   2.287 -0.1116  0.2894 -0.0945
  112fsi     O1 1503   3.057  -0.056   2.065 -0.1485  0.1771  0.7053
  112fsi     O2 1504   3.031   0.119   2.223  0.3969  0.4762 -0.4481
  112fsi     S2 1505   2.876  -0.249   2.265  0.1399  0.1109 -0.1717
  112fsi     O3 1506   2.885  -0.301   2.128  0.3929 -0.4998  0.0333
  112fsi     O4 1507   2.750  -0.266   2.332 -0.0253  0.9170  0.5249
  112fsi     F2 1508   2.989  -0.332   2.335 -0.2588  0.2338  0.2029
  113fsi     F1 1509   0.613   0.173   0.380 -0.5039 -0.2507  0.3924
  113fsi     S1 1510   0.597   0.052   0.284 -0.1994  0.1403 -0.2821
  113fsi      N 1511   0.721   0.061   0.193 -1.6018 -0.1825  0.1225
  113fsi     O1 1512   0.603  -0.060   0.379 -0.2330 -0.0035  0.0474
  113fsi     O2 1513   0.465   0.068   0.224  0.8299 -0.2509 -0.6679
  113fsi     S2 1514   0.729   0.141   0.057 -0.1301  0.3932  0.0685
  113fsi     O3 1515   0.612   0.142  -0.030  0.0915  0.0634 -0.1927
  113fsi     O4 1516   0.861   0.114   0.001  0.4519 -0.3567 -0.2848
  113fsi     F2 1517   0.750   0.294   0.099  0.2356  0.1306  0.1457
  114fsi     F1 1518   2.391   0.787   2.304  0.2190 -0.0624 -0.2320
  114fsi     S1 1519   2.399   0.875   2.432 -0.3678  0.0761  0.1418
  114fsi      N 1520   2.420   0.773   2.544 -0.3162 -0.0931  0.2058
  114fsi     O1 1521   2.519   0.953   2.423 -0.9480  0.0081 -0.0791
  114fsi     O2 1522   2.279   0.956   2.429  0.2106 -0.1455 -0.5152
  114fsi     S2 1523   2.306   0.693   2.622 -0.2043  0.1096 -0.0698
  114fsi     O3 1524   2.176   0.751   2.623  0.0707  0.2098  0.3116
  114fsi     O4 1525   2.359   0.654   2.748  0.0427  0.1182 -0.2906
  114fsi     F2 1526   2.292   0.561   2.542  0.3379  0.1246  0.4817
  115fsi     F1 1527   1.044   1.659   2.910 -0.1264 -0.6763  0.0954
  115fsi     S1 1528   0.906   1.673   2.840 -0.2368  0.5100  0.3918
  115fsi      N 1529   0.926   1.808   2.761  0.4460 -0.8202 -0.4485
  115fsi     O1 1530   0.898   1.556   2.753  0.1656  0.4404  0.7063
  115fsi     O2 1531   0.809   1.678   2.948 -0.0881  0.0625  0.0142
  115fsi     S2 1532   0.879   1.951   2.793  0.0679  0.3786  0.3388
  115fsi     O3 1533   0.979   2.055   2.770 -0.2975  0.2823  0.0085
  115fsi     O4 1534   0.793   1.957   2.907  0.1827  0.0238 -0.0665
  115fsi     F2 1535   0.775   1.973   2.677 -0.1807 -0.1922 -0.0377
  116fsi     F1 1536   1.598   0.022   1.507 -0.5702  0.1109 -0.9740
  116fsi     S1 1537   1.725   0.103   1.549 -0.1120  0.4085  0.1540
  116fsi      N 1538   1.830  -0.014   1.580 -0.2858 -0.0036 -0.6492
  116fsi     O1 1539   1.749   0.175   1.425 -0.2682  0.2161  0.3630
  116fsi     O2 1540   1.689   0.183   1.661  0.0032 -0.4646 -0.2668
  116fsi     S2 1541   1.960  -0.054   1.496  0.0181 -0.0780 -0.0565
  116fsi     O3 1542   1.992   0.041   1.392 -0.5767  0.3246 -0.9065
  116fsi     O4 1543   1.970  -0.192   1.465 -0.1082 -0.5023 -0.3649
  116fsi     F2 1544   2.081  -0.033   1.599 -0.1616 -0.6128 -0.1040
  117fsi     F1 1545   1.033   2.219   1.781 -0.1246 -0.0267 -0.1042
  117fsi     S1 1546   0.891   2.186   1.727 -0.0550 -0.0322 -0.2071
  117fsi      N 1547   0.887   2.246   1.580  0.1232  0.1512 -0.0486
  117fsi     O1 1548   0.886   2.041   1.738  0.5004 -0.0423  0.0722
  117fsi     O2 1549   0.807   2.257   1.816 -0.0293  0.0766  0.2967
  117fsi     S2 1550   0.887   2.398   1.543  0.1473  0.3534 -0.3941
  117fsi     O3 1551   0.844   2.490   1.651 -0.4706  0.1506 -0.8177
  117fsi     O4 1552   0.827   2.420   1.413 -0.0914 -0.2830 -0.8785
  117fsi     F2 1553   1.041   2.431   1.522 -0.5195  0.0850 -0.2735
  118fsi     F1 1554   1.327   1.088   1.663 -0.0089 -0.5825  0.1097
  118fsi     S1 1555   1.374   0.986   1.565 -0.7745  0.0934  0.1403
  118fsi      N 1556   1.519   0.958   1.624 -0.8519 -0.2632 -0.6118
  118fsi     O1 1557   1.284   0.881   1.577  0.1171 -0.1260 -0.2923
  118fsi     O2 1558   1.370   1.062   1.441 -0.0426  0.2188 -0.2074
  118fsi     S2 1559   1.570   0.842   1.709 -0.2881  0.0285  0.0094
  118fsi     O3 1560   1.471   0.758   1.755  0.2523 -0.0204 -0.2305
  118fsi     O4 1561   1.676   0.880   1.803 -0.5990 -0.1245 -0.1762
  118fsi     F2 1562   1.632   0.748   1.604 -0.2410  0.4595  0.7864
  119fsi     F1 1563   2.544   1.485   1.384 -0.5075 -0.2058 -0.6071
  119fsi     S1 1564   2.589   1.464   1.532 -0.0273  0.1029 -0.6635
  119fsi      N 1565   2.456   1.455   1.612 -0.1710  0.4865  0.4587
  119fsi     O1 1566   2.675   1.349   1.531  0.2437  0.1100  0.1275
  119fsi     O2 1567   2.653   1.597   1.554 -0.0814 -0.4227 -0.4356
  119fsi     S2 1568   2.383   1.342   1.691 -0.3431  0.2153  0.5539
  119fsi     O3 1569   2.454   1.217   1.668  0.2519  0.5173  0.0543
  119fsi     O4 1570   2.238   1.340   1.669 -0.3894 -0.1950 -0.6999
  119fsi     F2 1571   2.386   1.367   1.844  0.2300  0.3206 -0.0416
  120fsi     F1 1572   1.729   0.511   2.834  0.4997 -0.1493 -0.3307
  120fsi     S1 1573   1.833   0.421   2.758 -0.3308 -0.1220 -0.4310
  120fsi      N 1574   1.919   0.366   2.874  0.4525 -0.4437 -0.2109
  120fsi     O1 1575   1.760   0.313   2.694 -0.0061 -0.2647 -0.2599
  120fsi     O2 1576   1.894   0.519   2.672  0.4897  0.0100 -0.3411
  120fsi     S2 1577   2.060   0.413   2.927  0.0973 -0.2836  0.0384
  120fsi     O3 1578   2.100   0.352   3.054 -0.3111  0.0807 -0.4219
  120fsi     O4 1579   2.068   0.557   2.912 -0.0069 -0.1290 -0.5821
  120fsi     F2 1580   2.156   0.347   2.821  0.4581  0.0519 -0.2967
  121fsi     F1 1581   2.676   1.041   2.927  0.4532  0.2490 -0.1306
  121fsi     S1 1582   2.710   0.956   2.794  0.1730  0.2130 -0.2612
  121fsi      N 1583   2.850   0.890   2.828 -0.0883 -0.5889  0.3139
  121fsi     O1 1584   2.597   0.865   2.787 -0.2049  0.5934  0.1516
  121fsi     O2 1585   2.717   1.058   2.692  0.3848 -0.2050 -0.4057
  121fsi     S2 1586   2.882   0.746   2.875 -0.4215  0.2349  0.1956
  121fsi     O3 1587   3.023   0.731   2.897 -0.1975  0.1472 -0.0487
  121fsi     O4 1588   2.818   0.639   2.807  0.3647 -0.1475 -0.4605
  121fsi     F2 1589   2.819   0.743   3.019  0.0026 -0.5618 -0.3991
  122fsi     F1 1590   0.327   1.718   0.710 -0.3102 -0.0749  0.3083
  122fsi     S1 1591   0.257   1.833   0.789 -0.0551  0.3165 -0.0367
  122fsi      N 1592   0.128   1.847   0.700  0.3640 -0.7526 -0.5403
  122fsi     O1 1593   0.225   1.769   0.918 -0.0314  0.5657 -0.1783
  122fsi     O2 1594   0.355   1.933   0.783 -0.0755 -0.2457 -0.0555
  122fsi     S2 1595   0.071   1.964   0.605  0.1312 -0.1303  0.1556
  122fsi     O3 1596   0.130   2.092   0.631  0.2676 -0.4569  0.2153
  122fsi     O4 1597  -0.070   1.961   0.584 -0.6863 -0.2321 -0.2217
  122fsi     F2 1598   0.131   1.925   0.470 -0.2475  0.0592  0.0598
  123fsi     F1 1599   0.823   0.393   0.536  0.0218  0.2537 -0.5014
  123fsi     S1 1600   0.959   0.375   0.457  0.0160 -0.2566 -0.2420
  123fsi      N 1601   1.001   0.226   0.500  0.4165 -0.0078 -0.0068
  123fsi     O1 1602   0.911   0.390   0.320 -0.4397  0.6191 -0.2277
  123fsi     O2 1603   1.054   0.479   0.507  0.0686 -0.3254  0.2120
  123fsi     S2 1604   1.020   0.089   0.417  0.0610  0.0419 -0.0194
  123fsi     O3 1605   1.130   0.018   0.471 -0.4059  0.3292 -0.0001
  123fsi     O4 1606   1.016   0.109   0.278  0.0643 -0.1922  0.2509
  123fsi     F2 1607   0.890   0.002   0.450  0.5632  0.3193  0.3263
  124fsi     F1 1608   0.509   2.210   0.355  0.2858  0.1223 -0.3748
  124fsi     S1 1609   0.405   2.109   0.412  0.0004 -0.1516  0.1428
  124fsi      N 1610   0.439   1.974   0.338 -0.7616  0.1598 -0.5385
  124fsi     O1 1611   0.434   2.120   0.551  0.6498 -0.0876 -0.2676
  124fsi     O2 1612   0.279   2.163   0.366 -0.4724 -0.8132  0.6787
  124fsi     S2 1613   0.530   1.856   0.387 -0.0692  0.0834  0.1940
  124fsi     O3 1614   0.586   1.858   0.516 -0.8660 -0.3460 -0.3133
  124fsi     O4 1615   0.611   1.812   0.280 -0.2362  0.2383 -0.5511
  124fsi     F2 1616   0.428   1.738   0.404  0.2784 -0.5144  0.2162
  125fsi     F1 1617   1.288   1.358   0.825 -0.2944 -0.1173 -0.1293
  125fsi     S1 1618   1.378   1.462   0.908 -0.1369  0.2804  0.1059
  125fsi      N 1619   1.421   1.374   1.031 -0.4132 -0.0849 -0.0140
  125fsi     O1 1620   1.488   1.491   0.818  0.7426 -0.0987  0.0885
  125fsi     O2 1621   1.290   1.570   0.935 -0.3890  0.4072 -0.3777
  125fsi     S2 1622   1.351   1.345   1.166 -0.0352 -0.1177  0.2129
  125fsi     O3 1623   1.312   1.206   1.170  0.4160 -0.2957  0.3922
  125fsi     O4 1624   1.252   1.445   1.208  0.2310  0.3666 -0.7030
  125fsi     F2 1625   1.463   1.368   1.277 -0.2977  0.4993 -0.2323
  126fsi     F1 1626   0.096   2.370   1.063  0.8701 -0.2802 -0.0947
  126fsi     S1 1627   0.117   2.219   1.022  0.0448 -0.1111 -0.1398
  126fsi      N 1628   0.141   2.159   1.166  0.1886  0.5372  0.2650
  126fsi     O1 1629  -0.010   2.180   0.964  0.4589  0.8607 -0.1267
  126fsi     O2 1630   0.235   2.222   0.942  0.7778  0.6556  0.2078
  126fsi     S2 1631   0.068   2.038   1.230  0.5824 -0.1144  0.0628
  126fsi     O3 1632   0.103   2.026   1.369  0.3668 -0.4743 -0.0217
  126fsi     O4 1633   0.072   1.919   1.151 -0.1272  0.2484 -0.2227
  126fsi     F2 1634  -0.084   2.071   1.235 -0.3741  0.0473  0.3113
  127fsi     F1 1635   1.354   2.809   0.098  0.6680  0.2397 -0.3858
  127fsi     S1 1636   1.335   2.970   0.087 -0.4377 -0.4048 -0.1531
  127fsi      N 1637   1.461   3.018   0.007 -0.3476  0.1642  0.4860
  127fsi     O1 1638   1.213   2.993   0.017 -0.9552  0.1711  0.3581
  127fsi     O2 1639   1.338   3.009   0.221 -0.1085 -0.1410 -0.6762
  127fsi     S2 1640   1.489   3.041  -0.145 -0.1296 -0.0460  0.2346
  127fsi     O3 1641   1.375   3.068  -0.223 -0.0526 -0.1977 -0.0627
  127fsi     O4 1642   1.590   2.953  -0.199  0.0085  0.1029 -0.2719
  127fsi     F2 1643   1.570   3.175  -0.148 -0.2653  0.2671 -0.1995
  128fsi     F1 1644   0.478   1.542   2.281  0.0228 -0.1611  0.5677
  128fsi     S1 1645   0.352   1.484   2.202  0.2776  0.3288  0.2682
  128fsi      N 1646   0.241   1.477   2.311  0.1652 -0.2659  0.0082
  128fsi     O1 1647   0.334   1.588   2.106 -0.0448  0.0209 -0.1830
  128fsi     O2 1648   0.401   1.355   2.157 -0.0256  0.2521 -0.1915
  128fsi     S2 1649   0.126   1.581   2.347 -0.4903 -0.5306 -0.2143
  128fsi     O3 1650   0.161   1.714   2.335 -0.0196 -0.3321 -0.5203
  128fsi     O4 1651   0.068   1.549   2.469  0.2162 -0.1169 -0.0695
  128fsi     F2 1652   0.008   1.554   2.246  0.2906 -0.6294  0.0305
  129fsi     F1 1653   1.571   0.972   0.058  0.1556  0.5602 -0.4520
  129fsi     S1 1654   1.588   0.855  -0.034 -0.0547 -0.1153  0.0069
  129fsi      N 1655   1.684   0.928  -0.136  0.3114  0.1348  0.1598
  129fsi     O1 1656   1.651   0.743   0.041 -0.1283  0.4892  0.6660
  129fsi     O2 1657   1.464   0.832  -0.099 -0.1389 -0.1433  0.9115
  129fsi     S2 1658   1.835   0.912  -0.173  0.1817  0.2807  0.3063
  129fsi     O3 1659   1.849   0.832  -0.292  0.2608 -0.9411 -0.1030
  129fsi     O4 1660   1.921   0.884  -0.061  0.0245  0.3882  0.5452
  129fsi     F2 1661   1.877   1.051  -0.210  0.3212 -0.2674  0.5422
  130fsi     F1 1662   0.016   0.809   0.816 -0.1521 -0.1391  0.5601
  130fsi     S1 1663   0.124   0.752   0.916  0.1962  0.2949  0.2247
  130fsi      N 1664   0.034   0.654   1.001 -0.3593  0.7442 -0.1433
  130fsi     O1 1665   0.220   0.684   0.834  0.7887  0.2129  0.2432
  130fsi     O2 1666   0.161   0.874   0.988  0.0535  0.2380 -0.2081
  130fsi     S2 1667   0.011   0.633   1.151 -0.0278 -0.2313  0.1156
  130fsi     O3 1668  -0.110   0.563   1.181 -0.4815 -0.1224  0.0769
  130fsi     O4 1669   0.054   0.740   1.239 -0.0970  0.0840  0.2455
  130fsi     F2 1670   0.120   0.526   1.179  0.8346 -0.5270  0.1855
  131fsi     F1 1671   2.900   1.095   1.832 -0.3184  0.6760  0.2188
  131fsi     S1 1672   2.779   1.035   1.746 -0.1419  0.2539  0.0831
  131fsi      N 1673   2.822   0.884   1.728 -0.3548 -0.3354 -0.4429
  131fsi     O1 1674   2.659   1.047   1.824  0.1835 -0.3981 -0.7412
  131fsi     O2 1675   2.785   1.101   1.619 -0.4175 -0.4080 -0.4077
  131fsi     S2 1676   2.810   0.760   1.816 -0.2333  0.3766  0.2065
  131fsi     O3 1677   2.789   0.789   1.957 -0.4223  0.0618 -0.9078
  131fsi     O4 1678   2.907   0.663   1.779 -0.0192  0.6370  0.4303
  131fsi     F2 1679   2.678   0.682   1.769 -0.5545 -0.1363 -0.0046
  132fsi     F1 1680   2.198   1.050   0.755 -0.3491 -0.2772 -0.0121
  132fsi     S1 1681   2.148   0.915   0.700 -0.0261  0.0057  0.2550
  132fsi      N 1682   2.208   0.814   0.803  0.4305  0.9882  0.3369
  132fsi     O1 1683   2.005   0.928   0.707  0.1097 -0.1126  0.4238
  132fsi     O2 1684   2.210   0.907   0.572 -0.6928  0.0430  0.2307
  132fsi     S2 1685   2.137   0.736   0.919 -0.0652  0.0026  0.1294
  132fsi     O3 1686   2.214   0.617   0.956  0.5724  0.4495  0.2659
  132fsi     O4 1687   1.994   0.723   0.921 -0.0625 -0.2662  0.1748
  132fsi     F2 1688   2.159   0.834   1.045  0.6497  0.6004  0.3099
  133fsi     F1 1689   2.860   2.227   0.338  0.0666  0.3179 -0.1306
  133fsi     S1 1690   2.930   2.262   0.204  0.3644  0.1813 -0.1284
  133fsi      N 1691   2.813   2.337   0.131 -0.1097 -0.4559 -0.0837
  133fsi     O1 1692   3.037   2.346   0.240 -0.4278 -0.0072 -0.6715
  133fsi     O2 1693   2.969   2.132   0.148 -0.1742 -0.5181 -0.0255
  133fsi     S2 1694   2.749   2.317  -0.012 -0.1115 -0.3365 -0.4134
  133fsi     O3 1695   2.825   2.233  -0.104 -0.2724 -0.2951 -0.0259
  133fsi     O4 1696   2.690   2.439  -0.068  0.1428  0.0540 -0.0840
  133fsi     F2 1697   2.616   2.229   0.022  0.1993  0.1381 -0.1589
  134fsi     F1 1698   0.778   2.606   0.073 -0.0837 -0.0789 -0.1263
  134fsi     S1 1699   0.757   2.694  -0.065 -0.2376 -0.2477  0.5051
  134fsi      N 1700   0.602   2.693  -0.072  1.4133  0.0913 -0.0929
  134fsi     O1 1701   0.814   2.817  -0.021  0.1849  0.4769 -0.3598
  134fsi     O2 1702   0.829   2.616  -0.166  0.5268  0.0359 -0.2340
  134fsi     S2 1703   0.507   2.799  -0.135 -0.2185 -0.1984 -0.4186
  134fsi     O3 1704   0.569   2.872  -0.243 -0.5049  0.4509  0.3659
  134fsi     O4 1705   0.439   2.874  -0.032  0.1636 -0.6431 -0.4693
  134fsi     F2 1706   0.393   2.723  -0.204  0.4120 -0.0233  0.5259
  135fsi     F1 1707   1.481   0.445   2.664  0.0885 -0.4023 -0.0319
  135fsi     S1 1708   1.497   0.552   2.560 -0.2321  0.2996  0.1884
  135fsi      N 1709   1.366   0.538   2.478  0.3767 -0.3754 -0.4394
  135fsi     O1 1710   1.499   0.674   2.639  0.3214 -0.1713  0.2681
  135fsi     O2 1711   1.610   0.503   2.481 -0.0598 -0.8825 -0.7338
  135fsi     S2 1712   1.238   0.630   2.466 -0.2863  0.1600 -0.2025
  135fsi     O3 1713   1.161   0.612   2.344 -0.2000  0.2807 -0.4436
  135fsi     O4 1714   1.252   0.770   2.506  1.7296  0.0481  0.0080
  135fsi     F2 1715   1.144   0.567   2.580  0.1685 -0.3904 -0.4748
  136fsi     F1 1716   1.558   2.204   0.703  0.0655  0.2541  0.1330
  136fsi     S1 1717   1.472   2.285   0.599  0.5582  0.2281  0.1263
  136fsi      N 1718   1.327   2.273   0.659  0.7469 -0.9731  0.4760
  136fsi     O1 1719   1.523   2.416   0.610 -0.6990  0.4252 -0.1644
  136fsi     O2 1720   1.494   2.214   0.480 -0.0768  0.3151 -0.1501
  136fsi     S2 1721   1.264   2.343   0.787 -0.1146 -0.0439 -0.0749
  136fsi     O3 1722   1.122   2.327   0.791 -0.1817 -0.9653 -0.5961
  136fsi     O4 1723   1.310   2.479   0.814 -0.4977  0.0430  0.1346
  136fsi     F2 1724   1.322   2.259   0.906 -0.0210  0.6044  0.3291
  137fsi     F1 1725   1.266   1.543   0.440 -0.2319  0.3792 -0.0397
  137fsi     S1 1726   1.301   1.616   0.305  0.1073 -0.3586  0.0158
  137fsi      N 1727   1.162   1.672   0.253  0.2999  0.1230 -0.1761
  137fsi     O1 1728   1.398   1.713   0.339 -0.3761 -0.8551 -0.5407
  137fsi     O2 1729   1.352   1.517   0.214  0.3730 -0.6872 -0.3559
  137fsi     S2 1730   1.101   1.819   0.259  0.5339  0.0498  0.0071
  137fsi     O3 1731   1.194   1.926   0.297  0.1202 -0.7606  0.3980
  137fsi     O4 1732   0.975   1.813   0.329 -0.3690  0.6955 -0.4650
  137fsi     F2 1733   1.066   1.845   0.112 -0.4421  0.2180  0.4019
  138fsi     F1 1734   1.308   2.271   0.230  0.1166 -0.5651  0.3698
  138fsi     S1 1735   1.357   2.185   0.117  0.1980 -0.1896  0.0732
  138fsi      N 1736   1.443   2.283   0.025  0.2612 -0.5717  0.0248
  138fsi     O1 1737   1.439   2.087   0.184  0.1476 -0.0898 -0.4694
  138fsi     O2 1738   1.238   2.145   0.048  0.2322  0.4650 -0.7531
  138fsi     S2 1739   1.572   2.363   0.062  0.0122 -0.0369 -0.2686
  138fsi     O3 1740   1.635   2.362   0.193 -0.1547 -0.0137 -0.0674
  138fsi     O4 1741   1.569   2.492  -0.002 -0.0877 -0.3590 -0.7397
  138fsi     F2 1742   1.673   2.285  -0.028 -0.3088 -0.0831 -0.1844
  139fsi     F1 1743   2.083   1.623   1.700  0.3038  0.1138  0.1694
  139fsi     S1 1744   2.093   1.761   1.634  0.3380 -0.1585 -0.0127
  139fsi      N 1745   2.065   1.717   1.487 -0.1643 -0.1107 -0.1854
  139fsi     O1 1746   1.982   1.832   1.693 -0.5078 -0.4799  0.2490
  139fsi     O2 1747   2.233   1.806   1.653 -0.4117  0.2355 -0.1180
  139fsi     S2 1748   2.176   1.672   1.379  0.1200 -0.0446  0.5276
  139fsi     O3 1749   2.122   1.579   1.282 -0.1266 -0.3463 -0.3141
  139fsi     O4 1750   2.302   1.631   1.432 -0.1172 -0.1629  0.5200
  139fsi     F2 1751   2.203   1.807   1.302 -0.6048  0.3141  0.7350
  140fsi     F1 1752   2.591   2.174   0.405 -0.0970 -0.1204 -0.2188
  140fsi     S1 1753   2.577   2.204   0.561  0.0305  0.0272  0.0476
  140fsi      N 1754   2.632   2.355   0.567 -0.4567 -0.3759  0.1345
  140fsi     O1 1755   2.438   2.193   0.585  0.2637  0.7958  0.1032
  140fsi     O2 1756   2.665   2.110   0.625 -0.0844  0.4563 -0.2599
  140fsi     S2 1757   2.759   2.412   0.627  0.2591  0.1280 -0.5172
  140fsi     O3 1758   2.839   2.323   0.707  0.2249  0.0013 -0.1141
  140fsi     O4 1759   2.737   2.542   0.686 -0.5899 -0.1881 -0.0730
  140fsi     F2 1760   2.846   2.444   0.500 -0.0582  0.5052  0.2336
  141fsi     F1 1761   1.851   2.375   1.734 -0.4261  0.1853  0.5988
  141fsi     S1 1762   1.799   2.256   1.823  0.0554  0.1314  0.2300
  141fsi      N 1763   1.909   2.240   1.932  0.2583 -0.3393 -0.3305
  141fsi     O1 1764   1.676   2.308   1.864 -0.3713  0.3009  0.4124
  141fsi     O2 1765   1.803   2.147   1.732 -0.5558  0.1128  0.2874
  141fsi     S2 1766   1.914   2.295   2.085 -0.1130  0.6066 -0.2974
  141fsi     O3 1767   1.797   2.366   2.125 -0.2043  0.6647  0.1420
  141fsi     O4 1768   2.035   2.357   2.122  0.1385  0.1430 -0.1847
  141fsi     F2 1769   1.912   2.161   2.164 -0.6904  0.0197  0.0560
  142fsi     F1 1770   0.382   2.370   1.202 -0.2643 -0.5379  0.2934
  142fsi     S1 1771   0.327   2.419   1.346  0.1878 -0.4458 -0.2255
  142fsi      N 1772   0.454   2.457   1.427 -0.1660 -0.5275  0.5684
  142fsi     O1 1773   0.253   2.534   1.307 -0.3819  0.4786  0.3537
  142fsi     O2 1774   0.252   2.315   1.409  0.3793  0.1424 -0.1823
  142fsi     S2 1775   0.498   2.593   1.486 -0.3384 -0.1027 -0.1964
  142fsi     O3 1776   0.403   2.699   1.477  0.3684  0.0840  0.7571
  142fsi     O4 1777   0.633   2.631   1.457  0.7387 -0.6068 -0.2835
  142fsi     F2 1778   0.511   2.565   1.641 -0.2257 -0.1225 -0.1064
  143fsi     F1 1779   0.429   1.092   2.950 -0.0509 -0.4243 -0.1382
  143fsi     S1 1780   0.500   0.969   2.878  0.0165 -0.0567  0.1707
  143fsi      N 1781   0.454   0.997   2.730 -0.3421 -0.3330  0.4907
  143fsi     O1 1782   0.642   0.991   2.905  0.7093 -0.1496  0.1431
  143fsi     O2 1783   0.450   0.851   2.944  0.0641  0.4810 -0.5218
  143fsi     S2 1784   0.327   0.949   2.655  0.0681  0.2535 -0.1617
  143fsi     O3 1785   0.281   1.040   2.555 -0.3583  0.4833  0.1920
  143fsi     O4 1786   0.228   0.897   2.743  0.1263 -0.2881 -0.7117
  143fsi     F2 1787   0.377   0.827   2.565  0.1384 -0.3218  0.3989
  144fsi     F1 1788   0.433   1.056   2.272  0.2689  0.0085  0.1521
  144fsi     S1 1789   0.381   0.960   2.161 -0.0031  0.3956  0.2992
  144fsi      N 1790   0.513   0.917   2.097  0.7495 -0.1964  0.3822
  144fsi     O1 1791   0.310   0.856   2.234  0.8026 -0.5816 -0.1130
  144fsi     O2 1792   0.306   1.052   2.082 -0.3132  0.8710 -0.1239
  144fsi     S2 1793   0.588   0.971   1.969  0.2847  0.3970  0.1587
  144fsi     O3 1794   0.521   1.082   1.902  0.1610 -0.3344  0.2643
  144fsi     O4 1795   0.637   0.860   1.891 -0.3778 -0.5787  0.2494
  144fsi     F2 1796   0.714   1.034   2.026 -0.2983 -0.0687 -0.6465
  145fsi     F1 1797   0.258   2.557   2.294  0.5664 -0.0350 -0.0562
  145fsi     S1 1798   0.243   2.544   2.138  0.2331  0.3810  0.1131
  145fsi      N 1799   0.384   2.511   2.079  0.3326 -0.5222 -0.5284
  145fsi     O1 1800   0.155   2.436   2.130  0.0762  0.0216 -0.4370
  145fsi     O2 1801   0.201   2.675   2.092 -0.1154  0.0473 -0.3258
  145fsi     S2 1802   0.451   2.388   2.015 -0.3571 -0.2496  0.1142
  145fsi     O3 1803   0.426   2.261   2.076 -0.3219 -0.5244  0.1139
  145fsi     O4 1804   0.589   2.421   1.978  0.0542  0.1549  0.1491
  145fsi     F2 1805   0.378   2.375   1.873  0.3111  0.9964  0.3541
  146fsi     F1 1806   0.108   2.993   1.069  0.0606 -0.3083  0.2135
  146fsi     S1 1807   0.186   3.072   1.176 -0.1373  0.0919  0.0639
  146fsi      N 1808   0.309   3.134   1.092 -0.0851  1.0943  0.5983
  146fsi     O1 1809   0.090   3.173   1.215 -0.2086 -0.0487  0.2358
  146fsi     O2 1810   0.222   2.971   1.268 -0.2013  0.0621 -0.1244
  146fsi     S2 1811   0.397   3.264   1.110  0.0081  0.0212  0.2003
  146fsi     O3 1812   0.510   3.268   1.026  0.6329 -1.0751  0.5809
  146fsi     O4 1813   0.410   3.318   1.242 -0.7787  0.1364  0.1519
  146fsi     F2 1814   0.312   3.371   1.040  0.4994 -0.3389  0.1544
  147fsi     F1 1815   1.831   2.087   2.655 -0.2980  0.1221  0.0380
  147fsi     S1 1816   1.862   2.075   2.508 -0.1411 -0.1693 -0.0439
  147fsi      N 1817   1.952   1.952   2.505  0.3026  0.6701 -0.2307
  147fsi     O1 1818   1.733   2.062   2.446 -0.5857  0.5577  0.2083
  147fsi     O2 1819   1.931   2.203   2.481 -0.3199  0.7537 -0.3659
  147fsi     S2 1820   1.919   1.808   2.456  0.1110  0.4000 -0.1441
  147fsi     O3 1821   1.791   1.756   2.483 -0.2076  0.8836  0.4287
  147fsi     O4 1822   2.028   1.719   2.473  0.6475 -0.2054  0.7261
  147fsi     F2 1823   1.926   1.828   2.299  0.2607 -0.5645 -0.1554
  148fsi     F1 1824   1.524   1.160   0.855 -0.1582 -0.4102 -0.4371
  148fsi     S1 1825   1.631   1.155   0.727 -0.0374  0.3465 -0.1268
  148fsi      N 1826   1.539   1.123   0.604 -0.1681  0.0053 -0.9408
  148fsi     O1 1827   1.692   1.280   0.734  0.1346 -0.3361  0.1072
  148fsi     O2 1828   1.707   1.036   0.763  0.1731 -0.3116 -0.2815
  148fsi     S2 1829   1.472   1.221   0.502 -0.1746  0.1640 -0.2724
  148fsi     O3 1830   1.465   1.168   0.372  1.0670 -0.4922  0.6635
  148fsi     O4 1831   1.515   1.353   0.510 -0.6196  0.3285 -0.1635
  148fsi     F2 1832   1.321   1.222   0.558 -0.1145 -0.6379  0.2390
  149fsi     F1 1833   2.503   0.010   0.919  0.8835  0.6292  0.1070
  149fsi     S1 1834   2.544   0.139   0.999 -0.3766 -0.1080  0.1141
  149fsi      N 1835   2.419   0.157   1.092 -0.8143  0.1925 -0.0016
  149fsi     O1 1836   2.663   0.093   1.062 -0.0453  0.0232 -0.1901
  149fsi     O2 1837   2.567   0.239   0.898  0.1002 -0.3387  0.1055
  149fsi     S2 1838   2.334   0.283   1.144  0.0551 -0.3615  0.2202
  149fsi     O3 1839   2.388   0.415   1.144 -0.2562  0.2726 -0.3828
  149fsi     O4 1840   2.258   0.246   1.262 -1.0945 -0.2444 -0.1212
  149fsi     F2 1841   2.226   0.287   1.033 -0.3594  0.3657 -0.3161
  150fsi     F1 1842   2.317   0.795   1.393  0.2650 -0.3354  0.2742
  150fsi     S1 1843   2.417   0.794   1.517 -0.5451 -0.0282  0.1794
  150fsi      N 1844   2.542   0.729   1.454  0.2467 -0.6569  0.1739
  150fsi     O1 1845   2.431   0.933   1.560  0.3564 -0.3967  0.0096
  150fsi     O2 1846   2.348   0.709   1.610 -0.1204  0.6364  0.2226
  150fsi     S2 1847   2.665   0.793   1.395 -0.6294 -0.0186 -0.3606
  150fsi     O3 1848   2.788   0.722   1.422  0.0309 -0.4754 -0.7179
  150fsi     O4 1849   2.672   0.939   1.402  0.5235 -0.2864  0.8527
  150fsi     F2 1850   2.650   0.760   1.240 -0.1118  0.3001 -0.7515
  151fsi     F1 1851   1.292   1.817   1.464 -0.3851  0.0057 -0.2574
  151fsi     S1 1852   1.383   1.702   1.399  0.1809  0.5105  0.2453
  151fsi      N 1853   1.526   1.762   1.433 -0.0740  0.1278 -0.1312
  151fsi     O1 1854   1.352   1.581   1.469 -1.4179 -0.2359  0.6124
  151fsi     O2 1855   1.349   1.720   1.264  0.1340  0.3042  0.0089
  151fsi     S2 1856   1.623   1.739   1.552 -0.2983  0.2351  0.1104
  151fsi     O3 1857   1.586   1.647   1.657  0.1296 -0.1207  0.0029
  151fsi     O4 1858   1.678   1.868   1.596  0.4514  0.0077 -0.5910
  151fsi     F2 1859   1.741   1.666   1.487  0.4305 -0.0323 -0.0158
  152fsi     F1 1860   1.569   1.852   2.137 -0.0921 -0.0024 -0.2257
  152fsi     S1 1861   1.567   1.995   2.073  0.0910  0.3305 -0.0354
  152fsi      N 1862   1.414   2.038   2.074  0.6165 -0.2322 -0.2681
  152fsi     O1 1863   1.650   2.065   2.165 -0.0782 -0.1456 -0.0941
  152fsi     O2 1864   1.610   1.972   1.939 -0.4771  0.6023 -0.4285
  152fsi     S2 1865   1.355   2.174   2.128 -0.0816  0.1964 -0.0789
  152fsi     O3 1866   1.447   2.272   2.169 -0.0607 -0.2913  0.2075
  152fsi     O4 1867   1.245   2.156   2.220 -0.8008  0.0266 -0.2473
  152fsi     F2 1868   1.276   2.240   1.999 -0.2882  0.1611  0.5236
  153fsi     F1 1869   2.595   0.194   2.803 -0.0338  0.0306  0.3543
  153fsi     S1 1870   2.662   0.295   2.708  0.1171  0.2740  0.0021
  153fsi      N 1871   2.619   0.228   2.572  0.1525  0.4057 -0.5779
  153fsi     O1 1872   2.584   0.415   2.732 -0.5780  0.3634  0.0209
  153fsi     O2 1873   2.802   0.303   2.745  0.1800  0.2690 -0.0898
  153fsi     S2 1874   2.710   0.157   2.472 -0.6882  0.0527 -0.1731
  153fsi     O3 1875   2.643   0.071   2.379  0.7359 -0.1636 -0.8835
  153fsi     O4 1876   2.842   0.115   2.521  0.3303 -0.4946  0.0358
  153fsi     F2 1877   2.745   0.266   2.364 -0.0346 -0.2492 -0.0935
  154fsi     F1 1878   1.681   1.263   2.889  0.4957 -0.3299  0.3335
  154fsi     S1 1879   1.530   1.284   2.903  0.4943 -0.2585  0.0665
  154fsi      N 1880   1.467   1.168   2.812 -0.3329  0.1420  0.0709
  154fsi     O1 1881   1.510   1.272   3.041 -0.8586  0.3727  0.0348
  154fsi     O2 1882   1.513   1.414   2.846 -0.3051  0.2230 -0.5975
  154fsi     S2 1883   1.458   1.164   2.658 -0.2318  0.0045 -0.6283
  154fsi     O3 1884   1.419   1.032   2.607  0.2830 -0.3633  0.3877
  154fsi     O4 1885   1.570   1.226   2.590 -0.3731  0.0919 -0.1261
  154fsi     F2 1886   1.341   1.251   2.618  0.3249  0.0980  0.3583
  155fsi     F1 1887   0.935   2.897   2.569  0.1723  0.2473 -0.2498
  155fsi     S1 1888   0.938   3.023   2.669 -0.2535  0.2316  0.1806
  155fsi      N 1889   1.030   3.117   2.593  0.4898 -0.5650  0.7642
  155fsi     O1 1890   0.805   3.072   2.671 -0.7397  0.1678  0.5237
  155fsi     O2 1891   0.998   2.980   2.793 -0.6140 -0.1585  0.2810
  155fsi     S2 1892   0.979   3.231   2.498 -0.2120 -0.0655  0.0260
  155fsi     O3 1893   1.089   3.281   2.418 -0.2203 -0.0897  0.4333
  155fsi     O4 1894   0.894   3.329   2.546  0.5075  0.2443 -0.5405
  155fsi     F2 1895   0.891   3.157   2.392 -0.0182 -0.6262  0.3521
  156fsi     F1 1896   0.140   1.537   1.840 -0.2692  0.0351  0.2868
  156fsi     S1 1897   0.059   1.416   1.879  0.5344  0.5080 -0.6108
  156fsi      N 1898  -0.062   1.466   1.960  0.0722  0.7407 -0.4613
  156fsi     O1 1899   0.023   1.361   1.756 -0.2904 -0.1304 -0.8358
  156fsi     O2 1900   0.153   1.337   1.958  0.4444  0.2267  0.3331
  156fsi     S2 1901  -0.182   1.530   1.890  0.1204 -0.0725 -0.2164
  156fsi     O3 1902  -0.147   1.636   1.800 -0.2069 -0.2754 -0.6186
  156fsi     O4 1903  -0.289   1.564   1.973 -0.1255  0.0466  0.2365
  156fsi     F2 1904  -0.239   1.414   1.805  0.5121 -0.7321  0.0401
  157fsi     F1 1905   0.402   1.098   0.269  0.0276  0.0800 -0.1693
  157fsi     S1 1906   0.535   1.172   0.275  0.4142 -0.0571  0.1392
  157fsi      N 1907   0.514   1.288   0.169 -0.2235 -0.0848  0.1789
  157fsi     O1 1908   0.539   1.222   0.411  0.5104 -0.2787  0.9335
  157fsi     O2 1909   0.636   1.074   0.239 -0.3579  0.2389 -0.4329
  157fsi     S2 1910   0.472   1.443   0.180  0.3108 -0.2929 -0.3910
  157fsi     O3 1911   0.549   1.528   0.094  0.2196  0.6243  0.0088
  157fsi     O4 1912   0.453   1.492   0.311 -0.4516 -0.4062  0.2250
  157fsi     F2 1913   0.332   1.444   0.124  0.6941 -0.3596 -0.0175
  158fsi     F1 1914   1.573   0.016   0.870 -0.1617  0.0011  0.1832
  158fsi     S1 1915   1.507  -0.088   0.771 -0.2376  0.5767 -0.2830
  158fsi      N 1916   1.628  -0.139   0.685  0.4225 -0.0454 -0.3617
  158fsi     O1 1917   1.467  -0.195   0.860 -0.1745  0.2465 -0.2414
  158fsi     O2 1918   1.406  -0.019   0.701 -0.2238 -0.1015 -0.0202
  158fsi     S2 1919   1.646  -0.143   0.530 -0.3192  0.3449  0.1690
  158fsi     O3 1920   1.548  -0.072   0.456  0.1005 -0.2160  0.1455
  158fsi     O4 1921   1.673  -0.274   0.485 -0.2008 -0.0654  0.4780
  158fsi     F2 1922   1.773  -0.062   0.504  0.2305  0.3165 -0.5992
  159fsi     F1 1923   1.627   2.665   2.384 -0.3541  0.0311  0.0886
  159fsi     S1 1924   1.680   2.530   2.447 -0.3048 -0.2182  0.3183
  159fsi      N 1925   1.823   2.521   2.394  0.2367 -0.6473  0.2770
  159fsi     O1 1926   1.681   2.549   2.587  0.5254 -0.5179 -0.3036
  159fsi     O2 1927   1.591   2.434   2.382 -0.1952 -0.1139 -1.3780
  159fsi     S2 1928   1.957   2.564   2.468  0.0760 -0.1093 -0.1253
  159fsi     O3 1929   1.959   2.701   2.510  0.4535  0.0235 -0.3123
  159fsi     O4 1930   2.076   2.534   2.387  0.0946  0.2284 -0.5042
  159fsi     F2 1931   1.964   2.479   2.600  0.2367 -0.4835 -0.3796
  160fsi     F1 1932   0.398   2.945   0.837  0.1500  0.2703 -0.3394
  160fsi     S1 1933   0.394   2.789   0.849 -0.0352  0.3308 -0.2188
  160fsi      N 1934   0.507   2.750   0.959 -0.4132 -0.3509  1.2823
  160fsi     O1 1935   0.261   2.762   0.894  0.2162 -0.4324  0.1841
  160fsi     O2 1936   0.424   2.750   0.717 -0.5147  0.4896 -0.6890
  160fsi     S2 1937   0.509   2.735   1.114 -0.6332 -0.3041 -0.2635
  160fsi     O3 1938   0.595   2.629   1.160  0.1868  0.5786 -0.7844
  160fsi     O4 1939   0.387   2.759   1.180 -0.3955  0.2811  0.1461
  160fsi     F2 1940   0.597   2.856   1.163  0.2008  0.6960  0.3528
  161fsi     F1 1941   2.526   2.067   1.749  0.3343  0.4756  0.2618
  161fsi     S1 1942   2.605   1.942   1.766  0.0800 -0.1585  0.1527
  161fsi      N 1943   2.707   1.947   1.646 -0.6997  0.7961  0.6778
  161fsi     O1 1944   2.668   1.971   1.892 -0.2933  0.3224 -0.3020
  161fsi     O2 1945   2.517   1.826   1.769  0.7000 -0.6157  0.2847
  161fsi     S2 1946   2.682   1.914   1.498 -0.1724 -0.4146  0.1720
  161fsi     O3 1947   2.548   1.875   1.460  0.2326 -0.0217  0.5293
  161fsi     O4 1948   2.782   1.830   1.438 -0.5957 -0.8648  0.0435
  161fsi     F2 1949   2.699   2.051   1.420 -0.2434 -0.6689  0.1557
  162fsi     F1 1950   0.414   1.141   0.934 -0.1950  0.5332  0.2378
  162fsi     S1 1951   0.412   1.203   1.078  0.0153 -0.2660  0.1167
  162fsi      N 1952   0.356   1.348   1.065  0.5968 -0.3486  0.0557
  162fsi     O1 1953   0.316   1.118   1.148  0.3880  0.1456  0.1362
  162fsi     O2 1954   0.552   1.200   1.111 -0.1536  0.0925  0.6383
  162fsi     S2 1955   0.418   1.476   1.125 -0.0876 -0.0044 -0.6286
  162fsi     O3 1956   0.521   1.452   1.220 -0.3847  0.0396 -0.0235
  162fsi     O4 1957   0.321   1.576   1.163 -0.0750 -0.0283 -0.7105
  162fsi     F2 1958   0.498   1.541   1.004  0.2045 -0.2885  0.1133
  163fsi     F1 1959   2.172   2.728   0.656  0.5016 -0.1082 -0.1106
  163fsi     S1 1960   2.276   2.654   0.747  0.1968  0.3016 -0.2575
  163fsi      N 1961   2.201   2.627   0.881  0.0248  0.0814 -0.8277
  163fsi     O1 1962   2.308   2.529   0.679  0.3461  0.2893  0.0330
  163fsi     O2 1963   2.380   2.748   0.756  0.5231  0.0320 -0.3323
  163fsi     S2 1964   2.136   2.496   0.940  0.1377  0.0680 -0.0662
  163fsi     O3 1965   2.193   2.464   1.066  0.0631 -0.6942 -0.1821
  163fsi     O4 1966   2.124   2.388   0.845 -0.2811 -0.1855 -0.5085
  163fsi     F2 1967   1.986   2.546   0.970  0.1256  0.2017  0.3196
  164fsi     F1 1968   0.448   2.451   0.867  0.0606  0.1118  0.5742
  164fsi     S1 1969   0.570   2.371   0.798  0.3938 -0.2838 -0.0865
  164fsi      N 1970   0.687   2.419   0.884 -0.0242  0.4408  0.1895
  164fsi     O1 1971   0.537   2.231   0.815  0.1295 -0.3014 -0.1563
  164fsi     O2 1972   0.572   2.422   0.663  0.2011  0.2044  0.0926
  164fsi     S2 1973   0.751   2.355   1.008 -0.2888 -0.1995 -0.1173
  164fsi     O3 1974   0.674   2.263   1.085  0.1311 -0.6667 -0.1199
  164fsi     O4 1975   0.822   2.447   1.088 -0.6176  0.3117 -0.1906
  164fsi     F2 1976   0.863   2.272   0.944  0.3735  0.3759  0.1546
  165fsi     F1 1977   0.118   2.556   1.693 -0.0080 -0.1711  0.3490
  165fsi     S1 1978  -0.003   2.455   1.726 -0.7441  0.1120 -0.0754
  165fsi      N 1979  -0.081   2.448   1.593 -0.1758  0.5278 -0.4817
  165fsi     O1 1980   0.073   2.333   1.757 -0.0608  0.2550  0.2973
  165fsi     O2 1981  -0.072   2.523   1.838  0.3336 -0.3239  0.0569
  165fsi     S2 1982  -0.109   2.325   1.493 -0.3584  0.2946  0.1503
  165fsi     O3 1983  -0.074   2.190   1.545 -0.2725 -0.4509  0.3706
  165fsi     O4 1984  -0.071   2.349   1.354  0.2960 -0.8259 -0.4805
  165fsi     F2 1985  -0.266   2.320   1.488  0.0067 -0.3365 -0.6270
  166fsi     F1 1986   2.550   1.936   2.923  0.2170 -0.0179  0.5165
  166fsi     S1 1987   2.679   1.846   2.887  0.0282 -0.3167 -0.0897
  166fsi      N 1988   2.671   1.832   2.729  0.5973  0.2232 -0.0283
  166fsi     O1 1989   2.778   1.935   2.931  0.0936 -0.7113 -0.0318
  166fsi     O2 1990   2.660   1.720   2.950  0.8619 -0.4491  0.0402
  166fsi     S2 1991   2.735   1.903   2.607  0.5674  0.3952  0.7805
  166fsi     O3 1992   2.818   2.017   2.643 -0.3108  0.1497 -0.9235
  166fsi     O4 1993   2.648   1.927   2.491  0.2221 -0.9393  0.7442
  166fsi     F2 1994   2.840   1.786   2.554 -0.2457  0.2420 -0.4474
  167fsi     F1 1995   2.717   0.705   2.296  0.7222  0.1703  0.1303
  167fsi     S1 1996   2.776   0.664   2.439  0.0257 -0.0851 -0.1271
  167fsi      N 1997   2.879   0.549   2.397  0.3791  0.2917  0.3411
  167fsi     O1 1998   2.840   0.779   2.487  0.2997 -0.2374  0.3695
  167fsi     O2 1999   2.672   0.616   2.521 -0.1733 -0.5331 -0.1556
  167fsi     S2 2000   3.010   0.502   2.464 -0.4080 -0.2744  0.0163
  167fsi     O3 2001   3.050   0.379   2.407  0.4972  0.4878 -0.7288
  167fsi     O4 2002   3.016   0.508   2.610 -0.1555 -0.0091 -0.0148
  167fsi     F2 2003   3.114   0.608   2.416 -0.3195 -0.2490  0.3202
  168fsi     F1 2004   0.081   0.174   2.875  0.4536 -0.6717  0.0115
  168fsi     S1 2005   0.194   0.198   2.773  0.0485 -0.0647  0.0422
  168fsi      N 2006   0.219   0.351   2.790  0.4444 -0.4266 -0.3663
  168fsi     O1 2007   0.303   0.113   2.817  0.3651  0.6500 -0.0360
  168fsi     O2 2008   0.132   0.171   2.644 -0.1795 -0.0577 -0.1676
  168fsi     S2 2009   0.322   0.429   2.887 -0.2914  0.3440  0.0671
  168fsi     O3 2010   0.372   0.348   2.995 -0.4322  0.0829 -0.1617
  168fsi     O4 2011   0.285   0.564   2.917  0.1097 -0.3407  0.6401
  168fsi     F2 2012   0.443   0.454   2.796 -0.2499 -0.0131 -0.4464
  169fsi     F1 2013   2.892   0.692   0.417  0.1307 -0.5224  0.0315
  169fsi     S1 2014   3.009   0.797   0.441  0.2992  0.2246 -0.0927
  169fsi      N 2015   3.075   0.806   0.302  0.0817 -0.0348  0.9045
  169fsi     O1 2016   2.946   0.915   0.482 -0.1295  0.2989 -0.1616
  169fsi     O2 2017   3.087   0.731   0.538  0.2629 -0.0327  0.0444
  169fsi     S2 2018   3.090   0.937   0.201  0.0565 -0.3564  0.2757
  169fsi     O3 2019   3.176   0.910   0.088 -0.3804 -0.6055  0.4604
  169fsi     O4 2020   3.106   1.065   0.268  0.7880  0.1228 -0.3638
  169fsi     F2 2021   2.946   0.950   0.125 -0.2237 -0.7647 -0.3339
  170fsi     F1 2022   1.675   0.273   0.744  0.1658  0.1592  0.0381
  170fsi     S1 2023   1.610   0.410   0.801 -0.0108  0.2012 -0.0632
  170fsi      N 2024   1.634   0.524   0.697 -0.6933  0.0048  0.1886
  170fsi     O1 2025   1.470   0.375   0.822 -0.0834  0.1026  0.3640
  170fsi     O2 2026   1.685   0.434   0.920 -0.1580 -0.2899  0.2621
  170fsi     S2 2027   1.743   0.640   0.684 -0.3978  0.1365  0.0809
  170fsi     O3 2028   1.745   0.735   0.792  0.3780 -0.2595 -0.5653
  170fsi     O4 2029   1.752   0.681   0.549 -0.1126 -0.0130  0.3131
  170fsi     F2 2030   1.879   0.554   0.706  0.6548 -0.2587 -0.1317
  171fsi     F1 2031   2.628   2.170   1.157 -0.5483 -0.1405  0.3753
  171fsi     S1 2032   2.555   2.115   1.030  0.2622  0.0889 -0.2819
  171fsi      N 2033   2.555   1.952   1.038 -0.2960  0.2222  0.1231
  171fsi     O1 2034   2.423   2.170   1.044 -0.8795 -0.1470  0.4927
  171fsi     O2 2035   2.632   2.164   0.921  0.9226 -0.1979 -0.0346
  171fsi     S2 2036   2.659   1.853   0.979  0.0766 -0.4005 -0.1623
  171fsi     O3 2037   2.767   1.907   0.900 -0.2126 -0.3084 -0.8130
  171fsi     O4 2038   2.591   1.736   0.929 -1.1745 -0.4342  0.0020
  171fsi     F2 2039   2.725   1.805   1.111 -0.2761 -0.1365  0.4403
  172fsi     F1 2040   0.180   1.714   1.378 -0.2770  0.3110  0.3151
  172fsi     S1 2041   0.177   1.649   1.521 -0.3438 -0.1300 -0.0106
  172fsi      N 2042   0.218   1.775   1.612  0.3385  0.1832  0.6662
  172fsi     O1 2043   0.042   1.604   1.537 -0.3025  0.0238  0.6041
  172fsi     O2 2044   0.274   1.542   1.523  0.7736 -0.0880 -0.1169
  172fsi     S2 2045   0.132   1.882   1.687 -0.1602  0.2923 -0.1652
  172fsi     O3 2046  -0.008   1.874   1.665 -1.2580  0.3120 -0.1792
  172fsi     O4 2047   0.197   2.007   1.681  0.1312 -0.7091  0.8257
  172fsi     F2 2048   0.149   1.837   1.833 -0.0437 -0.1865 -0.2118
  173fsi     F1 2049   1.921   2.288   1.209 -0.4759  0.2988 -0.5643
  173fsi     S1 2050   1.796   2.358   1.262  0.4046 -0.1644  0.2011
  173fsi      N 2051   1.737   2.442   1.139 -0.2535  0.1255  0.8217
  173fsi     O1 2052   1.713   2.250   1.294  0.2739 -0.3987  0.2431
  173fsi     O2 2053   1.850   2.438   1.371 -0.0461  0.8456 -0.9375
  173fsi     S2 2054   1.635   2.408   1.025  0.2510 -0.2975 -0.1931
  173fsi     O3 2055   1.599   2.269   1.027  0.2874  0.5456  0.2650
  173fsi     O4 2056   1.654   2.470   0.895  1.0341  0.5151 -0.2353
  173fsi     F2 2057   1.505   2.479   1.080 -0.0473 -0.7291 -0.0319
  174fsi     F1 2058   0.533   0.261   2.347  0.0456 -0.0992 -0.0776
  174fsi     S1 2059   0.433   0.191   2.449  0.1954 -0.0869  0.1135
  174fsi      N 2060   0.449   0.043   2.402  0.9559 -0.5585  0.3177
  174fsi     O1 2061   0.489   0.216   2.575 -1.0804  0.4220  0.2453
  174fsi     O2 2062   0.307   0.254   2.422 -0.1370 -0.5148 -0.1316
  174fsi     S2 2063   0.332  -0.058   2.378  0.1715  0.1292  0.2273
  174fsi     O3 2064   0.349  -0.132   2.258 -0.6980 -0.5050  0.6159
  174fsi     O4 2065   0.198  -0.022   2.417  0.3969  0.4018  0.1911
  174fsi     F2 2066   0.361  -0.166   2.487 -0.1929 -0.0401  0.1873
  175fsi     F1 2067   0.017   2.358   2.571  0.3661  0.1973 -0.3182
  175fsi     S1 2068   0.148   2.276   2.618  0.1403  0.0938  0.3512
  175fsi      N 2069   0.219   2.382   2.716 -0.0020  0.3970  0.9865
  175fsi     O1 2070   0.094   2.161   2.689 -0.0185  0.3259  0.6705
  175fsi     O2 2071   0.211   2.253   2.492  0.1406 -0.6917  0.0072
  175fsi     S2 2072   0.212   2.402   2.873  0.2249  0.3633 -0.2079
  175fsi     O3 2073   0.200   2.280   2.952  0.0835  0.4227  0.3095
  175fsi     O4 2074   0.127   2.516   2.905  0.5768 -0.0457 -0.0195
  175fsi     F2 2075   0.363   2.447   2.896  0.9479 -0.0237 -0.0264
  176fsi     F1 2076   2.037   2.011   0.227 -0.3072  0.0590 -0.6294
  176fsi     S1 2077   1.968   2.142   0.185 -0.2083 -0.2028 -0.4440
  176fsi      N 2078   2.034   2.243   0.290 -0.4557 -0.0316  0.0655
  176fsi     O1 2079   2.006   2.154   0.047 -0.1647  0.1280  0.1186
  176fsi     O2 2080   1.825   2.121   0.205 -0.1470  0.5217 -0.4135
  176fsi     S2 2081   2.162   2.331   0.270  0.7420 -0.0345  0.1289
  176fsi     O3 2082   2.221   2.380   0.387  0.5209 -0.1035 -0.0649
  176fsi     O4 2083   2.154   2.427   0.167  0.1488  0.8211  0.2410
  176fsi     F2 2084   2.274   2.220   0.211 -0.4697 -0.1548  0.0836
  177fsi     F1 2085   2.281   2.749   2.579 -0.7072  0.1249  0.2239
  177fsi     S1 2086   2.410   2.822   2.642  0.2796  0.0795  0.2267
  177fsi      N 2087   2.348   2.938   2.725  0.1437 -0.7281 -0.0134
  177fsi     O1 2088   2.482   2.717   2.712  0.5705  0.3564 -0.2950
  177fsi     O2 2089   2.472   2.886   2.528 -0.3406 -0.2597 -0.4928
  177fsi     S2 2090   2.342   2.944   2.882  0.1184  0.4147 -0.4401
  177fsi     O3 2091   2.291   2.829   2.947  0.2728 -0.0225 -0.1663
  177fsi     O4 2092   2.289   3.069   2.928 -0.0618 -0.2586  0.3945
  177fsi     F2 2093   2.486   2.950   2.928  0.1432  0.2070  0.4317
  178fsi     F1 2094   0.158   2.911   1.675 -0.1741 -0.3324 -0.6112
  178fsi     S1 2095   0.009   2.955   1.667  0.2227 -0.0291  0.2284
  178fsi      N 2096  -0.019   2.961   1.508  0.8277  0.6735  0.2462
  178fsi     O1 2097  -0.060   2.849   1.738  0.1564  0.5766 -0.0883
  178fsi     O2 2098   0.009   3.085   1.721 -0.0117 -0.3672 -0.1046
  178fsi     S2 2099  -0.066   2.838   1.422 -0.0889  0.0712  0.4085
  178fsi     O3 2100   0.031   2.733   1.429 -0.4261  0.5782 -0.1983
  178fsi     O4 2101  -0.124   2.869   1.293  0.5195  0.6002  0.2686
  178fsi     F2 2102  -0.195   2.773   1.494 -0.5962  0.1314  0.2081
  179fsi     F1 2103   1.745   1.871   0.640  0.0991 -0.1558  0.2834
  179fsi     S1 2104   1.677   1.802   0.523 -0.0420  0.0464 -0.4121
  179fsi      N 2105   1.799   1.751   0.441  0.2738  0.1286  0.0997
  179fsi     O1 2106   1.608   1.693   0.585  0.1389 -0.4288  0.3315
  179fsi     O2 2107   1.610   1.905   0.446  0.2732 -0.4664  0.0343
  179fsi     S2 2108   1.865   1.608   0.435  0.6668 -0.4792  0.2643
  179fsi     O3 2109   1.979   1.604   0.348  0.0884  0.3848  0.1378
  179fsi     O4 2110   1.782   1.486   0.439 -0.9030  0.0025  0.5389
  179fsi     F2 2111   1.939   1.602   0.575  0.5334  0.3590  0.0719
  180fsi     F1 2112   2.538   0.498   0.250  0.1552  0.1334 -0.2836
  180fsi     S1 2113   2.552   0.438   0.107  0.1290  0.5362  0.4010
  180fsi      N 2114   2.645   0.310   0.129  0.2802 -0.1583  0.1879
  180fsi     O1 2115   2.416   0.400   0.076  0.4900 -0.0088 -0.0019
  180fsi     O2 2116   2.611   0.545   0.032  0.2931 -0.7339 -0.6219
  180fsi     S2 2117   2.606   0.169   0.175  0.1989  0.5136  0.3301
  180fsi     O3 2118   2.709   0.073   0.141  0.2078 -0.1932 -0.0861
  180fsi     O4 2119   2.467   0.132   0.158  0.1509 -0.1548  0.0066
  180fsi     F2 2120   2.626   0.181   0.334 -0.4383 -0.5580 -0.3251
  181fsi     F1 2121   2.805   1.488   0.339  0.3619  0.1331  0.3743
  181fsi     S1 2122   2.693   1.389   0.291 -0.0755  0.0018 -0.2667
  181fsi      N 2123   2.595   1.392   0.413 -0.0533 -0.4376 -0.6254
  181fsi     O1 2124   2.629   1.452   0.180  0.4327  0.0332 -0.5670
  181fsi     O2 2125   2.757   1.262   0.259 -0.1509 -0.3855 -0.4158
  181fsi     S2 2126   2.585   1.303   0.537  0.4189 -0.2575 -0.1387
  181fsi     O3 2127   2.523   1.374   0.646  0.1433 -0.4357  0.2501
  181fsi     O4 2128   2.704   1.227   0.562  0.4334  0.6075 -0.0672
  181fsi     F2 2129   2.470   1.195   0.498  0.3229  0.1924  0.1128
  182fsi     F1 2130   1.009   0.801   2.040  0.5243 -0.4929  0.5774
  182fsi     S1 2131   1.163   0.813   2.010  0.0849 -0.3893 -0.1350
  182fsi      N 2132   1.160   0.939   1.911 -0.3845  0.1658 -0.1110
  182fsi     O1 2133   1.225   0.836   2.136  0.2797 -0.3704 -0.1525
  182fsi     O2 2134   1.195   0.696   1.934  0.8762 -0.1482  0.3754
  182fsi     S2 2135   1.136   1.090   1.955  0.1404  0.2558  0.1580
  182fsi     O3 2136   1.092   1.110   2.088  0.2613  0.4574  0.2943
  182fsi     O4 2137   1.095   1.174   1.849 -0.1703  0.2524  0.3258
  182fsi     F2 2138   1.285   1.135   1.968  0.1665  0.4419  0.2457
  183fsi     F1 2139   1.836   2.496   0.674  0.8035  0.6014 -0.2914
  183fsi     S1 2140   1.910   2.425   0.551  0.1229 -0.0727 -0.0006
  183fsi      N 2141   1.967   2.299   0.623  0.0429  0.1025 -0.4389
  183fsi     O1 2142   1.806   2.392   0.448  0.2856  0.3054  0.4865
  183fsi     O2 2143   2.010   2.527   0.517  0.1921  0.1018  0.6403
  183fsi     S2 2144   1.927   2.146   0.607  0.1159  0.3503 -0.1934
  183fsi     O3 2145   2.047   2.067   0.630 -0.2037 -0.4857 -0.1629
  183fsi     O4 2146   1.839   2.113   0.498 -0.1524 -0.7266 -0.0005
  183fsi     F2 2147   1.844   2.127   0.729  0.2807 -0.1958 -0.2498
  184fsi     F1 2148   0.222   0.988   1.409 -0.1649  0.5238 -0.5428
  184fsi     S1 2149   0.100   1.014   1.506  0.0520 -0.1437 -0.0104
  184fsi      N 2150   0.132   0.922   1.624  0.0742 -0.4219 -0.1510
  184fsi     O1 2151   0.097   1.155   1.530  0.3946  0.0139 -0.1396
  184fsi     O2 2152  -0.008   0.961   1.434  0.5247 -0.2657 -0.1293
  184fsi     S2 2153   0.203   0.951   1.760 -0.1615 -0.0228  0.1393
  184fsi     O3 2154   0.216   1.092   1.796 -0.1688  0.3791  0.1799
  184fsi     O4 2155   0.325   0.874   1.780  0.5603 -0.8253 -0.0733
  184fsi     F2 2156   0.104   0.894   1.856  0.5001  0.0492 -0.2720
  185fsi     F1 2157   1.806   0.471   2.046  0.0548 -0.3752  0.2291
  185fsi     S1 2158   1.935   0.568   2.023 -0.0719  0.4534 -0.5711
  185fsi      N 2159   1.926   0.652   2.147  0.2461 -0.3387 -0.6123
  185fsi     O1 2160   2.048   0.480   2.014  0.5005 -0.2436  0.6331
  185fsi     O2 2161   1.891   0.641   1.905 -0.3949  0.0614  0.2683
  185fsi     S2 2162   1.993   0.640   2.293  0.3312 -0.2573 -0.0404
  185fsi     O3 2163   1.979   0.763   2.362 -0.2421 -1.0903 -0.1059
  185fsi     O4 2164   2.109   0.556   2.305  0.2541 -0.2282 -0.8027
  185fsi     F2 2165   1.883   0.552   2.356 -0.7372 -0.1753 -0.0324
  186fsi     F1 2166   1.392   2.683   0.352  0.1387  0.2008 -0.4502
  186fsi     S1 2167   1.268   2.641   0.440  0.1779 -0.2603 -0.4230
  186fsi      N 2168   1.145   2.716   0.371  0.1374  0.4568  0.1026
  186fsi     O1 2169   1.263   2.497   0.422  0.1618 -0.3407  0.2367
  186fsi     O2 2170   1.303   2.698   0.566 -0.2330  0.1325  0.0911
  186fsi     S2 2171   1.051   2.674   0.249 -0.4485  0.1029 -0.0173
  186fsi     O3 2172   1.065   2.540   0.199 -0.1130  0.0225  0.6816
  186fsi     O4 2173   1.049   2.778   0.154  0.0816  0.4235  0.1023
  186fsi     F2 2174   0.911   2.678   0.312  0.1401 -0.3916 -0.5236
  187fsi     F1 2175   0.605   1.165   1.389  0.3350  0.2054  0.3816
  187fsi     S1 2176   0.498   1.192   1.508 -0.2182 -0.0517 -0.1840
  187fsi      N 2177   0.592   1.275   1.601 -0.0628 -0.0638 -0.0633
  187fsi     O1 2178   0.392   1.262   1.450  0.6674 -0.2317 -0.2538
  187fsi     O2 2179   0.476   1.065   1.565 -0.8395 -0.2757  0.6889
  187fsi     S2 2180   0.556   1.366   1.723 -0.1043  0.4102  0.0526
  187fsi     O3 2181   0.657   1.360   1.823  0.3905 -0.1794 -0.6204
  187fsi     O4 2182   0.413   1.356   1.767  0.1155  0.1879 -0.5058
  187fsi     F2 2183   0.561   1.508   1.656 -0.0656  0.5244 -0.2289
  188fsi     F1 2184   1.131   0.437   1.487 -0.2099  0.1505 -0.7542
  188fsi     S1 2185   1.082   0.580   1.475  0.2734 -0.0900  0.0724
  188fsi      N 2186   1.197   0.644   1.391  0.2388 -0.0115  0.1895
  188fsi     O1 2187   0.957   0.567   1.407 -0.3334 -0.7571  0.2279
  188fsi     O2 2188   1.083   0.623   1.615  0.8997  0.1342 -0.4446
  188fsi     S2 2189   1.190   0.707   1.251  0.2915 -0.1499 -0.2180
  188fsi     O3 2190   1.139   0.616   1.152 -0.6724  0.4318  0.2275
  188fsi     O4 2191   1.300   0.793   1.209  0.3533  0.2517 -0.1874
  188fsi     F2 2192   1.074   0.811   1.272  0.0810 -0.2678 -0.0254
  189fsi     F1 2193   2.176   1.505   0.123 -0.4876 -0.0536 -0.0361
  189fsi     S1 2194   2.173   1.391   0.012 -0.0174 -0.0523  0.1623
  189fsi      N 2195   2.210   1.464  -0.119 -0.0578 -0.5951 -0.1100
  189fsi     O1 2196   2.269   1.295   0.060  0.3854 -0.2125  0.2289
  189fsi     O2 2197   2.036   1.349   0.007 -0.3111 -0.2565 -0.2425
  189fsi     S2 2198   2.305   1.584  -0.153  0.0187  0.0546  0.3806
  189fsi     O3 2199   2.276   1.704  -0.076  0.2733 -0.2947 -0.0127
  189fsi     O4 2200   2.334   1.602  -0.298 -0.1041  0.6095  0.3090
  189fsi     F2 2201   2.436   1.537  -0.087 -0.5455  0.1575  0.4408
  190fsi     F1 2202   2.320   1.267   0.884  0.2517 -0.1097  0.3553
  190fsi     S1 2203   2.408   1.210   1.000 -0.1984  0.1998 -0.0319
  190fsi      N 2204   2.307   1.225   1.115  0.2634 -0.2736  0.1448
  190fsi     O1 2205   2.435   1.072   0.961 -0.3910 -0.0043  0.1774
  190fsi     O2 2206   2.514   1.302   1.006  0.1917  0.2711 -0.2067
  190fsi     S2 2207   2.307   1.175   1.265  0.4823  0.3285 -0.4493
  190fsi     O3 2208   2.220   1.261   1.345  0.6077 -0.4276  1.0298
  190fsi     O4 2209   2.435   1.138   1.319 -0.8553 -0.2822 -0.1030
  190fsi     F2 2210   2.232   1.038   1.264  0.2866  0.1072  0.4375
  191fsi     F1 2211   1.037   2.036   0.900  0.1321  0.0790  0.0737
  191fsi     S1 2212   1.072   1.886   0.885 -0.2988 -0.0358  0.4241
  191fsi      N 2213   1.167   1.886   0.756  0.0446  0.0707 -0.3307
  191fsi     O1 2214   1.145   1.851   1.004 -0.1510  0.2899 -0.5442
  191fsi     O2 2215   0.947   1.818   0.856 -0.0162  0.0808  0.2509
  191fsi     S2 2216   1.321   1.868   0.737  0.5466  0.3725  0.2698
  191fsi     O3 2217   1.412   1.892   0.844 -0.2378 -0.1710 -0.1923
  191fsi     O4 2218   1.355   1.930   0.614  0.0129 -0.1446  0.4699
  191fsi     F2 2219   1.336   1.719   0.693  0.8351 -0.8027 -0.0516
  192fsi     F1 2220   0.236   0.481   1.404 -0.1119  0.1821 -0.2738
  192fsi     S1 2221   0.224   0.582   1.518  0.0412 -0.0031  0.4957
  192fsi      N 2222   0.338   0.533   1.619 -0.1217 -0.1656 -0.2482
  192fsi     O1 2223   0.256   0.706   1.457 -0.2843 -0.5291  0.2960
  192fsi     O2 2224   0.094   0.556   1.568 -0.0884 -0.1637 -0.5077
  192fsi     S2 2225   0.490   0.574   1.623 -0.1685  0.3576 -0.1954
  192fsi     O3 2226   0.558   0.503   1.727 -0.2468 -0.1986 -0.0158
  192fsi     O4 2227   0.515   0.713   1.621 -0.2089 -0.6783  0.3103
  192fsi     F2 2228   0.547   0.517   1.481  0.0379  0.1922 -0.6902
  193fsi     F1 2229   2.997   0.067   0.305 -0.1177 -0.3375 -0.0997
  193fsi     S1 2230   3.110   0.147   0.228  0.3661 -0.1949 -0.4132
  193fsi      N 2231   3.018   0.249   0.150 -0.3065 -0.1272 -0.0743
  193fsi     O1 2232   3.187   0.202   0.339  0.1211 -0.4503 -0.2003
  193fsi     O2 2233   3.173   0.043   0.149  0.2873 -0.2933 -0.1184
  193fsi     S2 2234   3.009   0.403   0.156 -0.2457  0.0793 -0.3594
  193fsi     O3 2235   2.954   0.457   0.036  0.1392  0.6320  0.0736
  193fsi     O4 2236   3.125   0.472   0.206 -0.0032  0.6000  0.1047
  193fsi     F2 2237   2.903   0.431   0.264  0.4176 -0.0447 -0.3663
  194fsi     F1 2238   1.106   1.244   1.478  0.0995 -0.4386 -0.3091
  194fsi     S1 2239   0.946   1.229   1.505 -0.0330 -0.1716  0.1272
  194fsi      N 2240   0.933   1.071   1.525 -0.4269 -0.0874  0.0842
  194fsi     O1 2241   0.912   1.308   1.620  0.2720 -0.1165  0.1161
  194fsi     O2 2242   0.883   1.272   1.386  0.5412 -0.1556 -0.3080
  194fsi     S2 2243   0.852   0.998   1.634 -0.0904  0.1880  0.3147
  194fsi     O3 2244   0.743   0.927   1.570  0.0665  0.2238  0.5317
  194fsi     O4 2245   0.830   1.069   1.756 -0.6302  0.1882  0.0759
  194fsi     F2 2246   0.953   0.884   1.674  0.0585  0.3007  0.2087
  195fsi     F1 2247   1.748   1.634   2.163 -0.0413  0.0687  0.1884
  195fsi     S1 2248   1.806   1.624   2.020 -0.2582  0.1939  0.2307
  195fsi      N 2249   1.957   1.572   2.042 -0.4595  0.6293  0.0057
  195fsi     O1 2250   1.723   1.524   1.955 -0.1948 -0.4531  0.5589
  195fsi     O2 2251   1.807   1.757   1.965  0.3480 -0.5786 -0.3533
  195fsi     S2 2252   2.011   1.418   2.059  0.0286 -0.0524  0.2865
  195fsi     O3 2253   1.906   1.323   2.095  0.4462  0.4500 -0.0203
  195fsi     O4 2254   2.129   1.406   2.132  0.4437 -0.1723 -0.0110
  195fsi     F2 2255   2.047   1.389   1.907 -0.2700  0.3841  0.1541
  196fsi     F1 2256   1.819   2.773   1.970  0.1666 -0.0689  0.2307
  196fsi     S1 2257   1.975   2.808   2.008  0.2063  0.0908  0.1568
  196fsi      N 2258   2.046   2.791   1.867  0.5094 -0.3788 -0.3242
  196fsi     O1 2259   1.974   2.941   2.066 -0.6354 -0.0157  0.8863
  196fsi     O2 2260   1.997   2.699   2.096  0.0182  0.3827 -0.2584
  196fsi     S2 2261   2.147   2.683   1.817 -0.1093  0.0775  0.3962
  196fsi     O3 2262   2.201   2.592   1.912 -0.0697  0.4094 -0.1897
  196fsi     O4 2263   2.236   2.728   1.713  0.2489  0.2794  0.4792
  196fsi     F2 2264   2.046   2.584   1.733  0.2942 -0.1755 -0.4204
  197fsi     F1 2265   1.395   0.058   1.684  0.2830 -0.0295 -0.4109
  197fsi     S1 2266   1.275   0.158   1.702  0.1394 -0.1687  0.1202
  197fsi      N 2267   1.323   0.289   1.637  0.1533 -0.1008 -0.5116
  197fsi     O1 2268   1.166   0.102   1.628  0.0094 -0.9131 -0.1039
  197fsi     O2 2269   1.267   0.164   1.846 -0.3722  0.1676  0.4072
  197fsi     S2 2270   1.396   0.406   1.702 -0.2159  0.3534 -0.0481
  197fsi     O3 2271   1.307   0.476   1.791  0.0453 -0.1301  0.0769
  197fsi     O4 2272   1.474   0.481   1.611  0.2640  0.0986 -0.1906
  197fsi     F2 2273   1.499   0.334   1.798  0.4350 -0.3129  0.0985
  198fsi     F1 2274   1.779   1.256   1.033 -0.1752  0.3419 -0.3666
  198fsi     S1 2275   1.873   1.147   1.104  0.2259 -0.1239  0.1346
  198fsi      N 2276   1.773   1.068   1.192 -0.4907  0.2734 -0.1020
  198fsi     O1 2277   1.929   1.068   0.995  0.4488  0.3522 -0.5060
  198fsi     O2 2278   1.962   1.227   1.181 -0.2673  0.8137 -0.2846
  198fsi     S2 2279   1.684   0.936   1.180 -0.3638 -0.7772  0.1411
  198fsi     O3 2280   1.691   0.886   1.042 -0.2361 -0.2773 -0.3306
  198fsi     O4 2281   1.553   0.954   1.234 -0.1983  0.4684 -0.8962
  198fsi     F2 2282   1.761   0.826   1.262  0.1787  0.5078  0.2478
  199fsi     F1 2283   1.241   2.601   1.072  0.4509  0.1889 -0.3059
  199fsi     S1 2284   1.252   2.673   1.216 -0.0426 -0.1633 -0.0726
  199fsi      N 2285   1.110   2.660   1.266 -0.0002  0.1692  0.3880
  199fsi     O1 2286   1.344   2.590   1.294  0.0514 -0.0455  0.4346
  199fsi     O2 2287   1.294   2.803   1.179  0.1544 -0.3707  0.0002
  199fsi     S2 2288   1.006   2.771   1.296 -0.0567  0.0691  0.4226
  199fsi     O3 2289   0.876   2.737   1.247 -0.1551  0.1019  0.2081
  199fsi     O4 2290   1.044   2.907   1.286 -0.0875 -0.2500  0.2216
  199fsi     F2 2291   0.988   2.755   1.451 -0.0244 -0.4772  0.3329
  200fsi     F1 2292   0.885   1.535   2.411 -0.5441 -0.1696 -0.0355
  200fsi     S1 2293   0.850   1.624   2.291 -0.0881  0.3059  0.1517
  200fsi      N 2294   0.819   1.520   2.185 -0.0555 -0.7106 -0.1391
  200fsi     O1 2295   0.730   1.691   2.333 -0.1973  0.1252 -0.3650
  200fsi     O2 2296   0.970   1.698   2.271 -0.3335  0.1797 -0.2550
  200fsi     S2 2297   0.924   1.431   2.111  0.1944  0.3800  0.0233
  200fsi     O3 2298   1.053   1.429   2.172  0.3548 -0.0462 -0.1212
  200fsi     O4 2299   0.914   1.441   1.967 -0.2423 -0.3285  0.0189
  200fsi     F2 2300   0.855   1.296   2.160 -0.2540 -0.5485 -0.0407
   3.00221   3.00221   3.00221
