simbox
 2300
    1Li      Li    1   0.879   1.203   0.139 -0.3294 -0.1443 -0.0352
    2Li      Li    2   0.369   0.003   2.095 -0.6408  0.3133  0.7987
    3Li      Li    3   1.280   1.641   1.194 -0.0595 -0.4735  0.1552
    4Li      Li    4   0.728   2.487   1.888  0.6008  0.4062  0.2532
    5Li      Li    5   0.405   0.187   0.022 -0.4045  0.2480  0.2385
    6Li      Li    6   2.773   0.312   0.006 -1.1006  0.2616 -0.0765
    7Li      Li    7   0.067   1.831   1.145  0.0861  0.2910  0.5071
    8Li      Li    8   1.674   2.552   0.740 -0.1705  0.4640  0.4897
    9Li      Li    9   0.131   2.275   0.024  0.3293  0.6322  0.4987
   10Li      Li   10   2.881   1.233   1.280  1.0308  0.1590  0.4402
   11Li      Li   11   2.242   1.348   1.260  0.0076  0.0210  1.0661
   12Li      Li   12   2.634   1.138   1.638 -0.6234  0.7815 -0.1285
   13Li      Li   13   2.884   2.050   2.868 -1.3041 -0.1841 -0.1596
   14Li      Li   14   2.266   0.101   0.003  0.5639 -0.7257 -0.4192
   15Li      Li   15   1.252   0.670   1.753  0.5741 -0.1624 -0.1438
   16Li      Li   16   0.831   1.398   1.242 -0.2840 -0.6347  0.9289
   17Li      Li   17   0.429   1.483   1.619 -0.6292 -0.1013 -0.6130
   18Li      Li   18   0.561   1.928   0.015  0.4936  0.0709  0.1020
   19Li      Li   19   1.655   2.266   2.169  1.0640  0.1919  0.9366
   20Li      Li   20   0.768   2.716   1.244  0.1621  0.8893  0.2255
   21Li      Li   21   2.075   2.559   2.205  0.1378 -0.5361  0.0368
   22Li      Li   22   2.676   0.560   2.725  0.9862  0.6112  0.9880
   23Li      Li   23   1.493   0.997   2.934 -0.3343  0.0441 -0.1018
   24Li      Li   24   0.083   2.276   1.604 -0.6523 -0.3088  0.0835
   25Li      Li   25   2.922   2.193   0.810  0.2095 -0.0152  0.0632
   26Li      Li   26   2.713   2.886   2.378 -1.3772  0.8511 -0.2582
   27Li      Li   27   1.780   1.490   0.812  0.2398 -0.9665  0.1702
   28Li      Li   28   1.817   0.578   2.759  0.5663  0.0689  0.1790
   29Li      Li   29   0.030   0.220   2.562  0.6393  0.0609  0.1899
   30Li      Li   30   1.142   0.060   3.011 -0.2251 -0.3668  1.6928
   31Li      Li   31   1.489   2.017   0.418 -0.4910 -0.0225  0.6310
   32Li      Li   32   0.473   2.224   0.627 -0.1325  0.6170 -0.3285
   33Li      Li   33   1.990   2.245   0.366  1.2699 -0.6502  0.5452
   34Li      Li   34   0.620   0.903   1.737 -0.1504 -0.6169  0.3834
   35Li      Li   35   2.548   1.678   1.728 -0.2167  0.7511 -0.3771
   36Li      Li   36   1.961   0.884   0.846 -0.9310 -0.0124 -0.2773
   37Li      Li   37   0.708   0.109   2.659  0.3141  0.2139  0.7344
   38Li      Li   38   2.648   1.645   0.886 -0.2192  0.0113 -0.3860
   39Li      Li   39   0.169   0.783   2.915 -0.0320 -0.0863 -0.5704
   40Li      Li   40   1.468   0.962   1.312 -0.4167 -1.2609  0.1867
   41Li      Li   41   1.077   1.094   1.764 -0.2603 -0.6249  0.1936
   42Li      Li   42   3.079   2.776   2.000  1.0202  1.5930 -0.1008
   43Li      Li   43   0.043   0.865   1.670 -0.5975  0.0711 -0.3962
   44Li      Li   44   0.294   2.967   1.427 -0.2466 -0.6733 -0.3393
   45Li      Li   45   1.365   2.962   0.416  0.4136  0.3085  0.9263
   46Li      Li   46   1.375   1.405   0.291  0.1666  0.0672  0.8834
   47Li      Li   47   1.857   1.811   1.897  0.2536 -1.0514  0.3316
   48Li      Li   48   3.045   1.702   1.610  0.1837 -0.2405 -0.2756
   49Li      Li   49   0.501   1.279   2.026 -0.1337 -0.3076 -0.1735
   50Li      Li   50   2.492   2.258   0.825  0.3833  0.4871  0.3971
   51c3c      N   51   0.891   0.373   2.114 -0.4387  0.1189  0.2089
   51c3c     C1   52   0.865   0.408   2.255 -0.2002  0.0917 -0.1746
   51c3c     C2   53   0.762   0.378   2.043  0.1563 -0.1739  0.1201
   51c3c     C3   54   0.760   0.523   2.237 -0.3883 -0.7120 -1.0763
   51c3c     C4   55   0.676   0.483   2.114  0.2272 -0.1134 -0.0458
   51c3c     C5   56   0.980   0.468   2.046  0.1465 -0.0282  0.5906
   51c3c     C6   57   0.971   0.252   2.097 -0.0364  0.3023 -0.3019
   51c3c     H1   58   0.957   0.429   2.310 -0.3707 -2.9893  1.3737
   51c3c     H2   59   0.809   0.331   2.309 -1.1554  0.9658  0.0847
   51c3c     H3   60   0.769   0.404   1.937  1.0917  0.7144  0.3823
   51c3c     H4   61   0.715   0.281   2.045 -1.8597  0.6803 -2.8274
   51c3c     H5   62   0.803   0.623   2.229 -2.1210  0.0399 -1.2075
   51c3c     H6   63   0.693   0.531   2.322 -0.8920  1.9899 -1.7027
   51c3c     H7   64   0.664   0.567   2.046  1.7511  0.6309  0.5808
   51c3c     H8   65   0.582   0.440   2.148  0.2712 -0.2826 -0.1383
   51c3c     H9   66   1.077   0.488   2.092  0.7796  0.1395 -0.7896
   51c3c    H10   67   0.990   0.442   1.941 -1.2571  1.4587  0.0624
   51c3c    H11   68   0.934   0.567   2.045  2.6070  1.1481 -0.5054
   51c3c    H12   69   0.991   0.230   1.992  0.1248  1.6191 -0.5606
   51c3c    H13   70   1.072   0.270   2.132  0.5383 -2.3536 -0.4794
   51c3c     C7   71   0.918   0.131   2.178 -0.3219 -0.2517  0.2186
   51c3c    H14   72   0.816   0.103   2.151 -0.7245  0.2523  1.2021
   51c3c    H15   73   0.935   0.146   2.285  1.1807  1.5128 -0.2599
   51c3c     C8   74   1.008   0.017   2.145  0.0063  0.3714  0.5740
   51c3c    H16   75   0.977  -0.069   2.204  1.3779 -0.0463  0.7074
   51c3c    H17   76   1.108   0.047   2.178  1.2748  0.1372 -2.8329
   51c3c    H18   77   1.019  -0.001   2.038 -1.4378  0.4363  0.3980
   52c3c      N   78   0.958   0.588   2.999 -0.6299 -0.2260 -0.0663
   52c3c     C1   79   1.015   0.522   3.118  0.7496  0.1484  0.0613
   52c3c     C2   80   1.019   0.723   2.984  1.0041 -0.0652 -0.1405
   52c3c     C3   81   1.164   0.565   3.108  0.3366 -0.1192  0.2829
   52c3c     C4   82   1.160   0.703   3.039 -0.0022  0.4749  0.3446
   52c3c     C5   83   0.992   0.502   2.880 -0.1357  0.0912  0.0927
   52c3c     C6   84   0.810   0.585   3.014 -0.4653 -0.0496 -0.3781
   52c3c     H1   85   0.992   0.416   3.126 -0.7963  0.3146 -1.8352
   52c3c     H2   86   0.979   0.557   3.215 -0.7744 -2.5498  0.5077
   52c3c     H3   87   1.000   0.777   2.891 -0.5051  2.0456  1.3341
   52c3c     H4   88   0.977   0.793   3.056  0.8667  1.8589 -2.0182
   52c3c     H5   89   1.216   0.504   3.034  2.2255  1.6524  0.0799
   52c3c     H6   90   1.229   0.550   3.194 -0.7361  0.5445  1.2209
   52c3c     H7   91   1.223   0.712   2.950 -0.8276  0.2454 -0.2687
   52c3c     H8   92   1.202   0.764   3.120  3.5805 -3.8990  1.9684
   52c3c     H9   93   0.958   0.399   2.892  1.5609 -0.3227  1.6280
   52c3c    H10   94   0.947   0.528   2.785 -0.7603 -0.0879  0.3381
   52c3c    H11   95   1.100   0.505   2.864  0.0993  0.5039  1.6367
   52c3c    H12   96   0.765   0.623   2.923  2.4806  1.0790 -1.3963
   52c3c    H13   97   0.779   0.480   3.013  0.2690 -0.2820  0.7180
   52c3c     C7   98   0.753   0.668   3.133 -0.7554  0.3615 -0.1708
   52c3c    H14   99   0.765   0.776   3.126 -0.4735  0.3833  0.5481
   52c3c    H15  100   0.781   0.647   3.236 -0.4660  2.0779  0.1277
   52c3c     C8  101   0.608   0.646   3.151  0.0892  0.0394  0.1162
   52c3c    H16  102   0.559   0.691   3.237 -3.1426 -1.4374 -0.8383
   52c3c    H17  103   0.594   0.540   3.170 -0.9576  0.4276  1.5823
   52c3c    H18  104   0.543   0.678   3.070 -0.1725  0.0661  0.3356
   53c3c      N  105   0.871   1.657   0.525 -0.1853  1.0066 -0.3993
   53c3c     C1  106   0.731   1.612   0.556  0.1057 -0.5844 -0.2000
   53c3c     C2  107   0.867   1.806   0.558 -0.3485  0.3939  0.2038
   53c3c     C3  108   0.700   1.694   0.681  0.3793 -0.3858 -0.3252
   53c3c     C4  109   0.772   1.834   0.675  0.1193  0.6473 -0.2706
   53c3c     C5  110   0.961   1.593   0.620 -0.1197  0.6432  0.9855
   53c3c     C6  111   0.917   1.631   0.386  0.6138  0.3777  0.9878
   53c3c     H1  112   0.717   1.507   0.582  0.9092 -1.5956 -3.5841
   53c3c     H2  113   0.665   1.646   0.476 -1.5555  0.7285  1.6768
   53c3c     H3  114   0.970   1.840   0.572 -0.1711  0.7761 -1.7967
   53c3c     H4  115   0.833   1.870   0.476  0.0766  0.9216  0.4378
   53c3c     H5  116   0.738   1.636   0.765 -0.8480 -1.5878 -0.6007
   53c3c     H6  117   0.592   1.703   0.686  0.3687  0.1662 -1.4003
   53c3c     H7  118   0.822   1.864   0.767 -0.6695  3.5673 -0.7439
   53c3c     H8  119   0.697   1.909   0.650  0.8873  0.7932 -2.2988
   53c3c     H9  120   0.955   1.484   0.615 -3.4435  0.7689  1.1508
   53c3c    H10  121   1.068   1.616   0.612  0.2090 -0.0367  3.0483
   53c3c    H11  122   0.948   1.614   0.726  1.8701 -0.0436  1.3958
   53c3c    H12  123   1.020   1.665   0.388  0.5295  0.7683 -0.9401
   53c3c    H13  124   0.926   1.522   0.388 -2.1842  0.1263  3.0183
   53c3c     C7  125   0.840   1.695   0.268 -0.0462 -0.4768  0.1876
   53c3c    H14  126   0.849   1.803   0.257 -4.1468  0.3792  3.9204
   53c3c    H15  127   0.731   1.685   0.269 -0.2426  1.1329 -1.6254
   53c3c     C8  128   0.891   1.647   0.125  0.5207 -0.1061 -0.0761
   53c3c    H16  129   0.884   1.540   0.141 -1.9079  0.2755  1.7326
   53c3c    H17  130   0.990   1.686   0.104 -0.4296  1.7512 -1.2751
   53c3c    H18  131   0.833   1.672   0.036 -0.5339  1.8878  1.1219
   54c3c      N  132   1.527   0.233   1.221  0.3288 -0.6675 -0.6871
   54c3c     C1  133   1.489   0.359   1.148  0.1583 -0.1922  0.5577
   54c3c     C2  134   1.392   0.175   1.246  1.0304  0.2584 -0.4797
   54c3c     C3  135   1.367   0.326   1.062  0.0949 -0.3531  0.1556
   54c3c     C4  136   1.313   0.200   1.117 -0.5854  0.6626 -0.3042
   54c3c     C5  137   1.596   0.147   1.122  0.1900  0.3293  0.6598
   54c3c     C6  138   1.618   0.236   1.337 -0.0852 -0.4455  0.1571
   54c3c     H1  139   1.575   0.391   1.089 -1.0433  2.3568  0.1120
   54c3c     H2  140   1.463   0.443   1.213  1.2554  1.4758 -1.1088
   54c3c     H3  141   1.394   0.071   1.279  2.4918  1.2695  2.8804
   54c3c     H4  142   1.337   0.228   1.324  1.6591  1.1548 -0.6293
   54c3c     H5  143   1.393   0.318   0.957 -0.6102  1.0978 -0.1420
   54c3c     H6  144   1.301   0.412   1.067 -1.0250 -1.2531  1.5953
   54c3c     H7  145   1.327   0.119   1.045  1.8979  0.7246  0.0625
   54c3c     H8  146   1.207   0.206   1.141 -0.0250 -0.0376  2.4861
   54c3c     H9  147   1.690   0.194   1.094  0.9054 -0.2083  2.1319
   54c3c    H10  148   1.617   0.046   1.157 -0.6892  0.2927  1.1127
   54c3c    H11  149   1.536   0.144   1.031 -0.0426  0.3898  0.8113
   54c3c    H12  150   1.628   0.135   1.376 -1.0773 -0.4076  0.5323
   54c3c    H13  151   1.713   0.280   1.309 -0.9877  0.9421 -0.7898
   54c3c     C7  152   1.569   0.332   1.448  0.4958  0.1894 -0.5689
   54c3c    H14  153   1.474   0.291   1.481  1.4704 -0.6525  1.2960
   54c3c    H15  154   1.555   0.434   1.411 -0.9688 -0.0499 -0.6884
   54c3c     C8  155   1.655   0.355   1.562  0.1429 -0.4632 -0.4917
   54c3c    H16  156   1.730   0.426   1.525 -0.8018  0.8403  0.0438
   54c3c    H17  157   1.696   0.264   1.605 -1.2386 -1.3943 -1.1152
   54c3c    H18  158   1.599   0.402   1.643  0.9848  3.2873 -1.9914
   55c3c      N  159   0.442   1.505   2.597 -0.2674 -0.2204 -0.2831
   55c3c     C1  160   0.297   1.495   2.582 -0.3203 -0.2418  0.2909
   55c3c     C2  161   0.458   1.485   2.748  0.0693  0.3865 -0.2932
   55c3c     C3  162   0.244   1.391   2.681 -0.4635 -0.4178 -0.2904
   55c3c     C4  163   0.354   1.378   2.790 -0.3166 -0.3942  0.1374
   55c3c     C5  164   0.506   1.392   2.525 -0.0342  0.3512  1.0423
   55c3c     C6  165   0.497   1.633   2.552 -0.0054 -0.8693 -0.1575
   55c3c     H1  166   0.251   1.483   2.484 -1.6663  2.9608  0.4830
   55c3c     H2  167   0.249   1.587   2.614  1.3152  0.4934  0.6261
   55c3c     H3  168   0.554   1.435   2.764  0.0290  0.8541  1.5203
   55c3c     H4  169   0.455   1.568   2.818  2.2839 -0.1826  0.5434
   55c3c     H5  170   0.238   1.293   2.632  1.4345  0.1134 -1.6469
   55c3c     H6  171   0.163   1.434   2.741  0.5270 -0.9652  1.4795
   55c3c     H7  172   0.399   1.278   2.788 -1.8381 -1.0893 -0.1841
   55c3c     H8  173   0.317   1.400   2.890 -1.3527  0.9915 -0.5444
   55c3c     H9  174   0.472   1.407   2.422 -2.3593 -2.2924  1.3750
   55c3c    H10  175   0.614   1.387   2.521 -0.0966 -0.9252  0.6863
   55c3c    H11  176   0.466   1.297   2.561 -1.7698  0.3532 -0.7604
   55c3c    H12  177   0.601   1.626   2.582 -0.3543 -2.6953  0.6706
   55c3c    H13  178   0.510   1.649   2.445  1.7506  2.5354  0.5105
   55c3c     C7  179   0.425   1.759   2.607 -0.1526  0.2694  0.4534
   55c3c    H14  180   0.406   1.735   2.712 -0.3059 -0.4249  0.2747
   55c3c    H15  181   0.332   1.792   2.562 -0.0000 -0.5046 -0.4439
   55c3c     C8  182   0.509   1.893   2.611 -0.0951  0.8552  0.0669
   55c3c    H16  183   0.453   1.978   2.649  1.4031  0.3143  3.6690
   55c3c    H17  184   0.548   1.911   2.511  2.7222  2.3231  1.3941
   55c3c    H18  185   0.587   1.867   2.682  0.5296 -0.9734 -1.2297
   56c3c      N  186   2.715   0.961   0.192  0.0392 -0.0302  0.1184
   56c3c     C1  187   2.784   0.849   0.254 -0.1759  0.8538  0.2622
   56c3c     C2  188   2.632   1.005   0.307 -0.1527 -0.3386 -0.6022
   56c3c     C3  189   2.808   0.872   0.396 -0.2370  0.0336  0.1528
   56c3c     C4  190   2.720   0.993   0.431 -0.1759  0.0350  0.0870
   56c3c     C5  191   2.815   1.061   0.152  0.1515 -0.1926  0.1732
   56c3c     C6  192   2.650   0.935   0.058  0.5489  0.2303 -0.2039
   56c3c     H1  193   2.877   0.817   0.208  0.0407  2.6178 -0.5461
   56c3c     H2  194   2.720   0.761   0.242 -0.3262  1.2775 -2.6342
   56c3c     H3  195   2.597   1.108   0.295  1.4273  0.2827  0.0730
   56c3c     H4  196   2.547   0.937   0.305 -1.7003  1.5468 -0.6758
   56c3c     H5  197   2.912   0.889   0.425 -0.9224  1.5084  1.8182
   56c3c     H6  198   2.785   0.785   0.456  2.7702 -1.8183 -1.2518
   56c3c     H7  199   2.775   1.087   0.441  1.2723 -0.5767 -1.7738
   56c3c     H8  200   2.659   0.980   0.520  0.2109  1.1132  0.5212
   56c3c     H9  201   2.881   1.026   0.073 -0.7219 -0.6511 -0.3705
   56c3c    H10  202   2.758   1.142   0.106  3.4084  2.0867 -0.0420
   56c3c    H11  203   2.877   1.109   0.227  1.6599 -2.0123  0.1361
   56c3c    H12  204   2.604   1.021   0.010 -4.0444 -1.2325  1.2789
   56c3c    H13  205   2.720   0.888  -0.011  1.4290  0.6719  0.3902
   56c3c     C7  206   2.529   0.839   0.066  0.0531  0.1527 -0.0214
   56c3c    H14  207   2.456   0.880   0.135 -0.1149  1.0583 -0.7242
   56c3c    H15  208   2.565   0.743   0.101 -0.3730  0.0060  0.0151
   56c3c     C8  209   2.469   0.813  -0.081  0.3304  0.1568  0.3726
   56c3c    H16  210   2.547   0.767  -0.141  0.5524  0.5090  0.3901
   56c3c    H17  211   2.424   0.907  -0.112 -1.3302 -0.5855  0.4807
   56c3c    H18  212   2.392   0.736  -0.081  2.2541 -1.8984  3.4252
   57c3c      N  213   0.954   2.319   0.465  0.2056 -0.0622 -0.4418
   57c3c     C1  214   1.086   2.265   0.480 -0.6938  0.0335 -0.1022
   57c3c     C2  215   0.864   2.211   0.510 -0.1357  0.2444 -0.0073
   57c3c     C3  216   1.088   2.192   0.611  0.6094 -0.2658  0.0888
   57c3c     C4  217   0.945   2.142   0.632 -0.1041 -1.0626 -0.1039
   57c3c     C5  218   0.946   2.430   0.558 -0.1326  0.2502  0.4387
   57c3c     C6  219   0.924   2.373   0.327 -0.4523  0.5199  0.2704
   57c3c     H1  220   1.170   2.334   0.480 -1.9830  1.6524 -1.7706
   57c3c     H2  221   1.114   2.204   0.394  2.9840  0.9048  0.4121
   57c3c     H3  222   0.766   2.247   0.539  0.0963  1.6411 -0.8796
   57c3c     H4  223   0.859   2.124   0.445  3.2540 -2.1215  2.6624
   57c3c     H5  224   1.110   2.260   0.694 -0.1221  0.2497 -0.1313
   57c3c     H6  225   1.163   2.114   0.599  1.7326  0.8341 -0.2251
   57c3c     H7  226   0.905   2.178   0.727 -1.3809 -0.9686 -0.6724
   57c3c     H8  227   0.933   2.034   0.633 -1.3327 -0.9284  0.5831
   57c3c     H9  228   1.023   2.503   0.534  0.7216 -0.9546 -0.6182
   57c3c    H10  229   0.851   2.481   0.547 -1.8250 -2.7345  0.5922
   57c3c    H11  230   0.942   2.412   0.665 -1.7976 -0.8071  0.2202
   57c3c    H12  231   0.817   2.395   0.330 -0.7646 -0.7229 -1.0871
   57c3c    H13  232   0.971   2.467   0.297 -0.8887  1.0620  1.2458
   57c3c     C7  233   0.933   2.286   0.205  0.1967 -0.4435  0.3660
   57c3c    H14  234   0.866   2.202   0.224 -0.1709 -0.5923 -1.5184
   57c3c    H15  235   1.034   2.246   0.201 -0.3982 -1.8930 -0.3182
   57c3c     C8  236   0.904   2.374   0.081 -0.7759  0.0987 -0.1711
   57c3c    H16  237   0.801   2.405   0.064 -1.0867 -0.0588  1.2895
   57c3c    H17  238   0.929   2.316  -0.008  1.4728  0.2524  0.3228
   57c3c    H18  239   0.970   2.460   0.086  1.3534 -1.5667  1.3399
   58c3c      N  240   0.892   0.288   1.458  0.0627 -0.4171 -0.4028
   58c3c     C1  241   1.034   0.248   1.468  0.3788 -0.2479 -0.1787
   58c3c     C2  242   0.820   0.167   1.424 -0.3760 -0.3302  0.4202
   58c3c     C3  243   1.033   0.110   1.532  1.0078  0.7246  0.7088
   58c3c     C4  244   0.886   0.058   1.509  0.0403  0.5025 -0.0583
   58c3c     C5  245   0.834   0.327   1.585 -0.6212 -0.1334 -0.1879
   58c3c     C6  246   0.870   0.404   1.368 -0.4150  0.8140 -0.7966
   58c3c     H1  247   1.101   0.324   1.507  1.5502 -0.3137 -2.0287
   58c3c     H2  248   1.069   0.221   1.369 -1.1694  0.2508 -0.8753
   58c3c     H3  249   0.713   0.174   1.446 -0.2794  1.8683  0.3357
   58c3c     H4  250   0.838   0.142   1.319  0.0445  0.0369  0.4054
   58c3c     H5  251   1.054   0.118   1.639 -1.8666 -0.7668  1.4212
   58c3c     H6  252   1.113   0.044   1.498  0.4634  1.0766 -1.3530
   58c3c     H7  253   0.830   0.052   1.603  0.2068  1.6278  0.1137
   58c3c     H8  254   0.900  -0.038   1.458  3.5307 -0.3063  2.2323
   58c3c     H9  255   0.895   0.403   1.633 -2.7101  1.3858  0.1207
   58c3c    H10  256   0.734   0.368   1.575  0.0275  2.0750  1.8605
   58c3c    H11  257   0.826   0.250   1.662  2.3828  1.5759  1.9236
   58c3c    H12  258   0.768   0.440   1.363 -0.3148  0.9432 -2.2874
   58c3c    H13  259   0.938   0.483   1.401 -0.9817  1.8513 -2.0901
   58c3c     C7  260   0.898   0.381   1.218  0.3082  0.1535  0.7287
   58c3c    H14  261   0.820   0.319   1.173  1.1768  0.7786 -1.7230
   58c3c    H15  262   0.997   0.337   1.201 -0.6898 -1.6615 -0.6580
   58c3c     C8  263   0.892   0.512   1.142 -0.2537 -0.3311 -0.0947
   58c3c    H16  264   0.791   0.554   1.143 -0.4407 -0.7755 -0.1071
   58c3c    H17  265   0.916   0.500   1.036 -0.7734 -1.1646 -0.1254
   58c3c    H18  266   0.958   0.587   1.185 -1.3872  0.5774  0.0849
   59c3c      N  267   1.292   2.249   1.246 -0.0679 -0.6378 -0.3476
   59c3c     C1  268   1.297   2.385   1.183 -0.0325 -0.2045  0.0481
   59c3c     C2  269   1.156   2.217   1.261 -0.3043  0.1416 -0.3592
   59c3c     C3  270   1.179   2.375   1.083  0.5792  0.8932 -0.1686
   59c3c     C4  271   1.081   2.264   1.135  0.4967  0.7540  0.0363
   59c3c     C5  272   1.348   2.156   1.151 -0.1285  1.0022  1.0357
   59c3c     C6  273   1.369   2.228   1.371  0.2085  0.1934  0.0548
   59c3c     H1  274   1.391   2.418   1.139 -0.1171 -0.1461 -0.0905
   59c3c     H2  275   1.285   2.459   1.262 -3.2000 -1.0380  0.4047
   59c3c     H3  276   1.147   2.109   1.274  1.9417 -0.2286 -1.5525
   59c3c     H4  277   1.114   2.267   1.349  0.2351  0.9860 -0.5725
   59c3c     H5  278   1.225   2.347   0.988 -2.0239 -1.4134 -0.8073
   59c3c     H6  279   1.133   2.473   1.073  1.8783  1.5136 -0.2089
   59c3c     H7  280   1.076   2.194   1.051 -0.0860  1.3993 -0.4638
   59c3c     H8  281   0.981   2.296   1.162 -0.1581 -1.3874  0.2760
   59c3c     H9  282   1.445   2.194   1.122  0.1254  0.9751  1.8342
   59c3c    H10  283   1.362   2.055   1.190  0.1874 -0.3839 -2.4549
   59c3c    H11  284   1.279   2.140   1.068  0.6420 -0.9131  0.7510
   59c3c    H12  285   1.363   2.122   1.395 -0.4577  0.3207  0.4877
   59c3c    H13  286   1.470   2.245   1.334  0.3307  0.4855  0.5272
   59c3c     C7  287   1.337   2.329   1.488 -0.4350 -0.2669  0.2530
   59c3c    H14  288   1.231   2.334   1.510 -0.4884 -0.1972 -0.0238
   59c3c    H15  289   1.384   2.425   1.463  0.4913 -0.7243  0.2058
   59c3c     C8  290   1.408   2.275   1.608  0.6309 -0.5251  0.1697
   59c3c    H16  291   1.516   2.270   1.590  0.2959  0.1004 -2.1131
   59c3c    H17  292   1.374   2.176   1.637 -1.7066  0.2100  0.0254
   59c3c    H18  293   1.396   2.346   1.690 -3.4688 -0.3231 -0.5372
   60c3c      N  294   2.378   1.731   2.351  0.3580 -0.3832  0.3138
   60c3c     C1  295   2.333   1.595   2.368  0.2116 -0.2027 -0.5445
   60c3c     C2  296   2.353   1.791   2.483 -0.4336 -0.0771  0.6138
   60c3c     C3  297   2.341   1.553   2.514 -0.0274 -0.3032 -0.3801
   60c3c     C4  298   2.378   1.679   2.590 -0.2856  0.7518 -0.1002
   60c3c     C5  299   2.528   1.713   2.325 -0.1573 -0.3365 -0.0371
   60c3c     C6  300   2.320   1.805   2.237  0.4131  0.1660  0.0706
   60c3c     H1  301   2.391   1.526   2.306  0.9146  0.5400 -0.7247
   60c3c     H2  302   2.226   1.583   2.349  0.5227 -1.8084 -1.4063
   60c3c     H3  303   2.400   1.888   2.499  0.1457 -0.4410  1.1400
   60c3c     H4  304   2.245   1.795   2.489 -0.6364 -4.3486  1.1295
   60c3c     H5  305   2.397   1.465   2.546  1.5893  0.8205 -0.1097
   60c3c     H6  306   2.239   1.527   2.544  0.0218 -1.7004 -1.3795
   60c3c     H7  307   2.478   1.672   2.633  0.0303 -1.1804 -1.0887
   60c3c     H8  308   2.299   1.699   2.663 -2.7439 -0.7685 -2.2336
   60c3c     H9  309   2.560   1.655   2.238 -1.1670  0.6227 -1.0549
   60c3c    H10  310   2.559   1.818   2.319  2.4623 -0.9476  1.8437
   60c3c    H11  311   2.574   1.662   2.410  1.4832 -2.1077 -1.9216
   60c3c    H12  312   2.360   1.906   2.235 -1.2571  0.8315 -0.6020
   60c3c    H13  313   2.350   1.752   2.147  0.2583 -0.3892  0.3416
   60c3c     C7  314   2.163   1.821   2.233 -0.1825  0.1889  0.3504
   60c3c    H14  315   2.128   1.879   2.318  0.0328  0.9998 -0.1063
   60c3c    H15  316   2.117   1.723   2.248 -2.1465  1.2481  1.4438
   60c3c     C8  317   2.112   1.892   2.107  0.8405 -0.0361 -0.7721
   60c3c    H16  318   2.162   1.847   2.021  0.9655  0.7119 -1.0918
   60c3c    H17  319   2.138   1.997   2.115 -1.0707  0.4705 -1.0661
   60c3c    H18  320   2.004   1.893   2.097  0.7661 -2.8152 -0.7002
   61c3c      N  321   0.351   2.804   0.273  0.3022 -0.5947 -0.4045
   61c3c     C1  322   0.426   2.687   0.224 -0.1026 -0.2149 -0.4178
   61c3c     C2  323   0.449   2.897   0.319 -0.0258  0.6008 -0.0259
   61c3c     C3  324   0.561   2.739   0.177  0.5994 -0.2288  0.0254
   61c3c     C4  325   0.569   2.885   0.222 -0.1800  0.0078 -0.3098
   61c3c     C5  326   0.276   2.856   0.155 -0.3228 -0.3014 -0.4583
   61c3c     C6  327   0.250   2.769   0.375  0.2332  0.7378  0.5255
   61c3c     H1  328   0.383   2.632   0.140  0.6339  0.7280 -1.4249
   61c3c     H2  329   0.445   2.627   0.312  0.3825  1.8293  0.8990
   61c3c     H3  330   0.420   3.001   0.335  0.1264  0.4003  1.6223
   61c3c     H4  331   0.487   2.867   0.417 -2.4410 -1.6848  0.2723
   61c3c     H5  332   0.576   2.743   0.069 -0.9862 -3.3890 -0.3527
   61c3c     H6  333   0.642   2.673   0.208  0.6481 -0.1262  0.1163
   61c3c     H7  334   0.558   2.949   0.135  1.6778  0.0057 -0.5687
   61c3c     H8  335   0.663   2.898   0.275 -0.9133 -1.7420  1.5259
   61c3c     H9  336   0.198   2.782   0.134 -0.3211 -0.6526  0.7395
   61c3c    H10  337   0.231   2.953   0.179  0.1351 -0.3905  0.8168
   61c3c    H11  338   0.325   2.860   0.059 -0.6278 -0.5305 -0.6243
   61c3c    H12  339   0.202   2.860   0.412 -1.9159  0.4639 -1.5164
   61c3c    H13  340   0.176   2.698   0.336  1.3083 -0.3179  0.3716
   61c3c     C7  341   0.289   2.710   0.510 -0.1029 -0.2922  0.2913
   61c3c    H14  342   0.356   2.774   0.568 -0.2247  0.0806  0.0173
   61c3c    H15  343   0.364   2.631   0.512 -0.6782 -0.8360  0.4055
   61c3c     C8  344   0.177   2.684   0.613 -0.1748  0.3015  0.1028
   61c3c    H16  345   0.142   2.580   0.609 -0.0520  0.3187 -2.0840
   61c3c    H17  346   0.084   2.738   0.598 -1.6908 -2.1753  0.1578
   61c3c    H18  347   0.212   2.696   0.715 -0.9105 -1.2526  0.5608
   62c3c      N  348   2.443   1.850   0.426  0.2552 -0.0064  0.0899
   62c3c     C1  349   2.370   1.756   0.345 -0.0545 -0.0622 -0.0096
   62c3c     C2  350   2.355   1.965   0.441 -0.0845 -0.4638 -0.2045
   62c3c     C3  351   2.227   1.764   0.404 -1.2023 -0.6922  0.0830
   62c3c     C4  352   2.216   1.904   0.465 -0.3502  0.0953  0.1420
   62c3c     C5  353   2.471   1.782   0.557 -0.3827 -0.0883  0.0525
   62c3c     C6  354   2.580   1.879   0.372 -0.1307 -0.3265  0.1178
   62c3c     H1  355   2.413   1.657   0.327  0.2603  0.6951 -3.7417
   62c3c     H2  356   2.365   1.795   0.244  1.5987 -0.9050 -0.4490
   62c3c     H3  357   2.393   2.030   0.520 -1.0762 -0.0910 -0.0384
   62c3c     H4  358   2.357   2.021   0.348  0.3950 -1.5455 -0.8621
   62c3c     H5  359   2.219   1.689   0.483  1.6741 -0.3206  0.7750
   62c3c     H6  360   2.148   1.746   0.331 -2.4395  0.0536  1.2256
   62c3c     H7  361   2.192   1.899   0.571 -1.1601  1.9785  0.0747
   62c3c     H8  362   2.147   1.971   0.414 -0.2274 -0.8171 -1.2466
   62c3c     H9  363   2.530   1.691   0.553  0.4003  0.4535 -1.5502
   62c3c    H10  364   2.530   1.842   0.626  1.7629 -0.1414 -1.6605
   62c3c    H11  365   2.384   1.752   0.615 -1.6860 -0.0285 -1.8189
   62c3c    H12  366   2.638   1.933   0.447  3.1384  0.0066 -2.4831
   62c3c    H13  367   2.635   1.786   0.356  0.9012  0.4538 -0.9816
   62c3c     C7  368   2.596   1.972   0.263 -0.1849  0.4585 -0.0410
   62c3c    H14  369   2.560   2.069   0.298 -1.7966 -0.5264  1.1234
   62c3c    H15  370   2.525   1.946   0.185  2.3160  1.9868 -2.9235
   62c3c     C8  371   2.739   1.957   0.222  0.1361  0.3564 -0.2648
   62c3c    H16  372   2.757   1.870   0.159  1.1393  0.3851 -0.0266
   62c3c    H17  373   2.808   1.964   0.306 -0.0285 -1.2415  0.0094
   62c3c    H18  374   2.766   2.027   0.143  1.6170 -0.1184 -0.1864
   63c3c      N  375   0.914   1.048   2.522 -0.2085  0.1429 -0.2759
   63c3c     C1  376   0.984   1.067   2.652 -0.3185  0.1091 -0.5647
   63c3c     C2  377   0.812   1.157   2.544  0.1885  0.2120 -0.3459
   63c3c     C3  378   0.990   1.219   2.687 -0.1761  1.0720  0.1937
   63c3c     C4  379   0.881   1.279   2.604  0.0574  0.1567 -0.0700
   63c3c     C5  380   1.003   1.089   2.415  0.4318 -0.0462  0.0617
   63c3c     C6  381   0.866   0.917   2.492  0.0371  0.2054  0.5735
   63c3c     H1  382   1.075   1.008   2.659 -1.6810 -2.6532 -4.4340
   63c3c     H2  383   0.932   1.021   2.736 -0.7462 -2.0300 -1.9537
   63c3c     H3  384   0.768   1.184   2.448  2.2580  1.3874 -0.9926
   63c3c     H4  385   0.727   1.117   2.599  0.4278  3.1571  2.3107
   63c3c     H5  386   1.088   1.267   2.679 -0.0731  0.6797 -0.9771
   63c3c     H6  387   0.965   1.224   2.793 -0.5512 -1.4894  0.2645
   63c3c     H7  388   0.923   1.346   2.528 -1.9275  1.7315  0.1875
   63c3c     H8  389   0.817   1.340   2.668  0.0668  0.1229 -0.0286
   63c3c     H9  390   1.093   1.030   2.397 -0.1565 -0.8457 -0.3562
   63c3c    H10  391   0.948   1.078   2.321  1.0567 -1.4961 -0.1491
   63c3c    H11  392   1.045   1.189   2.422 -0.6422  0.2120  3.7895
   63c3c    H12  393   0.807   0.923   2.400 -0.0102  1.2009  0.6712
   63c3c    H13  394   0.945   0.851   2.458 -0.2661 -0.6223  1.4357
   63c3c     C7  395   0.787   0.833   2.598  0.6786 -0.3970  0.3796
   63c3c    H14  396   0.705   0.891   2.641 -0.9025 -2.4852  0.2716
   63c3c    H15  397   0.848   0.803   2.682  0.1122 -0.7934  0.6549
   63c3c     C8  398   0.745   0.696   2.537 -0.4792 -0.1373  0.1767
   63c3c    H16  399   0.677   0.717   2.454  1.4072  0.3806 -1.2842
   63c3c    H17  400   0.703   0.629   2.612  0.2859  0.3579  1.0433
   63c3c    H18  401   0.831   0.645   2.493  1.0031  1.3738  1.2553
   64c3c      N  402   2.996   1.174   2.345 -0.3776  0.4993 -0.2606
   64c3c     C1  403   3.001   1.032   2.311  0.0922  0.0817  0.5420
   64c3c     C2  404   2.971   1.178   2.490  0.5794 -0.4574  0.4198
   64c3c     C3  405   3.086   0.975   2.429 -0.2866  0.6244  0.3038
   64c3c     C4  406   3.083   1.079   2.538 -0.2375 -0.3536 -0.2394
   64c3c     C5  407   3.123   1.241   2.306 -0.2251  0.0778  0.0149
   64c3c     C6  408   2.890   1.240   2.272 -0.6387 -0.0930 -0.3411
   64c3c     H1  409   3.041   1.006   2.213  0.4136  0.2800  0.6181
   64c3c     H2  410   2.904   0.984   2.311 -0.8852  1.9142 -2.1325
   64c3c     H3  411   2.977   1.275   2.538  0.8056 -0.1408 -0.2427
   64c3c     H4  412   2.877   1.127   2.511  0.4234  0.2451  1.4348
   64c3c     H5  413   3.190   0.951   2.407 -0.3836 -0.8726  1.4082
   64c3c     H6  414   3.041   0.885   2.469 -2.5341  0.6794 -2.0033
   64c3c     H7  415   3.177   1.128   2.561 -0.7755 -0.3511  2.0356
   64c3c     H8  416   3.067   1.038   2.638 -0.4988  1.6467  0.5617
   64c3c     H9  417   3.140   1.243   2.199  0.3918 -1.9194  0.0488
   64c3c    H10  418   3.122   1.342   2.347 -0.4119  1.0560 -2.3235
   64c3c    H11  419   3.212   1.197   2.352 -0.2381 -2.3667 -2.2115
   64c3c    H12  420   2.901   1.347   2.287 -0.2008 -0.0125 -1.2299
   64c3c    H13  421   2.917   1.229   2.167 -0.3925  0.7710 -0.3755
   64c3c     C7  422   2.740   1.205   2.293  0.1025  0.4328 -0.2037
   64c3c    H14  423   2.722   1.181   2.398 -1.7315  3.0393  0.1172
   64c3c    H15  424   2.705   1.120   2.235 -1.0109  0.0953  0.9163
   64c3c     C8  425   2.648   1.316   2.260  0.2947  0.3028 -0.6198
   64c3c    H16  426   2.546   1.282   2.240  0.0351  0.4811  0.3771
   64c3c    H17  427   2.681   1.373   2.173  0.6902 -0.7803 -1.1942
   64c3c    H18  428   2.632   1.373   2.351  1.4057 -1.1466  0.5022
   65c3c      N  429   0.894   0.039   0.707 -0.3402  0.1445 -0.0321
   65c3c     C1  430   0.826  -0.038   0.599  0.5644 -0.9586 -0.2213
   65c3c     C2  431   0.868  -0.036   0.833  0.6867  0.6800 -0.4088
   65c3c     C3  432   0.838  -0.186   0.635  0.1678  0.1542  0.7763
   65c3c     C4  433   0.884  -0.185   0.784 -0.1675  0.4597 -0.0564
   65c3c     C5  434   1.039   0.054   0.681 -0.4669  0.2301 -0.4266
   65c3c     C6  435   0.851   0.180   0.705 -0.3064  0.2704 -1.0210
   65c3c     H1  436   0.851  -0.012   0.496 -1.2867 -0.0826 -0.4672
   65c3c     H2  437   0.720  -0.019   0.613  0.5214 -1.2750 -0.1145
   65c3c     H3  438   0.936  -0.025   0.917  0.3238  0.0648 -0.0343
   65c3c     H4  439   0.766  -0.012   0.859  1.2711  2.0660  0.6231
   65c3c     H5  440   0.914  -0.240   0.579 -1.0122  1.2778 -1.9607
   65c3c     H6  441   0.748  -0.243   0.612  1.5919 -0.6601 -3.1442
   65c3c     H7  442   0.989  -0.213   0.784 -0.6855 -1.5988 -1.9370
   65c3c     H8  443   0.829  -0.260   0.841  0.4836  1.2812  1.6861
   65c3c     H9  444   1.066   0.125   0.603  0.0457 -0.6622 -1.0725
   65c3c    H10  445   1.099   0.082   0.767 -0.8062  0.9147 -0.4086
   65c3c    H11  446   1.083  -0.040   0.647  2.1443  1.9653 -1.9740
   65c3c    H12  447   0.917   0.243   0.765 -3.2890  0.0083  2.7191
   65c3c    H13  448   0.854   0.230   0.607 -0.3220  0.1610 -1.0769
   65c3c     C7  449   0.709   0.211   0.752 -0.4107 -0.9581 -0.8713
   65c3c    H14  450   0.678   0.176   0.851  2.2249 -1.1830 -0.0898
   65c3c    H15  451   0.642   0.163   0.680 -1.3351  0.9209 -1.2776
   65c3c     C8  452   0.677   0.354   0.724  0.2183 -0.4383 -0.4269
   65c3c    H16  453   0.578   0.387   0.755  0.5551 -0.0960  0.2880
   65c3c    H17  454   0.669   0.372   0.617 -0.2468 -0.1382 -0.3459
   65c3c    H18  455   0.757   0.423   0.750 -2.1389  2.4287 -0.4845
   66c3c      N  456   0.362   0.881   0.522  0.2830  0.4036  0.1265
   66c3c     C1  457   0.438   0.978   0.441 -0.2235  0.0209  0.4320
   66c3c     C2  458   0.475   0.787   0.556  0.2021  0.7128 -0.9203
   66c3c     C3  459   0.550   0.894   0.359  0.3055 -0.0750  0.0155
   66c3c     C4  460   0.573   0.774   0.440 -0.0208  0.0019  0.0272
   66c3c     C5  461   0.292   0.950   0.635 -0.8438  0.1146 -0.1141
   66c3c     C6  462   0.259   0.829   0.426  1.0942  0.1180  0.1537
   66c3c     H1  463   0.489   1.043   0.512  0.5488 -2.0613  1.8666
   66c3c     H2  464   0.374   1.044   0.384 -0.2418 -1.2714 -1.0907
   66c3c     H3  465   0.546   0.836   0.622  2.3049 -2.1210 -1.0172
   66c3c     H4  466   0.441   0.691   0.594 -0.3959  1.2600 -0.0620
   66c3c     H5  467   0.645   0.948   0.348  0.2127  0.2773  0.9096
   66c3c     H6  468   0.503   0.865   0.266  2.4087 -0.5094 -0.9541
   66c3c     H7  469   0.677   0.768   0.472 -0.3406 -2.1395  0.7669
   66c3c     H8  470   0.558   0.685   0.379 -0.7837 -0.6169  1.1140
   66c3c     H9  471   0.223   1.030   0.609  2.1322  2.1685 -1.8812
   66c3c    H10  472   0.242   0.870   0.691  0.4469  1.5220  3.1318
   66c3c    H11  473   0.356   0.997   0.710  1.4173 -0.1664 -1.8302
   66c3c    H12  474   0.192   0.910   0.398  0.0147 -1.3599 -1.6790
   66c3c    H13  475   0.307   0.790   0.336  0.1270  1.7190 -1.0954
   66c3c     C7  476   0.162   0.722   0.484 -0.0879  1.1201  0.3222
   66c3c    H14  477   0.094   0.766   0.557 -0.1885 -1.4497  1.8379
   66c3c    H15  478   0.217   0.638   0.527  2.8560  3.2751  0.8788
   66c3c     C8  479   0.060   0.676   0.375 -0.4790 -0.2554 -0.1478
   66c3c    H16  480   0.029   0.575   0.403  1.1326 -0.6581  0.2464
   66c3c    H17  481   0.090   0.662   0.271  1.9033  0.9480  0.3425
   66c3c    H18  482  -0.020   0.749   0.368 -0.4338 -0.0888  0.9620
   67c3c      N  483   2.887   1.514   3.008  1.2565  0.5980  0.4684
   67c3c     C1  484   3.026   1.483   2.980  0.5849  0.9076  0.8738
   67c3c     C2  485   2.870   1.452   3.140  0.3216 -0.1666 -0.5708
   67c3c     C3  486   3.103   1.496   3.120  0.0243 -0.1736  0.3498
   67c3c     C4  487   2.996   1.446   3.216 -0.0476  0.1784 -0.0541
   67c3c     C5  488   2.861   1.658   3.023  0.4875  0.3808  0.1020
   67c3c     C6  489   2.792   1.464   2.903  0.6184  0.1820 -0.0897
   67c3c     H1  490   3.061   1.557   2.907  3.0657  1.0100  2.1313
   67c3c     H2  491   3.048   1.390   2.928  0.5177  2.1723 -1.5147
   67c3c     H3  492   2.787   1.499   3.194  0.5645  1.4092 -1.5259
   67c3c     H4  493   2.841   1.347   3.133  0.0728 -0.0874 -0.7560
   67c3c     H5  494   3.113   1.604   3.133  0.7907 -0.2760  0.6276
   67c3c     H6  495   3.200   1.445   3.120  0.2528  0.2540  1.0604
   67c3c     H7  496   2.998   1.514   3.301 -1.6965 -0.4798  0.5387
   67c3c     H8  497   3.026   1.349   3.258  0.8376 -0.2714 -1.6628
   67c3c     H9  498   2.876   1.708   2.927 -0.4149  1.2798  0.4190
   67c3c    H10  499   2.757   1.688   3.036  0.2223 -0.0456 -0.9700
   67c3c    H11  500   2.914   1.707   3.105 -2.6403  1.6521  1.4510
   67c3c    H12  501   2.690   1.482   2.938 -0.1135 -0.6636 -1.6828
   67c3c    H13  502   2.805   1.528   2.815 -0.3891 -0.6920 -0.8983
   67c3c     C7  503   2.793   1.316   2.837 -0.6439  0.1105  0.0354
   67c3c    H14  504   2.775   1.237   2.910 -0.2557 -0.6428 -0.6772
   67c3c    H15  505   2.896   1.290   2.809 -0.4544  0.4102  0.4410
   67c3c     C8  506   2.690   1.304   2.725  0.8633 -1.5845 -0.2990
   67c3c    H16  507   2.596   1.353   2.749  1.1314 -1.0535 -0.3409
   67c3c    H17  508   2.665   1.204   2.688 -0.9434 -0.8362 -1.1984
   67c3c    H18  509   2.738   1.351   2.639 -0.5254  1.8704  0.7332
   68c3c      N  510   1.766   1.753   0.133 -0.1527 -0.7133 -0.1031
   68c3c     C1  511   1.851   1.707   0.018 -0.2699 -0.2435  0.2790
   68c3c     C2  512   1.739   1.624   0.200  0.4711 -0.4276 -0.0898
   68c3c     C3  513   1.931   1.599   0.067  0.9044 -0.1452 -0.2282
   68c3c     C4  514   1.874   1.552   0.199  0.5640 -0.1145  0.3606
   68c3c     C5  515   1.826   1.839   0.235 -0.1808  0.5999 -0.3340
   68c3c     C6  516   1.646   1.830   0.089  0.4879  0.3599 -0.1468
   68c3c     H1  517   1.921   1.787  -0.008 -1.2010  0.3561 -0.4257
   68c3c     H2  518   1.797   1.675  -0.071 -1.0976  1.4128  0.1533
   68c3c     H3  519   1.699   1.636   0.300  0.8766  1.6115 -0.1449
   68c3c     H4  520   1.671   1.576   0.129  0.6810 -1.1162  0.1723
   68c3c     H5  521   2.032   1.637   0.082  1.3605 -0.4756 -2.2591
   68c3c     H6  522   1.936   1.516  -0.005  0.8235  0.2795 -0.7290
   68c3c     H7  523   1.947   1.578   0.276  2.4598 -1.5649 -0.8698
   68c3c     H8  524   1.861   1.443   0.200  3.4958 -0.5340  2.9125
   68c3c     H9  525   1.828   1.944   0.207 -0.4111  0.2980 -1.5193
   68c3c    H10  526   1.770   1.843   0.328 -0.7271 -0.7033 -0.6042
   68c3c    H11  527   1.932   1.820   0.256 -0.2921  0.6195  0.2603
   68c3c    H12  528   1.575   1.848   0.169 -1.1410  1.1660 -1.7278
   68c3c    H13  529   1.682   1.929   0.058  2.0260 -0.7823 -2.1161
   68c3c     C7  530   1.552   1.766  -0.018 -0.8689  0.0278 -0.4258
   68c3c    H14  531   1.513   1.669   0.015 -1.5062  1.0104  1.8388
   68c3c    H15  532   1.607   1.756  -0.111 -0.3801 -1.5544  0.0046
   68c3c     C8  533   1.431   1.850  -0.047  0.6321 -0.1360  0.7423
   68c3c    H16  534   1.375   1.877   0.043 -0.7362  0.8062 -0.3813
   68c3c    H17  535   1.360   1.803  -0.115  0.2428 -0.0129  1.0568
   68c3c    H18  536   1.464   1.936  -0.104 -0.4221  0.7677  1.4786
   69c3c      N  537   2.558   0.542   0.784 -1.1164  0.1461  0.2220
   69c3c     C1  538   2.452   0.444   0.819 -0.5407 -0.5376 -0.3232
   69c3c     C2  539   2.671   0.446   0.743 -0.0197  0.1852  0.2977
   69c3c     C3  540   2.452   0.328   0.718 -0.3389 -0.0475 -0.7189
   69c3c     C4  541   2.598   0.333   0.653 -0.2603  0.0995 -0.0491
   69c3c     C5  542   2.514   0.622   0.667  0.8554  0.5312 -0.3846
   69c3c     C6  543   2.595   0.633   0.895 -0.9926  0.1070  0.4692
   69c3c     H1  544   2.356   0.496   0.820  0.1895  0.8944 -1.6889
   69c3c     H2  545   2.476   0.395   0.914  2.0961  0.1320 -0.6060
   69c3c     H3  546   2.767   0.485   0.708  1.2810 -2.3075  0.9759
   69c3c     H4  547   2.699   0.398   0.837 -0.6012  1.1984  0.9837
   69c3c     H5  548   2.367   0.329   0.649 -0.3405  1.3459 -0.7196
   69c3c     H6  549   2.447   0.233   0.771 -2.9726 -0.4189 -1.5483
   69c3c     H7  550   2.579   0.371   0.553  0.4848  1.5102  0.3297
   69c3c     H8  551   2.656   0.242   0.641 -1.1170 -0.0754 -3.1639
   69c3c     H9  552   2.440   0.692   0.705  0.1191 -0.6771  0.4675
   69c3c    H10  553   2.595   0.675   0.617  0.8741  0.4597 -0.4315
   69c3c    H11  554   2.463   0.559   0.594  0.4393  2.4841 -1.8053
   69c3c    H12  555   2.666   0.705   0.852 -2.6032  0.8600 -1.0065
   69c3c    H13  556   2.511   0.697   0.920  0.9958  2.7966  0.4988
   69c3c     C7  557   2.657   0.578   1.025  0.1546  0.6176 -0.5673
   69c3c    H14  558   2.749   0.519   1.012 -0.1439  0.3796 -1.7084
   69c3c    H15  559   2.591   0.502   1.068  0.2933 -0.0157 -1.4467
   69c3c     C8  560   2.680   0.691   1.127  0.0030 -0.2791 -0.6536
   69c3c    H16  561   2.592   0.750   1.154  1.1258  0.9303  0.4326
   69c3c    H17  562   2.762   0.757   1.100  0.2646  0.0293  0.8437
   69c3c    H18  563   2.705   0.651   1.225  2.9998 -0.4916 -1.4553
   70c3c      N  564   1.136   2.551   2.841 -0.2489  0.6213  0.3004
   70c3c     C1  565   1.276   2.578   2.796 -0.2955  0.1474 -0.2280
   70c3c     C2  566   1.134   2.594   2.982  0.2389 -0.9565 -0.1161
   70c3c     C3  567   1.321   2.703   2.869 -0.5322 -0.3360 -0.4715
   70c3c     C4  568   1.232   2.710   2.992  0.2091  1.0174  0.0024
   70c3c     C5  569   1.043   2.638   2.765  0.0661  0.0261  0.0431
   70c3c     C6  570   1.077   2.422   2.812 -0.4642 -0.0718 -0.5094
   70c3c     H1  571   1.290   2.571   2.688 -1.8700 -1.4600 -0.3586
   70c3c     H2  572   1.327   2.491   2.839  0.2955  0.6324  0.0560
   70c3c     H3  573   1.034   2.608   3.025 -0.5075 -0.8604 -1.8532
   70c3c     H4  574   1.175   2.516   3.047 -0.8318 -0.8825  0.6809
   70c3c     H5  575   1.307   2.790   2.805 -1.3761  1.2404  1.7882
   70c3c     H6  576   1.429   2.695   2.883 -0.5746  0.6691  0.4071
   70c3c     H7  577   1.175   2.803   2.986 -0.8020  0.4539  0.6345
   70c3c     H8  578   1.286   2.700   3.086 -1.9658  1.0275  1.2804
   70c3c     H9  579   1.053   2.602   2.662 -1.9328 -1.5485  0.3630
   70c3c    H10  580   0.939   2.631   2.798  0.6771 -0.7773  1.8385
   70c3c    H11  581   1.081   2.740   2.766  0.3118 -0.0733  0.7619
   70c3c    H12  582   0.973   2.422   2.844 -0.0398 -0.2418  0.9063
   70c3c    H13  583   1.090   2.396   2.707 -0.6468  1.9898 -1.0669
   70c3c     C7  584   1.145   2.302   2.882 -0.0820  0.0365 -0.5552
   70c3c    H14  585   1.135   2.325   2.988 -0.1541  2.0953 -0.9845
   70c3c    H15  586   1.246   2.298   2.841 -0.3975 -0.2144 -1.3148
   70c3c     C8  587   1.083   2.163   2.865  0.4870 -0.3172  0.2220
   70c3c    H16  588   1.156   2.098   2.913  0.6458  0.9599  1.7334
   70c3c    H17  589   1.061   2.117   2.768 -1.1700 -0.1332  0.4992
   70c3c    H18  590   0.998   2.152   2.932 -0.2124 -1.7345 -0.8649
   71c3c      N  591   1.450   0.013   2.330  0.0808 -0.1216 -0.0693
   71c3c     C1  592   1.398   0.044   2.199 -0.0697 -0.6266  0.7008
   71c3c     C2  593   1.584  -0.053   2.304  0.8098 -0.6301  0.2805
   71c3c     C3  594   1.524   0.088   2.120  0.2022 -0.2098  0.8397
   71c3c     C4  595   1.645   0.025   2.192 -0.2045  0.1498 -0.4376
   71c3c     C5  596   1.475   0.135   2.408  0.7964  0.1005  0.0997
   71c3c     C6  597   1.354  -0.071   2.408  0.8895 -0.0869 -0.0269
   71c3c     H1  598   1.316   0.116   2.208  0.3906  0.0173 -0.1910
   71c3c     H2  599   1.370  -0.043   2.139 -1.1360  0.8872 -1.0994
   71c3c     H3  600   1.651  -0.040   2.389  0.6170  0.4645  0.2753
   71c3c     H4  601   1.569  -0.157   2.276 -2.4441 -0.4377  1.2011
   71c3c     H5  602   1.531   0.197   2.115 -2.0557 -0.0844 -0.4632
   71c3c     H6  603   1.520   0.050   2.018  0.9852  3.0207 -0.4736
   71c3c     H7  604   1.706   0.109   2.226  0.5701 -0.8285  0.5811
   71c3c     H8  605   1.708  -0.036   2.127 -0.5131 -0.6659  0.0261
   71c3c     H9  606   1.382   0.190   2.423  1.6765  1.2681  1.4349
   71c3c    H10  607   1.508   0.104   2.508  1.3048 -0.6021 -0.2828
   71c3c    H11  608   1.549   0.207   2.373  0.2343  0.9599  0.6543
   71c3c    H12  609   1.391  -0.087   2.509  1.1286 -1.3715 -0.3120
   71c3c    H13  610   1.267  -0.005   2.414  0.8426 -0.0684 -0.8863
   71c3c     C7  611   1.298  -0.194   2.341 -0.3937  0.4607 -0.4168
   71c3c    H14  612   1.387  -0.255   2.324  0.6481  1.5924  0.8605
   71c3c    H15  613   1.247  -0.178   2.246 -1.9237 -0.4889  0.2173
   71c3c     C8  614   1.206  -0.282   2.423  0.6116  0.3707 -0.1673
   71c3c    H16  615   1.237  -0.291   2.527  2.4063  1.8422 -0.5411
   71c3c    H17  616   1.209  -0.384   2.383 -0.1251  0.3298 -0.1147
   71c3c    H18  617   1.102  -0.251   2.411  1.0359  1.0009 -2.4637
   72c3c      N  618   2.455   2.734   0.400 -0.5448  0.3820 -0.7088
   72c3c     C1  619   2.551   2.629   0.369 -0.2945  0.1664 -0.9918
   72c3c     C2  620   2.456   2.803   0.267 -0.2770 -0.0656  0.5001
   72c3c     C3  621   2.512   2.575   0.229 -0.5891  0.7517 -0.2234
   72c3c     C4  622   2.443   2.688   0.165  0.5017  0.2256  0.5518
   72c3c     C5  623   2.322   2.672   0.428 -0.5023  0.3127  0.3533
   72c3c     C6  624   2.496   2.821   0.513 -0.3119 -0.8422  0.2915
   72c3c     H1  625   2.552   2.548   0.442  0.1594  1.5513  0.5846
   72c3c     H2  626   2.654   2.667   0.373  0.5201 -2.0415 -0.4611
   72c3c     H3  627   2.387   2.884   0.247  2.3091  1.8904 -0.7257
   72c3c     H4  628   2.550   2.853   0.243 -0.8784  0.8314 -0.0210
   72c3c     H5  629   2.442   2.491   0.233  0.6778 -0.2560  1.3033
   72c3c     H6  630   2.608   2.551   0.185 -0.2789  0.9500  0.3316
   72c3c     H7  631   2.338   2.675   0.138  0.9074 -0.7026 -0.6052
   72c3c     H8  632   2.478   2.707   0.063 -2.7698 -0.2256 -0.7279
   72c3c     H9  633   2.332   2.613   0.519 -0.4563 -1.1325 -0.5611
   72c3c    H10  634   2.252   2.755   0.441 -0.9496  0.0320 -0.2125
   72c3c    H11  635   2.284   2.602   0.353 -0.3188  0.1067  0.4522
   72c3c    H12  636   2.429   2.907   0.514  0.7866  0.0228  1.7891
   72c3c    H13  637   2.491   2.770   0.609  0.3051 -1.8449 -0.2000
   72c3c     C7  638   2.639   2.884   0.515  0.0480  0.1582 -0.2283
   72c3c    H14  639   2.647   2.936   0.420 -0.0606 -1.8841 -1.3848
   72c3c    H15  640   2.711   2.803   0.530 -1.4666 -0.7311  2.7242
   72c3c     C8  641   2.672   2.982   0.634  0.0449  0.0932  0.3151
   72c3c    H16  642   2.778   3.009   0.636  0.3427 -1.1065  0.9827
   72c3c    H17  643   2.638   2.942   0.729 -0.8087 -0.8591 -0.3815
   72c3c    H18  644   2.618   3.076   0.620 -1.0815 -0.5268  0.4847
   73c3c      N  645   1.287   1.834   2.600  0.3624 -0.2124  0.5621
   73c3c     C1  646   1.409   1.768   2.654  0.3809  0.6441 -0.4915
   73c3c     C2  647   1.276   1.766   2.466  0.0312  0.1278 -0.4123
   73c3c     C3  648   1.399   1.621   2.620 -0.0228 -0.4246  0.0487
   73c3c     C4  649   1.320   1.619   2.494 -0.1358 -0.3260  0.1161
   73c3c     C5  650   1.174   1.805   2.687  0.1107  0.1627  0.2708
   73c3c     C6  651   1.291   1.977   2.601  0.6605  0.2759 -0.2811
   73c3c     H1  652   1.427   1.783   2.761 -1.5719  0.7325 -0.1615
   73c3c     H2  653   1.504   1.801   2.613  1.1977 -1.2000 -0.1583
   73c3c     H3  654   1.179   1.778   2.419 -0.0347  1.5575  0.1005
   73c3c     H4  655   1.356   1.814   2.409  0.5702 -1.7288 -1.2823
   73c3c     H5  656   1.355   1.564   2.702 -0.4779 -0.3180 -0.1189
   73c3c     H6  657   1.501   1.583   2.618  0.5683  1.0682  1.1501
   73c3c     H7  658   1.230   1.559   2.508 -1.5273  1.5631 -0.5553
   73c3c     H8  659   1.369   1.586   2.402 -0.2532  0.6829 -0.3163
   73c3c     H9  660   1.176   1.859   2.781 -1.5695  0.1041  0.3518
   73c3c    H10  661   1.079   1.809   2.633 -0.1657  2.1827  0.8557
   73c3c    H11  662   1.152   1.699   2.699 -0.6268  0.2719 -0.1068
   73c3c    H12  663   1.192   2.012   2.571  0.2996  0.1019  0.6969
   73c3c    H13  664   1.312   2.005   2.704  1.3090 -0.1632 -0.2882
   73c3c     C7  665   1.404   2.050   2.521 -0.0367  0.5108 -0.1946
   73c3c    H14  666   1.382   2.051   2.414 -0.7332 -0.5976 -0.0699
   73c3c    H15  667   1.499   2.001   2.543 -0.6873  0.7833  3.4872
   73c3c     C8  668   1.414   2.195   2.572 -0.2278  0.0569 -0.5576
   73c3c    H16  669   1.319   2.248   2.567 -0.4225 -0.2979 -0.6492
   73c3c    H17  670   1.483   2.256   2.513 -0.5579  0.7119 -0.2716
   73c3c    H18  671   1.445   2.185   2.676 -1.4555  2.0887  0.0368
   74c3c      N  672   2.913   2.874   2.891 -0.5310 -0.4634  0.2704
   74c3c     C1  673   2.999   2.756   2.885  0.0126  0.2262  0.5376
   74c3c     C2  674   3.002   2.981   2.845  0.5693  0.4234  0.0413
   74c3c     C3  675   3.080   2.776   2.753 -0.3555  0.8209  0.3381
   74c3c     C4  676   3.081   2.922   2.729  0.7828 -0.8365 -0.0107
   74c3c     C5  677   2.797   2.847   2.797 -0.4235  0.4692 -0.3884
   74c3c     C6  678   2.860   2.899   3.021 -0.5739 -0.5613 -0.2110
   74c3c     H1  679   2.938   2.666   2.885  0.1279  0.1450 -0.9310
   74c3c     H2  680   3.078   2.740   2.958  0.3470 -0.0302  0.1202
   74c3c     H3  681   2.936   3.065   2.821  0.8063  0.5015 -0.3443
   74c3c     H4  682   3.073   3.026   2.914  1.5060 -1.6656  0.4639
   74c3c     H5  683   3.046   2.704   2.678  1.7014  0.4847 -0.3051
   74c3c     H6  684   3.184   2.746   2.755 -0.8974 -1.0834  2.0729
   74c3c     H7  685   3.042   2.939   2.629 -1.5425  1.6346  1.2259
   74c3c     H8  686   3.185   2.955   2.730  0.3733  0.5323 -0.5510
   74c3c     H9  687   2.730   2.769   2.832  0.0064 -0.3697 -1.4285
   74c3c    H10  688   2.740   2.939   2.784 -0.6258  0.3212 -0.5569
   74c3c    H11  689   2.841   2.817   2.702  0.6835 -1.2390  0.6500
   74c3c    H12  690   2.793   2.985   3.025  0.6718  0.4209  0.0117
   74c3c    H13  691   2.802   2.810   3.047 -0.6128 -0.3694  0.3812
   74c3c     C7  692   2.956   2.915   3.138  0.4485  0.3849 -1.0883
   74c3c    H14  693   3.031   2.992   3.124  1.3367 -0.0718  1.0521
   74c3c    H15  694   3.009   2.822   3.162  1.0034  0.8011 -0.6920
   74c3c     C8  695   2.886   2.953   3.271 -0.3329 -0.3144 -0.6465
   74c3c    H16  696   2.831   3.047   3.266  0.6329  0.3259  0.5747
   74c3c    H17  697   2.952   2.961   3.357  1.1896  0.2471 -1.8422
   74c3c    H18  698   2.805   2.884   3.292 -0.1026 -1.0978 -2.2954
   75c3c      N  699   1.783   2.692   3.058  0.8214  0.1276 -0.5118
   75c3c     C1  700   1.736   2.747   3.183 -0.2004  0.7766  0.0666
   75c3c     C2  701   1.918   2.645   3.093  0.1933 -0.4038 -0.2368
   75c3c     C3  702   1.805   2.670   3.297 -0.4821 -0.0260 -0.0223
   75c3c     C4  703   1.919   2.585   3.231 -0.2174 -0.5961 -0.0002
   75c3c     C5  704   1.700   2.571   3.020  0.5048 -0.4451 -0.1658
   75c3c     C6  705   1.790   2.786   2.945 -0.3447  0.0653 -0.5472
   75c3c     H1  706   1.628   2.733   3.193  0.3552 -3.7808  0.6659
   75c3c     H2  707   1.744   2.856   3.183 -0.5790  0.8063 -0.1238
   75c3c     H3  708   1.967   2.578   3.021  1.6197  2.0692 -1.6283
   75c3c     H4  709   1.992   2.724   3.082 -0.9381  0.7445  0.4593
   75c3c     H5  710   1.737   2.608   3.356  0.4994  0.4784  1.6865
   75c3c     H6  711   1.842   2.745   3.368  3.4831 -0.4443 -1.5050
   75c3c     H7  712   1.881   2.483   3.239  0.3515 -0.6874  1.8193
   75c3c     H8  713   2.013   2.591   3.287 -0.3494  0.1739  0.1382
   75c3c     H9  714   1.606   2.598   2.972 -0.0047 -2.6757 -0.4764
   75c3c    H10  715   1.753   2.510   2.947  1.4623  1.1367 -0.8195
   75c3c    H11  716   1.692   2.506   3.107 -2.0848 -1.6785 -1.2664
   75c3c    H12  717   1.833   2.729   2.862  0.3085  1.0120 -0.8665
   75c3c    H13  718   1.693   2.800   2.898 -1.3063 -3.1721  0.3547
   75c3c     C7  719   1.866   2.926   2.948  0.3326  0.2142 -0.3844
   75c3c    H14  720   1.973   2.905   2.946 -0.1022 -2.1128 -0.9252
   75c3c    H15  721   1.845   2.970   3.045  1.0273 -0.1414 -0.0635
   75c3c     C8  722   1.840   3.022   2.839  0.1338  0.4230  1.1140
   75c3c    H16  723   1.732   3.023   2.822  0.3894 -1.7980 -0.7196
   75c3c    H17  724   1.891   2.994   2.747 -1.0797 -0.4856  0.7026
   75c3c    H18  725   1.883   3.117   2.871  0.0633  1.0175 -0.5338
   76c3c      N  726   2.891   2.667   1.202  0.5975  0.0282 -0.0711
   76c3c     C1  727   2.976   2.781   1.252  0.0385  0.5955  0.4382
   76c3c     C2  728   2.880   2.708   1.063 -0.2906 -0.2036 -0.2269
   76c3c     C3  729   3.087   2.800   1.147 -0.6635  0.2773  0.1995
   76c3c     C4  730   3.022   2.745   1.017  0.0420 -0.1806  0.6156
   76c3c     C5  731   2.954   2.534   1.210 -0.4397 -0.2765 -0.2420
   76c3c     C6  732   2.760   2.659   1.277 -0.0799  0.0258 -0.2328
   76c3c     H1  733   3.030   2.760   1.344  0.7440  1.1746  0.1539
   76c3c     H2  734   2.912   2.869   1.254  0.0898  0.6710 -0.9302
   76c3c     H3  735   2.846   2.622   1.004  0.5511 -0.4056 -0.4288
   76c3c     H4  736   2.806   2.785   1.044 -0.4774 -0.4692 -0.5954
   76c3c     H5  737   3.179   2.747   1.170 -1.5995 -2.2031 -1.5176
   76c3c     H6  738   3.116   2.904   1.131  1.1427 -0.3826 -1.0615
   76c3c     H7  739   3.073   2.662   0.968  0.6422  0.8045 -0.4522
   76c3c     H8  740   3.012   2.827   0.946  1.4405  1.3443  2.1539
   76c3c     H9  741   2.965   2.493   1.310 -1.1717  0.6254  0.2195
   76c3c    H10  742   2.887   2.470   1.152  1.7034 -4.1524  1.3474
   76c3c    H11  743   3.051   2.510   1.166 -1.1051 -1.5781 -1.0218
   76c3c    H12  744   2.695   2.579   1.240 -1.3006  1.8753 -2.2670
   76c3c    H13  745   2.776   2.616   1.376  2.5015 -3.0724 -1.8870
   76c3c     C7  746   2.684   2.795   1.294 -0.4536  0.1435  0.0798
   76c3c    H14  747   2.690   2.863   1.209 -0.3534  1.5424  1.1822
   76c3c    H15  748   2.729   2.863   1.366  2.3696 -1.5109 -0.0404
   76c3c     C8  749   2.537   2.772   1.339  0.1251 -0.0647  0.1867
   76c3c    H16  750   2.494   2.854   1.397 -2.3366 -1.2585  0.0752
   76c3c    H17  751   2.531   2.681   1.398  2.6425 -0.3456  0.0972
   76c3c    H18  752   2.473   2.763   1.252 -0.1477 -0.5782  0.4432
   77c3c      N  753   2.870   0.293   1.514  0.1171  0.2550  0.2030
   77c3c     C1  754   2.948   0.266   1.389 -0.8224  0.5440 -0.2292
   77c3c     C2  755   2.977   0.360   1.592 -0.6796  0.2057 -0.0608
   77c3c     C3  756   3.019   0.395   1.356 -0.7996  0.6911 -0.5274
   77c3c     C4  757   3.038   0.457   1.493  0.0056 -0.0431  0.1164
   77c3c     C5  758   2.752   0.376   1.478 -0.4583 -0.1046 -0.5841
   77c3c     C6  759   2.823   0.170   1.582 -0.0719  0.1344  0.7980
   77c3c     H1  760   2.887   0.228   1.306  1.5199 -1.0195 -1.2676
   77c3c     H2  761   3.024   0.189   1.402  0.1803  1.4582 -0.6912
   77c3c     H3  762   2.937   0.410   1.680 -0.2153  1.7030 -0.6844
   77c3c     H4  763   3.051   0.287   1.623 -0.9212  1.0928  2.7367
   77c3c     H5  764   2.961   0.450   1.282 -0.4284 -0.9263 -2.0714
   77c3c     H6  765   3.117   0.380   1.310  0.1132  3.8853  0.2662
   77c3c     H7  766   3.007   0.560   1.511 -0.4895  0.3328 -2.7505
   77c3c     H8  767   3.145   0.471   1.512 -0.2155  1.1673  0.5622
   77c3c     H9  768   2.665   0.329   1.434 -1.3562  0.7404  0.2548
   77c3c    H10  769   2.702   0.421   1.564  3.3848 -0.3317  1.9264
   77c3c    H11  770   2.772   0.453   1.403  0.5764  0.7179  0.5075
   77c3c    H12  771   2.781   0.189   1.681 -1.7202  0.0377  0.1345
   77c3c    H13  772   2.740   0.132   1.523 -0.4719  0.7153  0.9838
   77c3c     C7  773   2.923   0.053   1.620 -0.8347 -0.2731 -0.2131
   77c3c    H14  774   2.995   0.089   1.693 -0.9261 -1.8210  0.6749
   77c3c    H15  775   2.975   0.020   1.530 -0.3762 -1.1737  0.3709
   77c3c     C8  776   2.851  -0.073   1.677  0.3798  0.1024  0.2563
   77c3c    H16  777   2.807  -0.135   1.598  0.4955 -1.2097  1.2143
   77c3c    H17  778   2.776  -0.037   1.747  0.5734  2.5699 -0.7632
   77c3c    H18  779   2.925  -0.136   1.726  0.6909  0.2300 -0.0404
   78c3c      N  780   1.380   0.854   0.664 -0.0446 -0.0504 -0.3047
   78c3c     C1  781   1.267   0.760   0.638 -0.4085  0.4993 -0.0694
   78c3c     C2  782   1.315   0.989   0.678  0.4351 -1.1203  0.2899
   78c3c     C3  783   1.154   0.815   0.739  0.3050  0.3539  0.4880
   78c3c     C4  784   1.185   0.961   0.764 -0.3484 -0.0088  0.2270
   78c3c     C5  785   1.451   0.825   0.791 -0.2397  0.4699 -0.0155
   78c3c     C6  786   1.487   0.853   0.564  0.7460  0.1002  0.5480
   78c3c     H1  787   1.285   0.653   0.642  0.7526  0.7250  1.3085
   78c3c     H2  788   1.226   0.772   0.538 -2.9995 -2.5678  0.5289
   78c3c     H3  789   1.385   1.062   0.717  1.7478 -2.1093 -0.1911
   78c3c     H4  790   1.273   1.031   0.586  0.8169  0.1383  0.6852
   78c3c     H5  791   1.154   0.768   0.837  0.5009  0.0347  0.3353
   78c3c     H6  792   1.053   0.807   0.699  0.3984 -1.1841  0.5437
   78c3c     H7  793   1.195   0.983   0.870 -0.1505 -0.7989  0.3688
   78c3c     H8  794   1.101   1.019   0.725 -1.3089 -0.9165  0.9484
   78c3c     H9  795   1.507   0.733   0.800 -1.7241 -0.3269  1.3724
   78c3c    H10  796   1.518   0.906   0.820  1.4970  0.2878 -3.2937
   78c3c    H11  797   1.379   0.811   0.872 -0.2239 -2.0485 -0.3921
   78c3c    H12  798   1.564   0.928   0.583 -1.1354  2.2854 -0.1289
   78c3c    H13  799   1.527   0.752   0.570 -0.3520 -0.2723  1.8700
   78c3c     C7  800   1.447   0.880   0.414  0.2660  0.0422  0.0001
   78c3c    H14  801   1.423   0.981   0.380 -0.4961  0.2448  1.1313
   78c3c    H15  802   1.359   0.818   0.395 -0.3951  1.0419 -0.2596
   78c3c     C8  803   1.549   0.816   0.321  0.0241  0.2754  0.2732
   78c3c    H16  804   1.650   0.849   0.342  0.0918 -0.5121  1.2226
   78c3c    H17  805   1.522   0.819   0.215 -0.2282  0.4290  0.3412
   78c3c    H18  806   1.550   0.708   0.339  0.1040  0.2302  0.0055
   79c3c      N  807   1.859   1.244   1.569 -0.2945  0.2825 -0.4006
   79c3c     C1  808   1.961   1.335   1.634  0.2665 -0.4941 -0.2601
   79c3c     C2  809   1.732   1.284   1.627  0.7620  0.1079 -0.0810
   79c3c     C3  810   1.885   1.474   1.642  0.6127 -0.4494  0.1341
   79c3c     C4  811   1.730   1.433   1.653  0.3556  0.3850 -0.5367
   79c3c     C5  812   1.870   1.271   1.421  0.5271 -1.1629 -0.0579
   79c3c     C6  813   1.884   1.097   1.589  0.1886 -0.1859  0.2714
   79c3c     H1  814   2.056   1.342   1.582  1.1313 -0.2034  1.3352
   79c3c     H2  815   1.981   1.304   1.737  0.8780 -0.2469 -0.3030
   79c3c     H3  816   1.647   1.267   1.561  1.4690  1.1550 -1.2718
   79c3c     H4  817   1.696   1.242   1.721 -0.5785  0.3891 -0.4571
   79c3c     H5  818   1.907   1.532   1.552 -0.0653 -2.4773 -1.3580
   79c3c     H6  819   1.916   1.540   1.723  1.7340  0.6812 -1.1646
   79c3c     H7  820   1.677   1.487   1.573 -0.0759  0.1843 -0.3889
   79c3c     H8  821   1.680   1.469   1.743  1.8466  2.9234 -0.6719
   79c3c     H9  822   1.967   1.238   1.383  0.1394 -0.1031 -2.0023
   79c3c    H10  823   1.786   1.228   1.366  0.1349  0.0658 -0.4315
   79c3c    H11  824   1.860   1.376   1.395 -0.2011 -1.3361 -0.4932
   79c3c    H12  825   1.800   1.041   1.548  0.9075  0.3095 -1.9062
   79c3c    H13  826   1.965   1.067   1.523 -1.8260  0.7899 -2.7816
   79c3c     C7  827   1.908   1.050   1.737  0.3513 -0.6713 -0.4553
   79c3c    H14  828   1.816   1.068   1.792 -0.4976 -1.5394 -1.5404
   79c3c    H15  829   1.984   1.111   1.785  0.2881  0.3588 -1.6274
   79c3c     C8  830   1.952   0.904   1.746 -0.5638  0.4511 -0.7476
   79c3c    H16  831   1.891   0.838   1.683  0.2637  0.5119 -1.6256
   79c3c    H17  832   1.951   0.872   1.850  0.6639  1.2089 -0.4964
   79c3c    H18  833   2.059   0.902   1.728 -0.5147 -1.7504 -0.3958
   80c3c      N  834   0.051   0.308   0.746  0.5135  0.5630  0.1812
   80c3c     C1  835   0.189   0.294   0.785  0.7203 -0.0742 -0.0438
   80c3c     C2  836  -0.022   0.288   0.865 -1.1443 -0.6034  0.0049
   80c3c     C3  837   0.204   0.377   0.917  0.2099  0.0178  0.0085
   80c3c     C4  838   0.067   0.356   0.969 -0.2306 -0.1685  0.3665
   80c3c     C5  839   0.026   0.442   0.699 -0.4613 -0.5871 -0.5859
   80c3c     C6  840   0.013   0.223   0.631 -0.5332 -0.3431  0.1046
   80c3c     H1  841   0.259   0.327   0.708 -0.6355 -1.2330 -1.7865
   80c3c     H2  842   0.214   0.194   0.818  1.6653  0.4667  0.9160
   80c3c     H3  843  -0.119   0.337   0.870  0.6064  3.1987 -1.7381
   80c3c     H4  844  -0.021   0.181   0.886  0.2856 -1.0519 -2.2531
   80c3c     H5  845   0.239   0.478   0.897  0.7511 -0.1430  0.1413
   80c3c     H6  846   0.273   0.332   0.988 -0.2358 -1.2487 -0.3468
   80c3c     H7  847   0.037   0.452   1.009  0.1380  1.0833 -2.2840
   80c3c     H8  848   0.066   0.274   1.042 -2.6954 -1.8476 -1.4402
   80c3c     H9  849   0.072   0.452   0.600  4.0578 -0.1349  1.4435
   80c3c    H10  850  -0.082   0.451   0.686 -0.1859  0.3417 -2.4264
   80c3c    H11  851   0.065   0.527   0.754  0.6021 -0.5962 -1.3089
   80c3c    H12  852  -0.084   0.250   0.590 -0.1687 -0.0466 -0.5611
   80c3c    H13  853   0.083   0.239   0.548 -0.2330 -1.3107  0.1620
   80c3c     C7  854   0.014   0.070   0.658 -1.0815 -0.6344 -0.3412
   80c3c    H14  855  -0.075   0.044   0.716 -0.6118  0.7589  1.0447
   80c3c    H15  856   0.094   0.033   0.723  0.6752  2.8985 -0.3731
   80c3c     C8  857   0.004  -0.006   0.524 -0.5238 -0.0844 -0.0505
   80c3c    H16  858   0.096   0.015   0.471  0.2094  0.8284  1.5411
   80c3c    H17  859  -0.073   0.023   0.453 -0.0591 -0.9690 -0.9207
   80c3c    H18  860  -0.002  -0.114   0.541  0.2765 -0.3765 -1.5406
   81c3c      N  861   0.236   1.493   0.674  0.0935  0.6200 -0.1128
   81c3c     C1  862   0.373   1.543   0.636  0.3999  0.0664 -1.0144
   81c3c     C2  863   0.216   1.374   0.593  0.2395  0.1126  0.3491
   81c3c     C3  864   0.457   1.417   0.619  0.9415  0.0398  0.2425
   81c3c     C4  865   0.352   1.306   0.595 -0.2056  0.2171  0.0857
   81c3c     C5  866   0.233   1.457   0.820 -0.8125 -0.0170  0.1793
   81c3c     C6  867   0.128   1.597   0.661 -0.1376 -0.0266  0.3189
   81c3c     H1  868   0.411   1.579   0.731  1.3162 -2.9731 -0.1593
   81c3c     H2  869   0.379   1.612   0.552 -0.0094 -0.1517 -1.2281
   81c3c     H3  870   0.130   1.319   0.630  0.5046 -0.7375 -0.2863
   81c3c     H4  871   0.194   1.406   0.491 -0.4438 -0.0215  0.4497
   81c3c     H5  872   0.506   1.386   0.711 -1.0952 -2.2799  0.6026
   81c3c     H6  873   0.526   1.408   0.535  1.9571 -0.6472  1.1311
   81c3c     H7  874   0.362   1.238   0.680 -0.5645  0.7837  0.5835
   81c3c     H8  875   0.362   1.253   0.500 -2.0598  1.2518 -0.7149
   81c3c     H9  876   0.245   1.537   0.893 -0.7128  0.2799 -0.1635
   81c3c    H10  877   0.137   1.412   0.846 -1.1513  0.6891  0.1540
   81c3c    H11  878   0.314   1.387   0.842 -1.2969 -0.7071 -0.2146
   81c3c    H12  879   0.039   1.538   0.680  0.6377 -0.8842  1.4029
   81c3c    H13  880   0.116   1.670   0.741  0.5697 -0.3527  0.7293
   81c3c     C7  881   0.131   1.667   0.520  0.8984  0.3923 -0.5219
   81c3c    H14  882   0.138   1.591   0.441 -0.3846 -1.6661  1.3068
   81c3c    H15  883   0.216   1.732   0.498  0.3941  0.2331 -3.1327
   81c3c     C8  884   0.000   1.753   0.504 -0.2960 -0.3661  0.1824
   81c3c    H16  885  -0.019   1.797   0.406 -0.7291 -0.2962  0.2969
   81c3c    H17  886   0.002   1.839   0.571  0.7690  1.4504 -2.1065
   81c3c    H18  887  -0.090   1.700   0.532 -0.4316  1.1969  2.8562
   82c3c      N  888   2.181   0.073   2.398  0.1517  0.1669  0.3188
   82c3c     C1  889   2.161   0.220   2.380  0.5063  0.2624  0.2215
   82c3c     C2  890   2.317   0.060   2.346 -0.2817 -0.1725  0.2250
   82c3c     C3  891   2.292   0.280   2.431 -0.2472 -0.0920  0.0037
   82c3c     C4  892   2.396   0.177   2.410  0.0308 -0.7584 -0.3758
   82c3c     C5  893   2.164   0.037   2.536 -0.3115  0.0648 -0.3010
   82c3c     C6  894   2.091  -0.018   2.327  0.0311 -0.1021  0.4561
   82c3c     H1  895   2.067   0.250   2.426 -0.0392 -0.0987 -0.6584
   82c3c     H2  896   2.156   0.239   2.273  2.4528  0.3561  0.1353
   82c3c     H3  897   2.361  -0.035   2.376  0.3083 -0.7503 -2.3425
   82c3c     H4  898   2.336   0.067   2.239  2.5797  1.0178  0.7481
   82c3c     H5  899   2.280   0.303   2.537  0.2594 -0.7175  0.1945
   82c3c     H6  900   2.323   0.376   2.391 -0.3145 -0.2769 -0.4958
   82c3c     H7  901   2.447   0.129   2.493  0.0822 -0.4086 -0.2032
   82c3c     H8  902   2.480   0.220   2.357  0.7574 -2.5595 -0.7018
   82c3c     H9  903   2.064   0.035   2.578  0.0141  0.1815  0.4928
   82c3c    H10  904   2.200  -0.064   2.554 -0.9976 -0.2947 -0.9366
   82c3c    H11  905   2.222   0.103   2.602  0.6535 -0.0710 -1.0003
   82c3c    H12  906   2.118  -0.122   2.343 -0.6850 -0.1395  1.4659
   82c3c    H13  907   1.995  -0.013   2.379 -0.2850 -1.0254 -0.0104
   82c3c     C7  908   2.064   0.009   2.183  0.1316  0.7076  0.3497
   82c3c    H14  909   2.145   0.054   2.126  1.6796 -2.9149 -0.4640
   82c3c    H15  910   1.987   0.086   2.175 -0.5267 -0.1565 -2.0984
   82c3c     C8  911   1.984  -0.111   2.119  0.3860 -1.1791 -0.8234
   82c3c    H16  912   1.907  -0.145   2.189  0.1515 -1.1259 -1.0571
   82c3c    H17  913   2.047  -0.198   2.100  1.8668 -0.0970 -0.9697
   82c3c    H18  914   1.938  -0.093   2.022 -0.2844  0.2581 -0.2495
   83c3c      N  915   0.662   2.481   2.457 -0.1753  0.2821  0.4083
   83c3c     C1  916   0.655   2.382   2.341  0.1444 -0.0880  0.3586
   83c3c     C2  917   0.517   2.504   2.476 -0.5305 -0.3367  0.4073
   83c3c     C3  918   0.542   2.287   2.382 -0.2538 -0.1211 -0.0449
   83c3c     C4  919   0.458   2.363   2.480 -0.7218  0.2975 -0.1808
   83c3c     C5  920   0.720   2.424   2.576  0.0282 -0.2858  0.0233
   83c3c     C6  921   0.728   2.611   2.426  0.5710  0.2195 -0.0621
   83c3c     H1  922   0.750   2.331   2.328  0.8074  0.8755  1.3965
   83c3c     H2  923   0.636   2.427   2.243  2.4170 -0.0704 -0.0878
   83c3c     H3  924   0.493   2.553   2.571 -0.2502  0.2950  0.1564
   83c3c     H4  925   0.467   2.553   2.393 -0.1832 -2.5951 -1.1785
   83c3c     H5  926   0.588   2.204   2.435 -1.0078 -0.2414  0.4343
   83c3c     H6  927   0.481   2.256   2.297  0.8164 -1.3767 -0.3583
   83c3c     H7  928   0.454   2.312   2.577  0.6711 -1.4816 -1.0390
   83c3c     H8  929   0.354   2.359   2.447 -0.7900 -0.5151  0.1044
   83c3c     H9  930   0.826   2.406   2.554 -0.4513 -1.5862 -1.3048
   83c3c    H10  931   0.722   2.491   2.662 -0.2767  0.0080 -0.1974
   83c3c    H11  932   0.681   2.327   2.606 -0.0559 -0.0761  0.5878
   83c3c    H12  933   0.706   2.683   2.505 -0.0793 -1.3157  1.1670
   83c3c    H13  934   0.836   2.599   2.425  0.3544 -2.1226  1.9116
   83c3c     C7  935   0.689   2.689   2.300  0.9317  0.5977 -0.1281
   83c3c    H14  936   0.585   2.721   2.313  1.4394  1.8637  1.0504
   83c3c    H15  937   0.701   2.631   2.209 -0.5515 -0.2441  0.2001
   83c3c     C8  938   0.763   2.817   2.296  0.4721  0.7502  0.1925
   83c3c    H16  939   0.733   2.872   2.385 -0.8185  0.3545  0.0119
   83c3c    H17  940   0.753   2.871   2.201  0.1993  0.3523 -0.0102
   83c3c    H18  941   0.871   2.803   2.292 -0.0582 -4.0474  0.1652
   84c3c      N  942   2.189   0.516   1.418 -0.1119 -0.1434  0.3818
   84c3c     C1  943   2.067   0.470   1.482 -0.4290 -0.2905 -0.0928
   84c3c     C2  944   2.176   0.663   1.394  0.0691  0.7838 -0.1303
   84c3c     C3  945   1.997   0.597   1.532 -0.2023  0.2484  0.0459
   84c3c     C4  946   2.087   0.712   1.508 -0.3664 -0.2199 -0.1013
   84c3c     C5  947   2.310   0.512   1.507 -0.2235 -0.5479  0.0473
   84c3c     C6  948   2.236   0.443   1.292  0.5083  0.5875  0.0946
   84c3c     H1  949   2.077   0.400   1.566 -1.3804 -0.1379  0.1545
   84c3c     H2  950   1.993   0.428   1.414  1.3989 -1.1016 -1.6007
   84c3c     H3  951   2.268   0.719   1.373  0.2070  0.7630  0.4080
   84c3c     H4  952   2.114   0.684   1.307  0.0413  0.7651 -0.1152
   84c3c     H5  953   1.966   0.591   1.636 -0.1005 -0.9693  0.0107
   84c3c     H6  954   1.901   0.600   1.481 -0.8977 -0.2640  1.3205
   84c3c     H7  955   2.146   0.728   1.599 -1.1185 -1.0748  0.5523
   84c3c     H8  956   2.035   0.804   1.482  0.9221  1.0332  1.5922
   84c3c     H9  957   2.312   0.407   1.537  0.9930 -0.2304  1.1129
   84c3c    H10  958   2.400   0.533   1.449 -1.2165 -0.4538 -1.4717
   84c3c    H11  959   2.290   0.572   1.596  1.1924 -1.2182  0.8358
   84c3c    H12  960   2.333   0.482   1.262  0.6231  1.2844  1.3385
   84c3c    H13  961   2.257   0.338   1.311 -0.6933  0.5045  1.0039
   84c3c     C7  962   2.137   0.457   1.172 -0.5061  0.8766 -0.3033
   84c3c    H14  963   2.117   0.560   1.142  0.1093  1.0265 -0.2037
   84c3c    H15  964   2.039   0.421   1.203  1.3185 -3.4126  0.9044
   84c3c     C8  965   2.177   0.385   1.041  0.3896 -0.2056 -0.1825
   84c3c    H16  966   2.266   0.441   1.013 -0.4305  0.3951 -1.6663
   84c3c    H17  967   2.095   0.375   0.970 -0.8289 -0.4467  1.2170
   84c3c    H18  968   2.208   0.284   1.066 -0.3005 -0.4594 -0.3405
   85c3c      N  969   0.804   1.903   2.068  0.4849 -0.5463  0.1176
   85c3c     C1  970   0.825   2.034   2.016 -0.0942 -0.7660  0.0891
   85c3c     C2  971   0.654   1.892   2.080 -0.6935 -0.2833  0.8324
   85c3c     C3  972   0.724   2.045   1.898 -0.3673 -0.3178 -0.2323
   85c3c     C4  973   0.609   1.954   1.942 -0.0710  0.2775 -0.9626
   85c3c     C5  974   0.863   1.801   1.981 -0.5933 -0.2817 -0.3227
   85c3c     C6  975   0.875   1.886   2.201 -0.3443 -0.4155 -0.1601
   85c3c     H1  976   0.927   2.049   1.980 -0.1998 -1.2254 -0.4063
   85c3c     H2  977   0.814   2.112   2.091 -0.1099 -0.1591 -0.5365
   85c3c     H3  978   0.617   1.792   2.102 -1.2692  0.1621  1.9334
   85c3c     H4  979   0.616   1.957   2.159  0.0354  0.0227  0.9332
   85c3c     H5  980   0.767   2.010   1.804  2.1005 -0.1282  0.7892
   85c3c     H6  981   0.688   2.148   1.896  1.7211  0.4811  1.4437
   85c3c     H7  982   0.590   1.866   1.881 -3.1149  1.0129 -1.1424
   85c3c     H8  983   0.512   2.000   1.959  1.2256  1.8596  2.7702
   85c3c     H9  984   0.972   1.808   1.978 -0.6186  0.6569  0.5887
   85c3c    H10  985   0.836   1.707   2.029  2.4358 -0.1474  1.7877
   85c3c    H11  986   0.826   1.793   1.879 -1.2639 -1.3848  0.0096
   85c3c    H12  987   0.870   1.781   2.231 -0.3638 -0.5670 -0.6836
   85c3c    H13  988   0.979   1.914   2.190 -0.2856 -0.0964  1.0953
   85c3c     C7  989   0.825   1.976   2.319  0.2117 -0.0570  0.3733
   85c3c    H14  990   0.720   1.966   2.343  0.2863 -2.8953 -0.3170
   85c3c    H15  991   0.836   2.083   2.300 -1.4480 -0.4017 -2.9463
   85c3c     C8  992   0.890   1.940   2.452 -0.4036  0.0895  0.1671
   85c3c    H16  993   0.999   1.949   2.449 -0.6181  2.8319 -0.8874
   85c3c    H17  994   0.855   1.839   2.471  1.7797 -0.5667  0.8483
   85c3c    H18  995   0.846   2.006   2.527 -1.7043  0.9608 -1.3404
   86c3c      N  996   2.078   2.928   1.003 -0.5748  0.1177 -0.1936
   86c3c     C1  997   1.936   2.955   1.013 -0.3903 -0.0223  0.2691
   86c3c     C2  998   2.090   2.835   0.894 -1.1401 -0.3304 -0.1621
   86c3c     C3  999   1.885   2.957   0.867  0.2447 -0.1904  0.3636
   86c3c     C4 1000   1.986   2.879   0.787 -0.5441  0.4869 -0.3019
   86c3c     C5 1001   2.152   3.042   0.963  0.2848 -0.2443  0.5761
   86c3c     C6 1002   2.144   2.889   1.129 -0.4126 -0.4613 -0.5855
   86c3c     H1 1003   1.917   3.048   1.067 -0.7906 -1.2623  2.3068
   86c3c     H2 1004   1.876   2.879   1.063  0.2029 -0.4009  0.4130
   86c3c     H3 1005   2.181   2.827   0.835 -3.1685 -1.5696 -3.2638
   86c3c     H4 1006   2.055   2.738   0.929  3.2974 -1.7982  0.5109
   86c3c     H5 1007   1.880   3.060   0.832  1.6061 -0.5242 -0.8718
   86c3c     H6 1008   1.789   2.906   0.861  1.4931 -2.6547  0.9419
   86c3c     H7 1009   2.020   2.939   0.702 -0.5285 -0.7789 -1.2161
   86c3c     H8 1010   1.934   2.793   0.744 -1.0957  1.1298 -0.9526
   86c3c     H9 1011   2.151   3.129   1.029 -2.3759 -0.3597  0.7567
   86c3c    H10 1012   2.253   3.013   0.934  0.1374 -1.4160  1.2267
   86c3c    H11 1013   2.117   3.083   0.868  1.0073 -0.1824  0.3386
   86c3c    H12 1014   2.251   2.881   1.113 -0.3213 -3.1626  1.0581
   86c3c    H13 1015   2.120   2.970   1.199 -1.8461  0.3664 -2.0058
   86c3c     C7 1016   2.102   2.750   1.182  0.4785  0.4653 -0.5091
   86c3c    H14 1017   2.114   2.667   1.112  0.3218 -0.8491  0.9954
   86c3c    H15 1018   1.998   2.732   1.206  0.4459  1.4366  0.0737
   86c3c     C8 1019   2.176   2.712   1.317  0.6659 -0.1002  0.3672
   86c3c    H16 1020   2.277   2.674   1.300  0.1848 -1.0417 -0.3504
   86c3c    H17 1021   2.117   2.640   1.374 -1.5391  1.2799 -0.1281
   86c3c    H18 1022   2.185   2.791   1.393 -0.6032  1.3081 -0.9202
   87c3c      N 1023   0.401   1.027   1.186 -0.1978  0.1639  0.5758
   87c3c     C1 1024   0.362   0.974   1.318 -0.1290 -0.4214 -0.8712
   87c3c     C2 1025   0.310   0.956   1.094  0.0441  0.1396  0.5591
   87c3c     C3 1026   0.210   0.945   1.317 -0.1736  0.0721  0.1307
   87c3c     C4 1027   0.174   0.928   1.168 -0.3625 -0.6665  0.3697
   87c3c     C5 1028   0.368   1.169   1.189  0.2277  0.0972 -0.0351
   87c3c     C6 1029   0.539   1.017   1.154  0.5415  0.6793  0.2177
   87c3c     H1 1030   0.385   1.045   1.397 -1.2956  1.5404 -2.2652
   87c3c     H2 1031   0.408   0.878   1.344 -0.5395 -0.9239 -2.0046
   87c3c     H3 1032   0.296   1.010   1.001  1.5433 -0.9138 -0.2906
   87c3c     H4 1033   0.357   0.863   1.064  1.5568  0.6049  1.4426
   87c3c     H5 1034   0.154   1.033   1.349 -2.1495 -0.4636 -1.7397
   87c3c     H6 1035   0.179   0.857   1.373  1.6312 -0.4564  0.3364
   87c3c     H7 1036   0.098   0.995   1.129 -0.9930 -0.6977  1.5067
   87c3c     H8 1037   0.149   0.822   1.165 -0.8139 -0.5134 -2.1632
   87c3c     H9 1038   0.423   1.224   1.265  0.1600 -0.0636  0.1283
   87c3c    H10 1039   0.375   1.220   1.093 -0.4397  1.0631  0.4109
   87c3c    H11 1040   0.263   1.177   1.217  0.1489  0.5137 -0.4421
   87c3c    H12 1041   0.561   1.051   1.053  1.9714 -3.7353 -1.1046
   87c3c    H13 1042   0.594   1.095   1.207 -0.8252  0.7216  1.5814
   87c3c     C7 1043   0.605   0.887   1.190 -0.6899  0.1268 -0.1370
   87c3c    H14 1044   0.551   0.802   1.149 -1.5701  1.5620 -1.9772
   87c3c    H15 1045   0.606   0.880   1.299  0.0601  1.2566 -0.0651
   87c3c     C8 1046   0.757   0.870   1.147 -0.0484 -0.0372 -0.4579
   87c3c    H16 1047   0.813   0.795   1.203  0.4662  0.6821  0.0015
   87c3c    H17 1048   0.802   0.968   1.167  1.7286 -0.5801 -1.6630
   87c3c    H18 1049   0.772   0.850   1.041  2.3002 -1.7315  0.1748
   88c3c      N 1050   1.939   2.068   1.159  0.6760 -0.4003 -0.1794
   88c3c     C1 1051   1.915   1.930   1.194  0.1056  0.3993 -0.1730
   88c3c     C2 1052   2.083   2.068   1.134  0.2557 -0.1384 -0.2294
   88c3c     C3 1053   2.003   1.839   1.104  0.0469 -0.3646  0.1276
   88c3c     C4 1054   2.107   1.941   1.053 -0.0272  0.7095  0.3450
   88c3c     C5 1055   1.864   2.105   1.036 -0.0948  0.5745  0.3600
   88c3c     C6 1056   1.900   2.167   1.268 -0.0171 -0.1649  0.1657
   88c3c     H1 1057   1.810   1.909   1.176  0.2267 -0.4011  0.0567
   88c3c     H2 1058   1.940   1.917   1.299 -1.1385 -1.3928 -0.0775
   88c3c     H3 1059   2.116   2.163   1.091 -2.8109  0.2164 -1.9754
   88c3c     H4 1060   2.145   2.064   1.223 -0.0163 -0.0449 -0.0360
   88c3c     H5 1061   1.948   1.800   1.019  0.7288  0.8553 -0.8974
   88c3c     H6 1062   2.060   1.760   1.153  0.1529 -0.3015  0.1087
   88c3c     H7 1063   2.106   1.954   0.945 -0.3366 -2.5850 -0.1062
   88c3c     H8 1064   2.210   1.904   1.061 -0.2238  0.2754  0.9152
   88c3c     H9 1065   1.757   2.092   1.051 -0.3159  1.0205 -0.8018
   88c3c    H10 1066   1.891   2.208   1.011  0.1660  1.1488  2.7854
   88c3c    H11 1067   1.906   2.041   0.959  0.1765  0.0950  0.9048
   88c3c    H12 1068   1.890   2.272   1.238  0.2684  0.7234  3.0172
   88c3c    H13 1069   1.799   2.143   1.299 -0.5217  3.0536  1.2506
   88c3c     C7 1070   1.979   2.178   1.402 -0.4151  0.5905 -0.4733
   88c3c    H14 1071   2.082   2.205   1.376  0.1787 -1.1384  0.0300
   88c3c    H15 1072   1.972   2.083   1.454 -3.0355  0.7952 -0.3823
   88c3c     C8 1073   1.912   2.278   1.499 -0.2012 -1.1369 -0.3361
   88c3c    H16 1074   1.858   2.357   1.447 -1.4955 -1.5556  0.3502
   88c3c    H17 1075   1.970   2.330   1.576 -2.5605 -1.0199  1.4332
   88c3c    H18 1076   1.831   2.227   1.552 -2.4154  0.2515 -2.2616
   89c3c      N 1077   2.366   2.338   1.826 -0.2266  0.6798 -0.5180
   89c3c     C1 1078   2.253   2.304   1.736 -1.0078  0.5814  0.3597
   89c3c     C2 1079   2.478   2.277   1.753 -0.3579  0.2844 -0.2053
   89c3c     C3 1080   2.281   2.154   1.697 -0.1001 -0.6508  0.7119
   89c3c     C4 1081   2.433   2.143   1.705  0.0582 -0.1346  0.1400
   89c3c     C5 1082   2.391   2.483   1.830  0.3638 -0.7272 -0.1788
   89c3c     C6 1083   2.354   2.286   1.966  0.0984 -0.7174  0.5084
   89c3c     H1 1084   2.258   2.362   1.644  0.8970 -1.2787 -0.7529
   89c3c     H2 1085   2.156   2.324   1.781 -0.4665  0.7293  1.4806
   89c3c     H3 1086   2.492   2.339   1.665  1.1582  1.6279  0.9556
   89c3c     H4 1087   2.576   2.270   1.801 -0.8240  0.1857  0.7435
   89c3c     H5 1088   2.258   2.124   1.595  3.2352  1.0454 -0.6080
   89c3c     H6 1089   2.235   2.075   1.756 -0.4136  0.8701  2.5542
   89c3c     H7 1090   2.492   2.141   1.614 -0.3984 -1.6038 -0.1379
   89c3c     H8 1091   2.459   2.065   1.777 -1.1152 -2.3581 -1.7716
   89c3c     H9 1092   2.318   2.531   1.894  0.2880  0.8482 -1.4305
   89c3c    H10 1093   2.492   2.508   1.861  0.1474 -0.6744  0.4927
   89c3c    H11 1094   2.377   2.526   1.731  2.6458  0.3531 -0.0645
   89c3c    H12 1095   2.257   2.316   2.005  0.4588  0.2697  0.6721
   89c3c    H13 1096   2.339   2.178   1.963 -2.8747 -0.3305  0.5916
   89c3c     C7 1097   2.466   2.321   2.070 -0.1284  0.0223  0.3445
   89c3c    H14 1098   2.474   2.430   2.071 -1.0471  0.0920  1.5687
   89c3c    H15 1099   2.550   2.268   2.025  0.7109  0.6483  1.1623
   89c3c     C8 1100   2.414   2.277   2.204 -0.0894 -0.0569  0.6446
   89c3c    H16 1101   2.490   2.242   2.274  0.7630  0.3714 -0.0445
   89c3c    H17 1102   2.348   2.190   2.197 -0.0477 -0.0540  0.2171
   89c3c    H18 1103   2.357   2.357   2.251 -0.1970 -0.9717  2.0904
   90c3c      N 1104   1.615   2.788   1.646  0.2350 -0.6139  0.1447
   90c3c     C1 1105   1.595   2.859   1.519  0.1996  0.8062 -0.4469
   90c3c     C2 1106   1.651   2.653   1.604 -0.5386 -0.0885 -0.3664
   90c3c     C3 1107   1.714   2.812   1.443  0.8698  0.1889 -0.1750
   90c3c     C4 1108   1.757   2.677   1.497  0.6866  0.7630  0.3551
   90c3c     C5 1109   1.727   2.841   1.728  0.4466 -0.2657  0.1538
   90c3c     C6 1110   1.487   2.798   1.721  0.2621 -0.2310 -1.1607
   90c3c     H1 1111   1.588   2.967   1.533 -1.3653  0.3899  2.3170
   90c3c     H2 1112   1.510   2.820   1.464  0.2280 -1.1829  0.8772
   90c3c     H3 1113   1.688   2.597   1.690 -0.4516 -3.1205 -2.3012
   90c3c     H4 1114   1.561   2.611   1.560 -1.3925 -0.4832  1.7077
   90c3c     H5 1115   1.791   2.888   1.457  1.4959 -0.2562 -1.1259
   90c3c     H6 1116   1.698   2.798   1.336 -1.5606 -0.3335  0.2291
   90c3c     H7 1117   1.859   2.658   1.531  0.8645  1.7803  0.4081
   90c3c     H8 1118   1.754   2.590   1.432  0.9854  0.2746  0.9957
   90c3c     H9 1119   1.711   2.946   1.754  1.6775  0.4422 -1.7610
   90c3c    H10 1120   1.729   2.788   1.823 -0.5778  0.7131  0.7403
   90c3c    H11 1121   1.828   2.834   1.688  0.1826  0.1758 -0.6171
   90c3c    H12 1122   1.492   2.722   1.800 -0.1577  2.2757  1.3423
   90c3c    H13 1123   1.468   2.888   1.779  2.1060 -0.5137 -0.0883
   90c3c     C7 1124   1.351   2.770   1.652 -0.0099 -1.3800  0.6048
   90c3c    H14 1125   1.369   2.692   1.579 -0.6918  1.0414 -2.2497
   90c3c    H15 1126   1.322   2.851   1.585  2.7441 -0.9247 -0.1099
   90c3c     C8 1127   1.244   2.742   1.754 -0.0706  0.3778  0.4181
   90c3c    H16 1128   1.211   2.839   1.792  0.6893  0.0822  1.8796
   90c3c    H17 1129   1.273   2.678   1.837  0.6513 -0.2126 -0.2810
   90c3c    H18 1130   1.159   2.704   1.697  1.8637 -0.8077 -1.7623
   91c3c      N 1131   2.090   1.154   0.360  0.3182 -0.2429 -0.3973
   91c3c     C1 1132   1.974   1.113   0.440  0.5860 -1.2700  0.1524
   91c3c     C2 1133   2.186   1.045   0.356 -0.2347 -0.2324 -0.6572
   91c3c     C3 1134   1.967   0.966   0.406 -0.4494  0.9720 -0.2254
   91c3c     C4 1135   2.098   0.928   0.340 -0.3061  0.5181  0.4026
   91c3c     C5 1136   2.043   1.187   0.230 -0.2290  0.4397 -0.0759
   91c3c     C6 1137   2.153   1.281   0.415 -0.0181  0.5723  0.7540
   91c3c     H1 1138   1.876   1.156   0.418 -0.0793 -2.9046 -0.2208
   91c3c     H2 1139   2.008   1.106   0.543  0.6714  0.5471  0.2578
   91c3c     H3 1140   2.259   1.051   0.276 -0.7338 -1.8861 -1.2576
   91c3c     H4 1141   2.243   1.033   0.449  0.1329 -1.1965 -1.0008
   91c3c     H5 1142   1.891   0.933   0.335  1.0477 -1.4211 -0.7714
   91c3c     H6 1143   1.942   0.912   0.498  2.4517 -0.1618 -0.0346
   91c3c     H7 1144   2.077   0.906   0.235  0.3557  1.0044  0.1562
   91c3c     H8 1145   2.138   0.833   0.374  2.1450  1.7850  1.1710
   91c3c     H9 1146   1.958   1.255   0.234 -0.6941 -0.2047  0.9347
   91c3c    H10 1147   2.122   1.218   0.161 -2.5452 -1.7358 -3.9291
   91c3c    H11 1148   1.996   1.100   0.183 -2.1885  0.7617  1.2535
   91c3c    H12 1149   2.225   1.317   0.342 -1.5428 -1.4066 -1.8245
   91c3c    H13 1150   2.077   1.358   0.407 -0.4334 -0.0338 -1.8131
   91c3c     C7 1151   2.228   1.272   0.551  0.8563  0.3903  0.0787
   91c3c    H14 1152   2.318   1.212   0.547  1.1266  0.8421 -0.8681
   91c3c    H15 1153   2.162   1.231   0.627  2.5570 -0.6309  1.0417
   91c3c     C8 1154   2.277   1.409   0.608  0.2364  0.2582  0.6703
   91c3c    H16 1155   2.339   1.459   0.534  0.0435  0.7256  0.8218
   91c3c    H17 1156   2.346   1.403   0.692  0.9873 -2.3987 -0.0699
   91c3c    H18 1157   2.198   1.480   0.631  1.7941  1.6732  1.7655
   92c3c      N 1158   0.235   0.567   2.150 -0.3651 -0.4782 -0.0915
   92c3c     C1 1159   0.282   0.472   2.254 -0.0264 -0.3795  0.1111
   92c3c     C2 1160   0.182   0.686   2.224  0.2373  0.1041  0.0628
   92c3c     C3 1161   0.327   0.568   2.372  0.2132 -0.6092 -0.1818
   92c3c     C4 1162   0.272   0.707   2.347  0.0808  0.8750  0.1617
   92c3c     C5 1163   0.345   0.633   2.071  0.7014  0.5668 -0.2408
   92c3c     C6 1164   0.138   0.502   2.052 -0.3539  0.7763 -0.0107
   92c3c     H1 1165   0.349   0.394   2.218 -0.7502  0.0498 -2.2215
   92c3c     H2 1166   0.197   0.417   2.295 -1.1264  0.8787 -0.4543
   92c3c     H3 1167   0.176   0.776   2.163  0.2583 -0.0813 -0.2122
   92c3c     H4 1168   0.081   0.678   2.263  0.8835 -2.6661  1.2673
   92c3c     H5 1169   0.435   0.577   2.375  0.3287 -1.8084 -0.4213
   92c3c     H6 1170   0.302   0.533   2.472  0.6099 -0.6284 -0.0887
   92c3c     H7 1171   0.363   0.766   2.339  0.8189 -0.3443 -0.7284
   92c3c     H8 1172   0.215   0.743   2.433 -1.8844  1.2348 -1.2649
   92c3c     H9 1173   0.399   0.551   2.023 -2.3720 -1.3750 -0.5611
   92c3c    H10 1174   0.317   0.698   1.989  0.1118 -2.8747 -2.9117
   92c3c    H11 1175   0.424   0.684   2.126 -0.0097  0.1716  1.1769
   92c3c    H12 1176   0.120   0.570   1.969 -1.9786 -0.6152 -0.8322
   92c3c    H13 1177   0.189   0.424   1.995 -1.6599  0.0335 -0.1763
   92c3c     C7 1178  -0.001   0.458   2.109 -0.2244 -0.5248 -0.0925
   92c3c    H14 1179  -0.060   0.537   2.156 -0.7791 -0.1243 -1.4489
   92c3c    H15 1180   0.016   0.390   2.193  0.8042 -0.5906 -0.3526
   92c3c     C8 1181  -0.087   0.389   2.005 -0.2037 -0.1982  0.2078
   92c3c    H16 1182  -0.044   0.291   1.988  0.3212  0.0826 -0.0860
   92c3c    H17 1183  -0.106   0.451   1.917 -1.2423  2.2725  2.1035
   92c3c    H18 1184  -0.192   0.384   2.035 -0.2858  2.0002  0.3952
   93c3c      N 1185   1.821   0.368   0.227  0.9665 -0.2646  0.1807
   93c3c     C1 1186   1.956   0.309   0.236 -0.0885 -0.4961  0.2854
   93c3c     C2 1187   1.831   0.489   0.308 -0.2351  0.4582  0.0979
   93c3c     C3 1188   2.052   0.434   0.237  0.1406 -0.2487  0.5222
   93c3c     C4 1189   1.966   0.551   0.272  0.1283  0.5491  0.4537
   93c3c     C5 1190   1.785   0.403   0.088 -0.2362  0.2522  0.1209
   93c3c     C6 1191   1.706   0.286   0.269  1.0002  0.5157 -0.3073
   93c3c     H1 1192   1.974   0.245   0.149 -0.8161  1.1983 -1.1318
   93c3c     H2 1193   1.987   0.247   0.320 -0.5290 -1.1934 -0.0576
   93c3c     H3 1194   1.741   0.549   0.294 -0.1473  0.7179  0.6486
   93c3c     H4 1195   1.834   0.465   0.414  0.2144 -0.3799 -0.1006
   93c3c     H5 1196   2.104   0.446   0.142 -2.7994  0.3571 -1.0973
   93c3c     H6 1197   2.129   0.418   0.312  1.0360  0.3502 -0.2651
   93c3c     H7 1198   1.939   0.608   0.183 -0.3451  0.4850  0.5568
   93c3c     H8 1199   2.004   0.614   0.352 -0.6129 -0.3753  1.5474
   93c3c     H9 1200   1.798   0.310   0.034 -0.4480 -0.0725  0.6309
   93c3c    H10 1201   1.689   0.451   0.066 -0.4950 -0.3295 -0.0268
   93c3c    H11 1202   1.856   0.459   0.027 -1.6027 -1.6942 -3.3900
   93c3c    H12 1203   1.615   0.345   0.278 -0.0080 -1.2179  1.4225
   93c3c    H13 1204   1.681   0.206   0.200 -2.4355 -1.7784  3.3652
   93c3c     C7 1205   1.713   0.219   0.408 -0.2795  0.3777 -0.4768
   93c3c    H14 1206   1.757   0.282   0.485 -1.7331 -0.2916  0.9275
   93c3c    H15 1207   1.783   0.137   0.390 -2.0041 -1.2955  0.3058
   93c3c     C8 1208   1.580   0.159   0.457  0.1990 -0.2697 -0.6818
   93c3c    H16 1209   1.542   0.071   0.405 -0.0772  0.0848 -1.0883
   93c3c    H17 1210   1.498   0.231   0.462 -0.1528 -0.5501 -2.0903
   93c3c    H18 1211   1.603   0.126   0.558  2.1297  1.6929 -0.4391
   94c3c      N 1212   2.952   2.327   2.214 -0.7645  0.1752 -0.8286
   94c3c     C1 1213   2.868   2.278   2.095 -0.1348 -0.6996 -0.4063
   94c3c     C2 1214   3.000   2.199   2.266 -0.4020  0.1541 -1.1572
   94c3c     C3 1215   2.957   2.165   2.036 -0.1477 -0.0140 -0.0161
   94c3c     C4 1216   3.039   2.113   2.147 -0.1329 -1.0827 -0.5261
   94c3c     C5 1217   3.068   2.402   2.162  0.0638  0.2827 -0.0832
   94c3c     C6 1218   2.876   2.417   2.307  0.1454 -0.6041 -0.1904
   94c3c     H1 1219   2.856   2.366   2.031  0.4301 -1.4753 -1.6027
   94c3c     H2 1220   2.771   2.241   2.130 -0.6690  0.7742 -0.2693
   94c3c     H3 1221   3.080   2.207   2.339  0.2679 -2.7759 -1.4816
   94c3c     H4 1222   2.916   2.146   2.310  0.2708  0.2841  0.2968
   94c3c     H5 1223   3.017   2.211   1.958  0.1670  2.0441  1.4115
   94c3c     H6 1224   2.886   2.090   1.998 -0.8107  0.1623  0.8453
   94c3c     H7 1225   3.147   2.129   2.137  0.2825 -3.3902 -0.0400
   94c3c     H8 1226   3.014   2.007   2.148 -1.1402 -0.8466  0.4073
   94c3c     H9 1227   3.030   2.480   2.095  2.5476  2.2512  0.7219
   94c3c    H10 1228   3.133   2.443   2.239 -0.6216  2.0510 -0.4075
   94c3c    H11 1229   3.130   2.347   2.091  1.2636  1.7036 -0.1671
   94c3c    H12 1230   2.953   2.452   2.375  0.0243  1.8608 -1.2869
   94c3c    H13 1231   2.848   2.511   2.260 -3.4905 -2.1644 -1.3400
   94c3c     C7 1232   2.754   2.366   2.385 -0.2706 -0.1892  0.2238
   94c3c    H14 1233   2.785   2.303   2.468  1.0398 -0.1266 -0.2081
   94c3c    H15 1234   2.693   2.299   2.323 -2.4694  3.1638 -1.4170
   94c3c     C8 1235   2.672   2.491   2.443 -0.7665 -0.1066 -0.2814
   94c3c    H16 1236   2.732   2.563   2.498  1.5873 -1.6249 -0.8298
   94c3c    H17 1237   2.602   2.447   2.514 -2.2868 -0.4510 -1.9300
   94c3c    H18 1238   2.616   2.532   2.359  0.4983 -0.4638 -1.3071
   95c3c      N 1239   0.588   2.200   1.313  0.2401  0.0411  0.0888
   95c3c     C1 1240   0.606   2.338   1.266  0.3374 -0.2518  0.0834
   95c3c     C2 1241   0.472   2.154   1.245  0.5419  0.4393 -0.4805
   95c3c     C3 1242   0.569   2.332   1.115 -0.7449  0.1234  0.0573
   95c3c     C4 1243   0.487   2.210   1.100 -0.0625  0.7377  0.8081
   95c3c     C5 1244   0.702   2.126   1.268  0.0566  0.1309 -0.9929
   95c3c     C6 1245   0.590   2.182   1.461  0.2787  0.6226 -0.5664
   95c3c     H1 1246   0.703   2.382   1.288  0.6074 -1.2819  0.9874
   95c3c     H2 1247   0.536   2.393   1.330  0.3947  1.2031 -1.0664
   95c3c     H3 1248   0.461   2.046   1.252  1.2973  0.3558 -0.4955
   95c3c     H4 1249   0.382   2.198   1.288  1.5590  2.9721 -0.9015
   95c3c     H5 1250   0.655   2.314   1.052 -1.3596 -2.7593 -0.0276
   95c3c     H6 1251   0.515   2.425   1.094  0.7353  0.7421 -1.0478
   95c3c     H7 1252   0.532   2.129   1.043 -1.0826  1.7280 -1.4873
   95c3c     H8 1253   0.394   2.220   1.043  0.6562  1.7692 -0.2164
   95c3c     H9 1254   0.794   2.148   1.322  1.2979 -3.7552 -1.3492
   95c3c    H10 1255   0.692   2.020   1.291 -1.0434  0.4993  0.2620
   95c3c    H11 1256   0.726   2.123   1.161 -0.0505  2.3237 -1.1064
   95c3c    H12 1257   0.582   2.076   1.485 -0.2504  0.9895  0.9464
   95c3c    H13 1258   0.684   2.214   1.508  0.5550 -2.4749  1.1414
   95c3c     C7 1259   0.482   2.241   1.550  0.3930 -0.2981 -0.0188
   95c3c    H14 1260   0.380   2.216   1.520  0.1688  1.4877 -0.8556
   95c3c    H15 1261   0.488   2.350   1.549 -0.0849 -0.2190  2.4131
   95c3c     C8 1262   0.494   2.203   1.701 -0.0075  0.0600  0.5138
   95c3c    H16 1263   0.404   2.228   1.757  0.2791  0.0153  0.9963
   95c3c    H17 1264   0.576   2.256   1.750  1.3023 -0.8131 -0.7015
   95c3c    H18 1265   0.504   2.094   1.702  1.9026  0.2198  0.6523
   96c3c      N 1266   1.670   0.744   2.301  0.0808 -0.2348  0.3456
   96c3c     C1 1267   1.623   0.847   2.209 -0.3433 -0.2103 -0.3346
   96c3c     C2 1268   1.790   0.691   2.237  0.2121  0.3171  0.3706
   96c3c     C3 1269   1.751   0.921   2.159 -0.0751 -0.0007 -0.0541
   96c3c     C4 1270   1.861   0.812   2.184  0.4530 -0.0909 -0.0877
   96c3c     C5 1271   1.682   0.813   2.426 -0.9352 -0.3262 -0.3571
   96c3c     C6 1272   1.578   0.630   2.323  0.1404 -0.5556  0.2125
   96c3c     H1 1273   1.553   0.911   2.261 -0.9204 -0.4883 -0.7615
   96c3c     H2 1274   1.573   0.805   2.121 -0.7170 -0.6977  0.1067
   96c3c     H3 1275   1.843   0.630   2.310  0.4290  0.6791  0.5192
   96c3c     H4 1276   1.771   0.618   2.158 -2.7050  0.5213  0.8428
   96c3c     H5 1277   1.771   1.015   2.210 -1.7075 -0.7568  2.0765
   96c3c     H6 1278   1.747   0.949   2.054  2.4683  1.0458  0.0871
   96c3c     H7 1279   1.927   0.849   2.262 -0.2130  1.6948 -0.3321
   96c3c     H8 1280   1.917   0.794   2.093  0.8904 -0.3966  0.2417
   96c3c     H9 1281   1.590   0.846   2.475 -0.5219 -0.6576  0.6742
   96c3c    H10 1282   1.717   0.745   2.504 -1.2703 -0.9481 -0.7463
   96c3c    H11 1283   1.750   0.898   2.424 -1.5863  0.1708 -2.2616
   96c3c    H12 1284   1.634   0.565   2.391 -0.0462 -0.6265  0.2979
   96c3c    H13 1285   1.488   0.669   2.368 -0.8295 -1.0865 -1.2173
   96c3c     C7 1286   1.533   0.540   2.203  0.6654 -0.2076  0.4198
   96c3c    H14 1287   1.618   0.481   2.168 -0.5361 -1.1222 -1.0105
   96c3c    H15 1288   1.505   0.593   2.113 -3.6891 -1.7350  0.7500
   96c3c     C8 1289   1.398   0.472   2.243 -0.5215 -0.1040  0.1152
   96c3c    H16 1290   1.397   0.427   2.343  1.3792 -3.9080 -1.4826
   96c3c    H17 1291   1.364   0.405   2.164 -3.6232 -0.5052  1.7091
   96c3c    H18 1292   1.319   0.546   2.252 -0.7561 -0.3967  0.4719
   97c3c      N 1293   1.302   1.634   1.834 -0.3581 -0.2821  0.7342
   97c3c     C1 1294   1.168   1.568   1.844 -0.3832 -0.4586 -0.1301
   97c3c     C2 1295   1.364   1.566   1.724  0.0755  0.2019  0.7945
   97c3c     C3 1296   1.131   1.539   1.703  0.2303  0.2114 -0.4696
   97c3c     C4 1297   1.255   1.548   1.617  0.2267 -1.0085 -0.1379
   97c3c     C5 1298   1.297   1.782   1.805 -0.1154 -0.5412 -0.4834
   97c3c     C6 1299   1.389   1.629   1.956 -0.1865 -0.0171  0.5497
   97c3c     H1 1300   1.100   1.637   1.894 -0.8329  0.7569 -2.3528
   97c3c     H2 1301   1.167   1.480   1.909  1.1371 -0.1796  0.3076
   97c3c     H3 1302   1.449   1.614   1.676 -1.6029  0.9061 -1.5821
   97c3c     H4 1303   1.395   1.466   1.754 -0.8682 -0.7224 -1.2093
   97c3c     H5 1304   1.054   1.603   1.661  0.4399  0.8670  0.1333
   97c3c     H6 1305   1.084   1.441   1.695  0.0393  0.3537 -1.1395
   97c3c     H7 1306   1.248   1.639   1.556  0.0493 -1.3204 -0.5873
   97c3c     H8 1307   1.274   1.478   1.536 -0.5007  0.8312 -1.9651
   97c3c     H9 1308   1.240   1.831   1.884 -0.1884 -0.8966 -0.3162
   97c3c    H10 1309   1.391   1.837   1.801 -0.9339  0.8698 -0.6336
   97c3c    H11 1310   1.255   1.811   1.709 -0.1842  0.9065 -0.0216
   97c3c    H12 1311   1.488   1.669   1.933 -1.8430  3.4837 -0.6719
   97c3c    H13 1312   1.354   1.692   2.037  1.4461  0.6096  0.7974
   97c3c     C7 1313   1.422   1.494   2.026 -0.5587  0.1283  0.2940
   97c3c    H14 1314   1.460   1.424   1.952 -0.9701 -1.3788  1.4897
   97c3c    H15 1315   1.331   1.444   2.059  0.3187 -3.0554 -1.8235
   97c3c     C8 1316   1.518   1.518   2.140 -0.4213  0.3897 -0.0074
   97c3c    H16 1317   1.469   1.567   2.224 -2.1166 -0.1506 -0.6568
   97c3c    H17 1318   1.603   1.584   2.127 -1.9058  2.9437  2.6553
   97c3c    H18 1319   1.547   1.419   2.176 -1.4686 -0.1168 -0.5337
   98c3c      N 1320   2.049   1.246   2.679  0.0513 -0.2591  0.1123
   98c3c     C1 1321   2.123   1.340   2.769 -0.5700 -0.2134 -0.2605
   98c3c     C2 1322   1.997   1.137   2.765 -0.2467 -0.4181 -0.1528
   98c3c     C3 1323   2.039   1.343   2.896  0.4560  0.1611 -0.6027
   98c3c     C4 1324   1.964   1.208   2.899 -0.2758 -0.4897  0.0509
   98c3c     C5 1325   1.930   1.311   2.621  0.6432 -0.9489 -0.1856
   98c3c     C6 1326   2.134   1.209   2.559  0.4409 -0.2804  0.3736
   98c3c     H1 1327   2.144   1.435   2.718  1.2263 -0.5978 -0.2826
   98c3c     H2 1328   2.225   1.311   2.794 -0.5389  0.3327  0.2441
   98c3c     H3 1329   1.923   1.071   2.719 -1.2569  1.3144 -1.0543
   98c3c     H4 1330   2.081   1.077   2.801  0.8445  1.1346 -0.0746
   98c3c     H5 1331   1.967   1.425   2.890 -0.6994 -0.9005 -1.5146
   98c3c     H6 1332   2.104   1.363   2.981  0.6325  0.0271 -0.7080
   98c3c     H7 1333   1.858   1.223   2.917 -0.1724  0.0947  0.1734
   98c3c     H8 1334   1.996   1.149   2.985 -0.5803 -1.2791 -0.3691
   98c3c     H9 1335   1.944   1.395   2.552 -1.9704  0.1949  0.6239
   98c3c    H10 1336   1.871   1.238   2.566 -0.0966  0.5436 -1.4192
   98c3c    H11 1337   1.868   1.343   2.705  1.3795 -1.4102  0.5320
   98c3c    H12 1338   2.090   1.140   2.486  2.1652 -1.2832  0.2650
   98c3c    H13 1339   2.152   1.302   2.505 -0.2766 -0.3197  0.0538
   98c3c     C7 1340   2.265   1.131   2.591 -0.4812  0.0593  0.0744
   98c3c    H14 1341   2.246   1.027   2.615 -1.4729 -0.1455 -1.5711
   98c3c    H15 1342   2.316   1.160   2.683  0.6860  1.6003 -1.0293
   98c3c     C8 1343   2.371   1.142   2.483 -0.0441  0.3708  0.5176
   98c3c    H16 1344   2.416   1.242   2.479  1.0031 -0.1000  0.2308
   98c3c    H17 1345   2.335   1.119   2.383  1.4350 -0.0489  0.0717
   98c3c    H18 1346   2.460   1.084   2.507  0.3883  1.0733  0.6447
   99c3c      N 1347   2.434   0.799   2.094 -0.6299  0.8660 -0.4691
   99c3c     C1 1348   2.293   0.790   2.131  0.6172 -0.5131 -0.2478
   99c3c     C2 1349   2.435   0.848   1.953  0.0477 -0.7159 -0.2356
   99c3c     C3 1350   2.223   0.912   2.076 -0.5982 -0.3833 -0.2242
   99c3c     C4 1351   2.307   0.936   1.948 -0.1477 -0.5412 -0.9400
   99c3c     C5 1352   2.497   0.906   2.175 -0.4577  0.3310  0.2605
   99c3c     C6 1353   2.512   0.678   2.111 -0.2409 -0.0512  0.0443
   99c3c     H1 1354   2.290   0.786   2.240  1.2930 -1.0145 -0.2408
   99c3c     H2 1355   2.255   0.697   2.089 -1.4268 -0.9729  2.5312
   99c3c     H3 1356   2.525   0.901   1.919  0.8388 -1.8874  0.0279
   99c3c     H4 1357   2.417   0.763   1.887  1.8950 -0.0832 -1.6421
   99c3c     H5 1358   2.211   0.991   2.150  1.8710  0.5699 -0.8038
   99c3c     H6 1359   2.126   0.874   2.043 -0.1217 -2.6650  0.9362
   99c3c     H7 1360   2.354   1.034   1.947  0.4945 -0.8393 -2.6560
   99c3c     H8 1361   2.246   0.931   1.857 -1.6543 -0.2231  0.0483
   99c3c     H9 1362   2.489   0.878   2.280  1.1759 -0.7805  0.1071
   99c3c    H10 1363   2.606   0.910   2.173 -0.4991  2.2694  0.6773
   99c3c    H11 1364   2.457   1.005   2.152  1.4027  1.4603  1.6897
   99c3c    H12 1365   2.613   0.707   2.080  0.1418 -1.1656  0.2178
   99c3c    H13 1366   2.518   0.645   2.215  1.9624 -1.8261 -0.5966
   99c3c     C7 1367   2.454   0.546   2.048 -0.0727 -0.2262 -0.9765
   99c3c    H14 1368   2.427   0.561   1.943 -1.4268 -2.3109 -0.9654
   99c3c    H15 1369   2.364   0.505   2.095 -0.1549 -3.0679 -3.4102
   99c3c     C8 1370   2.561   0.435   2.033  0.1856  0.6297  0.7530
   99c3c    H16 1371   2.623   0.434   1.944 -0.0151  0.5376  0.6129
   99c3c    H17 1372   2.506   0.341   2.028 -0.6861  1.2031 -0.8186
   99c3c    H18 1373   2.628   0.428   2.119 -1.1382 -0.1229  1.7508
  100c3c      N 1374   2.210   2.279   2.704  0.2205  1.1707  0.0145
  100c3c     C1 1375   2.301   2.187   2.773 -0.1776 -0.2014 -0.1419
  100c3c     C2 1376   2.213   2.398   2.792 -0.0028 -0.1187  0.5618
  100c3c     C3 1377   2.417   2.275   2.832  0.4565 -0.0860 -0.0086
  100c3c     C4 1378   2.361   2.416   2.814  0.6124  0.1303  0.1069
  100c3c     C5 1379   2.258   2.312   2.572 -0.7558  0.6615  0.2650
  100c3c     C6 1380   2.070   2.217   2.694  0.9986  0.2611 -0.1573
  100c3c     H1 1381   2.351   2.114   2.709  2.0164  3.6047 -2.9845
  100c3c     H2 1382   2.256   2.141   2.862 -0.3598 -0.2946 -0.2834
  100c3c     H3 1383   2.170   2.479   2.734 -1.2344 -0.9647  0.2685
  100c3c     H4 1384   2.155   2.386   2.883  1.0272 -1.7388  1.0310
  100c3c     H5 1385   2.507   2.263   2.770  0.6918  0.0606  0.3055
  100c3c     H6 1386   2.431   2.258   2.938 -1.0367  0.0511  0.2192
  100c3c     H7 1387   2.410   2.464   2.729  1.7066  1.0038  1.2275
  100c3c     H8 1388   2.381   2.476   2.903 -1.3187 -0.3845  0.9161
  100c3c     H9 1389   2.243   2.228   2.505 -1.5941  0.5685  0.5653
  100c3c    H10 1390   2.208   2.400   2.530 -0.6112  1.5282  1.8679
  100c3c    H11 1391   2.365   2.333   2.566 -0.5230 -1.0536 -2.0467
  100c3c    H12 1392   2.066   2.133   2.624 -2.6048 -0.1417  0.4553
  100c3c    H13 1393   2.043   2.190   2.796 -1.0535  0.7405 -0.5657
  100c3c     C7 1394   1.962   2.310   2.646  0.1482 -0.4101  0.4769
  100c3c    H14 1395   1.980   2.327   2.540 -0.5868  2.4523  0.7694
  100c3c    H15 1396   1.956   2.408   2.693  1.2229 -0.1008 -0.0079
  100c3c     C8 1397   1.826   2.227   2.637 -0.2396  0.2572  0.2187
  100c3c    H16 1398   1.825   2.142   2.569 -0.4285  0.2617  0.2162
  100c3c    H17 1399   1.760   2.297   2.585 -2.6510 -1.3459  1.0551
  100c3c    H18 1400   1.784   2.196   2.732  0.9180 -0.9782  0.3348
  101fsi     F1 1401   0.929   2.802   1.994  0.0430 -0.3592 -0.1815
  101fsi     S1 1402   0.835   2.827   1.863  0.0563  0.1375 -0.2605
  101fsi      N 1403   0.709   2.903   1.914  0.0909  0.2089 -0.4975
  101fsi     O1 1404   0.929   2.891   1.772  0.3470  0.1715  0.3921
  101fsi     O2 1405   0.800   2.693   1.828  0.2053 -0.3102 -0.1860
  101fsi     S2 1406   0.659   3.051   1.878 -0.4295 -0.6614  0.1230
  101fsi     O3 1407   0.763   3.141   1.842 -0.4556 -0.0617  0.0323
  101fsi     O4 1408   0.557   3.098   1.963 -0.4156 -0.3836  0.4055
  101fsi     F2 1409   0.574   3.034   1.745 -0.2365 -0.0218 -0.0421
  102fsi     F1 1410   0.086   1.480   1.354  0.1163  0.3632  0.0632
  102fsi     S1 1411   0.034   1.395   1.226  0.0794 -0.2300 -0.0764
  102fsi      N 1412  -0.112   1.452   1.195  0.3027 -0.4967  0.4480
  102fsi     O1 1413   0.129   1.422   1.120 -0.2272  0.6606 -0.4022
  102fsi     O2 1414   0.024   1.260   1.283 -0.4924 -0.0022  0.1114
  102fsi     S2 1415  -0.166   1.564   1.095  0.3355  0.3218  0.0147
  102fsi     O3 1416  -0.069   1.667   1.071 -0.3419 -0.5064  0.2934
  102fsi     O4 1417  -0.302   1.606   1.114 -0.9542  0.2534  0.3285
  102fsi     F2 1418  -0.179   1.483   0.965  0.0747 -0.4646 -0.0166
  103fsi     F1 1419   1.074   1.192   0.529 -0.2097  0.1095  0.2847
  103fsi     S1 1420   1.099   1.189   0.379  0.0125  0.4172  0.4482
  103fsi      N 1421   1.113   1.027   0.365 -0.3163 -0.2906  0.0998
  103fsi     O1 1422   0.979   1.245   0.329  1.3185 -0.1309  0.1788
  103fsi     O2 1423   1.221   1.258   0.360 -0.0069  0.0996 -0.3013
  103fsi     S2 1424   1.006   0.931   0.305  0.3386 -0.2451  0.2658
  103fsi     O3 1425   1.062   0.803   0.264 -0.3046 -0.5209 -0.7981
  103fsi     O4 1426   0.913   0.999   0.212 -0.3922  0.7174  0.0822
  103fsi     F2 1427   0.917   0.903   0.428  0.1345 -0.4126 -0.7200
  104fsi     F1 1428   1.023   1.195   0.927  0.2852 -0.2338  0.0030
  104fsi     S1 1429   0.874   1.238   0.934  0.1477 -0.0826  0.0695
  104fsi      N 1430   0.794   1.101   0.912  0.0839  0.2712  0.2942
  104fsi     O1 1431   0.858   1.285   1.064 -0.0296  0.1026  0.2637
  104fsi     O2 1432   0.859   1.326   0.819  0.1589  0.0658  0.0480
  104fsi     S2 1433   0.728   1.047   0.779 -0.3204 -0.4397 -0.3338
  104fsi     O3 1434   0.596   1.096   0.767 -0.0128  0.5936  0.0327
  104fsi     O4 1435   0.743   0.907   0.776  0.2685  0.3140  0.2115
  104fsi     F2 1436   0.806   1.094   0.659 -0.2102 -0.0917  0.2453
  105fsi     F1 1437   1.203   2.293   2.314  0.5902  0.0657  0.2566
  105fsi     S1 1438   1.061   2.320   2.369  0.2134 -0.1554 -0.1063
  105fsi      N 1439   0.976   2.332   2.240  0.1427  0.6323  0.0729
  105fsi     O1 1440   1.025   2.203   2.452  0.2879  0.1178 -0.0737
  105fsi     O2 1441   1.081   2.437   2.448 -0.3894  0.1048  0.1787
  105fsi     S2 1442   0.971   2.446   2.134 -0.2155 -0.2450  0.1055
  105fsi     O3 1443   1.013   2.572   2.185 -0.2590  0.8452  0.4628
  105fsi     O4 1444   0.842   2.448   2.065 -0.0058  0.7710 -0.0330
  105fsi     F2 1445   1.077   2.411   2.018 -0.6190 -0.3337  0.1019
  106fsi     F1 1446   2.306   2.833   2.066 -0.1522 -0.5529 -0.0732
  106fsi     S1 1447   2.390   2.744   2.168  0.1011 -0.2918  0.4362
  106fsi      N 1448   2.504   2.694   2.077  0.5184  0.3185 -0.2896
  106fsi     O1 1449   2.437   2.836   2.270 -0.1617  0.0188  0.9771
  106fsi     O2 1450   2.310   2.631   2.207 -0.4255 -0.3105  0.0527
  106fsi     S2 1451   2.647   2.755   2.050 -0.1924  0.0074  0.4604
  106fsi     O3 1452   2.717   2.670   1.959 -0.3734 -0.1643  0.1910
  106fsi     O4 1453   2.721   2.803   2.163  0.0587 -0.0699  0.9351
  106fsi     F2 1454   2.614   2.886   1.971  0.2127  0.3148 -0.4303
  107fsi     F1 1455   0.211   1.948   2.798  0.3631  0.3851  0.2311
  107fsi     S1 1456   0.253   1.897   2.942 -0.1159  0.0880 -0.1376
  107fsi      N 1457   0.186   1.994   3.044 -0.5542  0.5142 -0.4841
  107fsi     O1 1458   0.198   1.767   2.947  0.3191  0.2654  0.1295
  107fsi     O2 1459   0.392   1.910   2.943 -0.2967  0.4412 -0.1766
  107fsi     S2 1460   0.045   1.975   3.120  0.1462 -0.1639  0.0789
  107fsi     O3 1461  -0.063   1.935   3.036  0.2176 -0.2983 -0.1202
  107fsi     O4 1462   0.017   2.096   3.192 -0.1155 -0.2942 -0.2869
  107fsi     F2 1463   0.055   1.855   3.226 -0.0321  0.1411  0.2679
  108fsi     F1 1464   1.233   1.006   0.038 -0.6050  0.1319  0.1591
  108fsi     S1 1465   1.179   1.099  -0.078 -0.1368 -0.5960  0.3015
  108fsi      N 1466   1.217   1.242  -0.032  0.4391 -0.3213 -0.2238
  108fsi     O1 1467   1.262   1.058  -0.187  0.5359  0.6568 -0.3358
  108fsi     O2 1468   1.041   1.064  -0.078 -0.1692  0.3517 -0.2922
  108fsi     S2 1469   1.127   1.366   0.006  0.1393 -0.0368 -0.1167
  108fsi     O3 1470   1.199   1.443   0.107  0.2300 -0.0751  0.0905
  108fsi     O4 1471   0.987   1.342   0.029  0.6443  0.0413 -0.0358
  108fsi     F2 1472   1.136   1.455  -0.120  0.4817  0.1911  0.2709
  109fsi     F1 1473   2.133   1.356   0.881  0.7202  0.3236 -0.2141
  109fsi     S1 1474   2.090   1.478   0.976  0.3863 -0.3208 -0.0990
  109fsi      N 1475   2.209   1.577   0.949  0.2568  0.3706 -0.5955
  109fsi     O1 1476   1.963   1.529   0.928  0.0814 -0.9583  0.0043
  109fsi     O2 1477   2.088   1.413   1.103 -0.2756 -0.0050 -0.7584
  109fsi     S2 1478   2.343   1.570   1.028 -0.1780  0.4310 -0.3155
  109fsi     O3 1479   2.450   1.617   0.951 -0.1107 -0.2808 -0.2732
  109fsi     O4 1480   2.371   1.445   1.090 -0.3891 -0.2349 -0.5584
  109fsi     F2 1481   2.343   1.684   1.144  0.1080 -0.0210 -0.3512
  110fsi     F1 1482   2.054   0.088   0.589  0.1884  0.2676  0.0179
  110fsi     S1 1483   2.173   0.054   0.489 -0.3630 -0.2061 -0.3553
  110fsi      N 1484   2.121  -0.073   0.406 -0.1738 -0.3816 -0.1506
  110fsi     O1 1485   2.193   0.181   0.418  0.6643 -0.0661 -0.3551
  110fsi     O2 1486   2.282   0.010   0.567 -0.3572 -0.3585 -0.5678
  110fsi     S2 1487   2.093  -0.099   0.252 -0.4189  0.4056  0.3441
  110fsi     O3 1488   2.121  -0.234   0.214 -0.3018 -0.1069 -0.0616
  110fsi     O4 1489   2.137   0.009   0.169  0.7037 -0.5147 -0.3905
  110fsi     F2 1490   1.931  -0.084   0.236  0.4471 -0.4425  0.0045
  111fsi     F1 1491   0.899   1.739   1.261  0.4563 -0.1533 -0.8777
  111fsi     S1 1492   0.958   1.643   1.367 -0.2975  0.0130 -0.0581
  111fsi      N 1493   0.828   1.580   1.425  0.2384 -0.8904 -0.1479
  111fsi     O1 1494   1.032   1.552   1.288 -0.4670 -0.0080  0.4056
  111fsi     O2 1495   1.029   1.741   1.446 -0.0954 -0.1213  0.2896
  111fsi     S2 1496   0.725   1.658   1.513  0.1173  0.5813 -0.3343
  111fsi     O3 1497   0.600   1.588   1.530 -0.2137  0.1697 -0.2224
  111fsi     O4 1498   0.712   1.795   1.489 -0.3719 -0.0891 -0.3023
  111fsi     F2 1499   0.794   1.659   1.661 -0.3614  0.3219 -0.5389
  112fsi     F1 1500   2.834   0.002   2.164 -0.3142 -0.4303 -0.1843
  112fsi     S1 1501   2.983  -0.045   2.161  0.5475  0.0970  0.6566
  112fsi      N 1502   2.986  -0.122   2.294 -0.1313 -0.0591 -0.6670
  112fsi     O1 1503   2.987  -0.125   2.045 -0.2794 -0.1484  0.1855
  112fsi     O2 1504   3.045   0.084   2.166 -0.2204 -0.3303 -0.7308
  112fsi     S2 1505   2.999  -0.270   2.325  0.2677  0.1915 -0.1691
  112fsi     O3 1506   3.021  -0.364   2.223  0.0840 -0.8914  0.2134
  112fsi     O4 1507   2.899  -0.316   2.416  0.1753  0.3871 -0.1979
  112fsi     F2 1508   3.130  -0.277   2.413  0.0226  0.6310  0.3282
  113fsi     F1 1509   0.229   0.338   0.364  0.2642  0.7628  0.4661
  113fsi     S1 1510   0.352   0.374   0.282 -0.1188 -0.1293  0.3598
  113fsi      N 1511   0.473   0.299   0.355  0.3372  0.1441  0.2617
  113fsi     O1 1512   0.326   0.334   0.148 -0.0455  0.1693 -0.6744
  113fsi     O2 1513   0.354   0.515   0.307  0.0324  0.2678 -0.4550
  113fsi     S2 1514   0.574   0.192   0.300 -0.0576 -0.2481 -0.0006
  113fsi     O3 1515   0.530   0.128   0.181 -0.0300 -0.1602  1.0010
  113fsi     O4 1516   0.623   0.104   0.399  0.0658  1.5796  0.0532
  113fsi     F2 1517   0.700   0.283   0.260 -0.0968  0.4758 -0.2271
  114fsi     F1 1518   2.105   0.632   2.436 -0.3248  0.1507 -0.1715
  114fsi     S1 1519   2.080   0.723   2.560  0.3353  0.2587  0.2840
  114fsi      N 1520   2.205   0.703   2.659 -0.2157  0.2097 -0.4074
  114fsi     O1 1521   2.062   0.854   2.504 -0.1247 -0.1345 -0.3235
  114fsi     O2 1522   1.959   0.672   2.620  0.2555 -0.1605 -0.6681
  114fsi     S2 1523   2.358   0.732   2.636 -0.0866 -0.0351 -0.1542
  114fsi     O3 1524   2.387   0.774   2.501 -0.0995 -0.2385 -0.8002
  114fsi     O4 1525   2.442   0.633   2.694 -0.5935 -0.1607  0.2193
  114fsi     F2 1526   2.375   0.857   2.727  0.1391 -0.5488 -0.2244
  115fsi     F1 1527   0.928   1.945   2.973  0.4069 -0.1476 -0.6768
  115fsi     S1 1528   0.804   1.911   2.883 -0.1839  0.4593  0.4818
  115fsi      N 1529   0.771   2.055   2.832  0.2441  0.1672  0.0852
  115fsi     O1 1530   0.857   1.833   2.773  0.7806 -0.0916 -0.4727
  115fsi     O2 1531   0.705   1.855   2.966 -0.3789 -0.4210  0.6922
  115fsi     S2 1532   0.699   2.171   2.911  0.1221 -0.1068  0.4492
  115fsi     O3 1533   0.759   2.298   2.899  0.0898  0.1222 -0.3832
  115fsi     O4 1534   0.656   2.130   3.042 -0.5000 -0.2276 -0.4760
  115fsi     F2 1535   0.557   2.184   2.836 -0.8151  0.1198 -0.0566
  116fsi     F1 1536   1.907   0.192   1.460 -0.3275  0.1031  0.0846
  116fsi     S1 1537   2.002   0.100   1.373 -0.2632 -0.0029 -0.0689
  116fsi      N 1538   2.141   0.127   1.434 -0.0517 -0.7298  0.6041
  116fsi     O1 1539   1.946  -0.030   1.383  0.0485  0.3734 -0.1561
  116fsi     O2 1540   1.999   0.152   1.242 -0.1473 -0.1859  0.3150
  116fsi     S2 1541   2.215   0.055   1.558  0.2458 -0.2228 -0.1942
  116fsi     O3 1542   2.131  -0.038   1.628  0.7086  0.0601 -0.0679
  116fsi     O4 1543   2.299   0.142   1.634  0.3910 -0.4263  0.0780
  116fsi     F2 1544   2.313  -0.036   1.482  0.1336 -0.4800  0.2529
  117fsi     F1 1545   0.989   1.945   1.730 -0.4908  0.6836 -0.3711
  117fsi     S1 1546   1.036   2.065   1.640 -0.0649  0.5012  0.5655
  117fsi      N 1547   1.010   2.192   1.722  0.0507 -0.8092  0.1686
  117fsi     O1 1548   1.177   2.033   1.629 -0.2020  0.0152 -0.1285
  117fsi     O2 1549   0.952   2.040   1.524 -0.0380  0.5676  0.9340
  117fsi     S2 1550   0.931   2.318   1.665  0.0177  0.5709  0.4659
  117fsi     O3 1551   0.818   2.351   1.748  0.1480 -0.7187 -0.0538
  117fsi     O4 1552   0.914   2.325   1.527 -0.1247  0.1558  0.1472
  117fsi     F2 1553   1.025   2.436   1.695 -0.6872  0.7965  0.1430
  118fsi     F1 1554   1.459   1.118   1.726  0.2998 -0.1235 -0.1402
  118fsi     S1 1555   1.441   0.969   1.677  0.3894  0.5178  0.3598
  118fsi      N 1556   1.571   0.902   1.745  0.6232 -0.1929 -0.4066
  118fsi     O1 1557   1.311   0.923   1.721  0.7130  0.0769 -0.1291
  118fsi     O2 1558   1.462   0.977   1.535 -0.0902 -0.5574  0.2855
  118fsi     S2 1559   1.577   0.755   1.796  0.0210 -0.0923 -0.0376
  118fsi     O3 1560   1.451   0.691   1.817 -0.0143 -0.6739 -0.0836
  118fsi     O4 1561   1.678   0.733   1.896  0.6836  0.2716  0.8695
  118fsi     F2 1562   1.629   0.679   1.672 -0.2760 -1.0644  0.1721
  119fsi     F1 1563   2.674   1.555   1.432 -0.7683  0.4344  0.1306
  119fsi     S1 1564   2.781   1.503   1.524 -0.1699 -0.4266  0.0827
  119fsi      N 1565   2.721   1.546   1.664  0.1440  0.1569  0.4417
  119fsi     O1 1566   2.778   1.364   1.496 -0.1566  0.2717 -0.0614
  119fsi     O2 1567   2.900   1.582   1.494  0.1995 -0.0909  0.5627
  119fsi     S2 1568   2.651   1.453   1.773  0.1202  0.0056 -0.3480
  119fsi     O3 1569   2.572   1.349   1.717  0.0601 -0.2226 -0.0339
  119fsi     O4 1570   2.584   1.523   1.875  0.0832 -0.2502  0.7918
  119fsi     F2 1571   2.770   1.383   1.852  0.2843 -0.4911  0.1265
  120fsi     F1 1572   1.735   0.211   2.731  0.5082  0.0408  0.2987
  120fsi     S1 1573   1.840   0.256   2.626 -0.3906  0.1463  0.2811
  120fsi      N 1574   1.973   0.252   2.708 -0.1819 -0.0073  0.2185
  120fsi     O1 1575   1.831   0.160   2.519 -0.1923  0.4864 -0.8722
  120fsi     O2 1576   1.813   0.394   2.596  0.6040  0.2283  0.3381
  120fsi     S2 1577   2.016   0.346   2.825  0.5524  0.2513 -0.3526
  120fsi     O3 1578   2.085   0.272   2.926  0.1453  0.0323 -0.2147
  120fsi     O4 1579   1.904   0.423   2.875  0.0093 -0.1262 -0.0420
  120fsi     F2 1580   2.120   0.436   2.766  0.2845 -0.0882  0.2760
  121fsi     F1 1581   2.935   0.843   2.684 -0.0707 -0.2298  0.4004
  121fsi     S1 1582   2.835   0.845   2.803 -0.0244 -0.0758 -0.0249
  121fsi      N 1583   2.830   0.694   2.857 -0.3820  0.1350  0.0544
  121fsi     O1 1584   2.891   0.944   2.894  0.3827  0.4260 -0.5577
  121fsi     O2 1585   2.712   0.885   2.740  0.0732  0.1625 -0.0319
  121fsi     S2 1586   2.926   0.620   2.957 -0.3113 -0.2608  0.3410
  121fsi     O3 1587   3.061   0.651   2.922 -0.3163 -0.3366  0.0948
  121fsi     O4 1588   2.895   0.486   2.981 -0.4803  0.4317 -0.2549
  121fsi     F2 1589   2.904   0.690   3.093 -0.2902  0.4535 -0.5622
  122fsi     F1 1590   0.348   1.832   0.733 -0.9270 -0.2723 -0.0125
  122fsi     S1 1591   0.352   1.969   0.819  0.5234 -0.2812  0.1347
  122fsi      N 1592   0.203   2.027   0.781  0.3270 -0.3881  0.3650
  122fsi     O1 1593   0.352   1.913   0.953 -0.3767  0.1178 -0.0502
  122fsi     O2 1594   0.470   2.036   0.770  0.3845 -0.4310 -0.2255
  122fsi     S2 1595   0.172   2.130   0.667 -0.2421 -0.4581  0.2637
  122fsi     O3 1596   0.270   2.229   0.642 -0.8579  0.1727  0.1712
  122fsi     O4 1597   0.039   2.182   0.677 -0.8315 -0.5371  0.7776
  122fsi     F2 1598   0.173   2.042   0.544  0.0883 -0.8472 -0.1810
  123fsi     F1 1599   1.053   0.518   0.383  0.2547 -0.1314 -0.0359
  123fsi     S1 1600   1.173   0.416   0.402 -0.1992 -0.0629 -0.0654
  123fsi      N 1601   1.153   0.326   0.275  0.4038  0.1699  0.9806
  123fsi     O1 1602   1.297   0.495   0.396  0.8277 -0.1451  0.6138
  123fsi     O2 1603   1.148   0.348   0.527 -0.6790  0.3424 -0.1275
  123fsi     S2 1604   1.115   0.176   0.262 -0.2523 -0.7181 -0.3774
  123fsi     O3 1605   1.196   0.097   0.348 -0.3983  0.0562  0.4759
  123fsi     O4 1606   1.105   0.136   0.123  0.0061  0.0634 -0.5855
  123fsi     F2 1607   0.967   0.162   0.309 -0.2248  0.2555  0.5187
  124fsi     F1 1608   0.512   2.346   0.155  0.4002  0.0863 -0.3035
  124fsi     S1 1609   0.400   2.280   0.255  0.0307 -0.2846  0.3423
  124fsi      N 1610   0.437   2.125   0.258  0.2148  0.2973 -0.4416
  124fsi     O1 1611   0.435   2.351   0.376  0.1987 -0.2063  0.1103
  124fsi     O2 1612   0.283   2.314   0.182  0.1238 -0.3961 -0.1460
  124fsi     S2 1613   0.541   2.050   0.349 -0.1384 -0.1420  0.2215
  124fsi     O3 1614   0.577   2.102   0.475 -0.3934  0.0403  0.2858
  124fsi     O4 1615   0.649   2.003   0.262 -0.1627  0.6553 -0.6191
  124fsi     F2 1616   0.471   1.910   0.383 -0.2695 -0.2459  0.0050
  125fsi     F1 1617   1.402   1.356   0.904 -0.6075  0.1683  0.0590
  125fsi     S1 1618   1.492   1.437   0.999  0.2050 -0.1296 -0.0174
  125fsi      N 1619   1.518   1.326   1.107  0.0044  0.7817  0.3526
  125fsi     O1 1620   1.610   1.465   0.927  0.7405  0.0606  0.2268
  125fsi     O2 1621   1.396   1.544   1.038  0.5362  0.2566  0.4503
  125fsi     S2 1622   1.456   1.309   1.252  0.1742  0.2329 -0.0672
  125fsi     O3 1623   1.429   1.176   1.299  0.8569  0.5361  0.2483
  125fsi     O4 1624   1.364   1.410   1.298 -0.3205 -0.3837  0.4929
  125fsi     F2 1625   1.581   1.339   1.348 -0.0994 -0.3942 -0.0060
  126fsi     F1 1626   2.839   2.126   1.238 -0.1003  0.1653 -0.5142
  126fsi     S1 1627   2.970   2.130   1.143  0.3519 -0.2915  0.0491
  126fsi      N 1628   3.087   2.180   1.228  0.3314 -0.6598  0.0753
  126fsi     O1 1629   2.983   1.991   1.104  0.4987 -0.2839  0.0995
  126fsi     O2 1630   2.940   2.217   1.031 -0.4272  0.6153 -0.0326
  126fsi     S2 1631   3.164   2.102   1.336  0.1438  0.2225 -0.3204
  126fsi     O3 1632   3.242   2.184   1.425  0.1398 -0.3497  0.3519
  126fsi     O4 1633   3.221   1.984   1.280  0.4185  0.0881 -0.1474
  126fsi     F2 1634   3.049   2.046   1.431  0.4233 -0.0566  0.2537
  127fsi     F1 1635   1.477   2.929   3.070 -0.1292  0.0361  0.0086
  127fsi     S1 1636   1.468   3.060   3.160 -0.2855  0.2761 -0.0027
  127fsi      N 1637   1.372   3.154   3.078  0.5180 -0.2852 -0.0837
  127fsi     O1 1638   1.424   3.009   3.280 -0.0020  0.4077  0.5614
  127fsi     O2 1639   1.601   3.103   3.150  0.1747 -0.6370 -0.6825
  127fsi     S2 1640   1.395   3.299   3.023  0.1820  0.4071 -0.2880
  127fsi     O3 1641   1.482   3.379   3.104  0.2902  0.2227  0.3121
  127fsi     O4 1642   1.272   3.356   2.973 -0.0184  0.1030  0.3716
  127fsi     F2 1643   1.484   3.275   2.896  0.3303  0.3012  0.6320
  128fsi     F1 1644   2.882   1.657   2.342  0.1579  0.1530 -0.2675
  128fsi     S1 1645   2.903   1.638   2.491  0.1017  0.0866 -0.3120
  128fsi      N 1646   2.932   1.781   2.548 -0.2534 -0.0011  0.4917
  128fsi     O1 1647   2.778   1.579   2.525 -0.4348 -0.7931  0.2393
  128fsi     O2 1648   3.007   1.548   2.492 -0.0207 -0.5272  0.4123
  128fsi     S2 1649   3.049   1.833   2.637  0.0142  0.4932  0.0893
  128fsi     O3 1650   3.108   1.726   2.716 -0.4389  0.6054  0.3484
  128fsi     O4 1651   3.020   1.952   2.712  0.1132 -0.0619 -0.2704
  128fsi     F2 1652   3.163   1.878   2.537 -0.0302  0.3796 -0.6165
  129fsi     F1 1653   1.723   0.809   0.060 -0.3633 -0.0120  0.9850
  129fsi     S1 1654   1.801   0.840  -0.075  0.0919 -0.3376 -0.1286
  129fsi      N 1655   1.934   0.912  -0.026  0.6828 -0.6025 -0.3698
  129fsi     O1 1656   1.817   0.714  -0.136  0.0704  0.8295 -0.1452
  129fsi     O2 1657   1.707   0.932  -0.140 -0.8045 -0.4796 -0.1188
  129fsi     S2 1658   2.085   0.860  -0.036 -0.2127 -0.1286 -0.3317
  129fsi     O3 1659   2.109   0.735   0.036 -0.7263 -0.3020 -0.0702
  129fsi     O4 1660   2.187   0.960  -0.016  0.7365  0.5256 -0.1686
  129fsi     F2 1661   2.094   0.822  -0.186  0.6339  0.0191  0.3813
  130fsi     F1 1662   2.895   1.101   0.820  0.2138  0.6348  0.6021
  130fsi     S1 1663   2.985   1.025   0.913  0.1857 -0.0550  0.3790
  130fsi      N 1664   2.935   0.875   0.903 -0.2371  0.1918 -0.4560
  130fsi     O1 1665   3.113   1.054   0.858 -0.2353 -0.3215 -0.5343
  130fsi     O2 1666   2.955   1.086   1.039  0.2367  0.7194  0.6522
  130fsi     S2 1667   3.030   0.751   0.859  0.2762 -0.1971 -0.0070
  130fsi     O3 1668   2.984   0.626   0.908 -0.0782  0.5353 -0.0575
  130fsi     O4 1669   3.171   0.770   0.864 -0.2154  0.0142  0.0194
  130fsi     F2 1670   2.993   0.746   0.705  0.3127 -0.5267  0.1117
  131fsi     F1 1671   2.979   1.115   1.916  0.0288 -0.1146  0.2106
  131fsi     S1 1672   2.852   1.024   1.872 -0.2274 -0.1072  0.0490
  131fsi      N 1673   2.917   0.896   1.809  0.2852 -0.4282 -0.3628
  131fsi     O1 1674   2.771   1.007   1.993 -0.0934  0.1504  0.5357
  131fsi     O2 1675   2.795   1.102   1.765  0.2000 -0.0234  0.0216
  131fsi     S2 1676   2.959   0.758   1.873  0.1596 -0.3894  0.6274
  131fsi     O3 1677   2.996   0.762   2.009 -0.0742 -0.0336  0.2112
  131fsi     O4 1678   3.042   0.678   1.786  0.2691 -0.0766 -0.1528
  131fsi     F2 1679   2.830   0.672   1.873 -0.2667  0.2322  0.1360
  132fsi     F1 1680   2.332   1.126   0.822  0.2959  0.4651  0.4449
  132fsi     S1 1681   2.284   0.979   0.784  0.1357 -0.0714 -0.3075
  132fsi      N 1682   2.331   0.892   0.902  1.2162 -0.3142  0.0654
  132fsi     O1 1683   2.142   1.003   0.770  0.2756 -0.7307 -0.4504
  132fsi     O2 1684   2.351   0.944   0.665  0.5241  0.3455 -0.7234
  132fsi     S2 1685   2.241   0.823   1.019  0.4917  0.1343 -0.3925
  132fsi     O3 1686   2.305   0.723   1.089  0.2726  1.2628  0.0505
  132fsi     O4 1687   2.101   0.791   0.981 -0.0193 -0.2489 -0.2809
  132fsi     F2 1688   2.219   0.935   1.127 -0.3447  0.5068  0.0582
  133fsi     F1 1689   2.991   2.370   0.234  0.5903  0.2965  0.2888
  133fsi     S1 1690   2.951   2.449   0.102 -0.0079 -0.3745 -0.1388
  133fsi      N 1691   2.889   2.346   0.003 -0.4604  0.2865  0.0073
  133fsi     O1 1692   2.864   2.553   0.148  0.2491  0.1182 -0.4646
  133fsi     O2 1693   3.084   2.489   0.059  0.3725 -0.4203  0.5423
  133fsi     S2 1694   2.738   2.327  -0.044  0.1053  0.1079 -0.1433
  133fsi     O3 1695   2.634   2.348   0.051  0.0778  0.1450  0.0141
  133fsi     O4 1696   2.736   2.206  -0.117 -0.3142 -0.1941  0.0170
  133fsi     F2 1697   2.707   2.434  -0.152  0.0747 -0.5158 -0.0405
  134fsi     F1 1698   0.679   2.925   2.929 -0.1252  0.7206  0.6789
  134fsi     S1 1699   0.602   2.887   2.798  0.1972 -0.1666 -0.0391
  134fsi      N 1700   0.459   2.896   2.851 -0.5359  0.2165  0.1110
  134fsi     O1 1701   0.631   2.990   2.702  0.0289  0.4028 -0.1815
  134fsi     O2 1702   0.647   2.753   2.769  0.0840  0.2913  0.4866
  134fsi     S2 1703   0.380   3.017   2.890 -0.6898  0.2438 -0.1856
  134fsi     O3 1704   0.466   3.115   2.948 -0.0417  0.1808  0.4808
  134fsi     O4 1705   0.249   2.992   2.954 -0.4844 -0.0713 -0.5581
  134fsi     F2 1706   0.338   3.081   2.754  0.9076 -0.1363  0.4900
  135fsi     F1 1707   1.452   0.598   2.894 -0.5919 -0.0038  0.1971
  135fsi     S1 1708   1.483   0.685   2.765 -0.0340  0.1461  0.4713
  135fsi      N 1709   1.375   0.638   2.659 -1.1298  0.7855 -0.2479
  135fsi     O1 1710   1.469   0.820   2.806 -0.0013  0.0990  0.1339
  135fsi     O2 1711   1.617   0.646   2.727 -0.7981 -0.0856 -0.2252
  135fsi     S2 1712   1.254   0.725   2.599  0.2753 -0.4066  0.0501
  135fsi     O3 1713   1.289   0.864   2.581  0.1161  0.4009 -0.0760
  135fsi     O4 1714   1.130   0.696   2.659  0.0420  0.0477  0.4594
  135fsi     F2 1715   1.237   0.664   2.451  0.1648 -0.2080 -0.5233
  136fsi     F1 1716   1.453   2.210   0.782 -0.3649  0.3019 -0.6198
  136fsi     S1 1717   1.478   2.278   0.649  0.3862  0.5023 -0.1793
  136fsi      N 1718   1.361   2.374   0.658 -0.6260 -0.2573 -0.0060
  136fsi     O1 1719   1.613   2.331   0.667 -0.1265  0.3423 -0.6309
  136fsi     O2 1720   1.466   2.185   0.546  0.0827 -0.1594 -0.0979
  136fsi     S2 1721   1.350   2.525   0.698 -0.1823 -0.1508  0.0488
  136fsi     O3 1722   1.221   2.582   0.651  0.0183  0.6074 -0.1058
  136fsi     O4 1723   1.462   2.604   0.672  0.2646 -0.2252 -0.5823
  136fsi     F2 1724   1.348   2.522   0.854  0.4890 -0.4057  0.0121
  137fsi     F1 1725   1.277   1.621   0.458  0.0764 -0.4513  0.0000
  137fsi     S1 1726   1.342   1.711   0.339  0.2227  0.0086  0.1072
  137fsi      N 1727   1.228   1.790   0.269 -0.1319  0.2174 -0.2200
  137fsi     O1 1728   1.449   1.788   0.401 -0.5497 -0.1169  0.0266
  137fsi     O2 1729   1.392   1.609   0.252 -0.0840 -0.8255  0.8875
  137fsi     S2 1730   1.188   1.940   0.283 -0.0564 -0.2253  0.3009
  137fsi     O3 1731   1.300   2.025   0.313  0.2502  0.0209  0.1760
  137fsi     O4 1732   1.069   1.962   0.359  0.2348 -0.1849  0.1611
  137fsi     F2 1733   1.143   1.986   0.137  0.2129  0.1465  0.1669
  138fsi     F1 1734   1.351   2.421   0.342  0.3941 -0.0693  0.5072
  138fsi     S1 1735   1.425   2.424   0.198  0.0732 -0.2477  0.5589
  138fsi      N 1736   1.571   2.377   0.222  0.1346  0.1568 -0.0480
  138fsi     O1 1737   1.347   2.337   0.115 -0.3508 -0.3599 -0.2462
  138fsi     O2 1738   1.417   2.559   0.160 -0.3796  0.4746 -0.1176
  138fsi     S2 1739   1.638   2.242   0.204  0.1619  0.0097 -0.1631
  138fsi     O3 1740   1.550   2.127   0.228 -0.5017  0.4930  0.3320
  138fsi     O4 1741   1.767   2.253   0.261  0.5557 -0.2181 -0.2405
  138fsi     F2 1742   1.673   2.236   0.049 -0.3610 -0.0798 -0.1785
  139fsi     F1 1743   2.193   1.599   1.817  0.2856 -0.6903  0.4060
  139fsi     S1 1744   2.168   1.727   1.734  0.0716  0.0262 -0.4731
  139fsi      N 1745   2.154   1.680   1.583  0.5596 -0.1350 -0.5947
  139fsi     O1 1746   2.045   1.769   1.790  0.1187 -0.3104 -0.4886
  139fsi     O2 1747   2.283   1.798   1.767 -0.4839 -0.2052 -0.0022
  139fsi     S2 1748   2.268   1.632   1.485 -0.0098  0.1284  0.1178
  139fsi     O3 1749   2.220   1.544   1.385  0.2199  0.3796  0.1800
  139fsi     O4 1750   2.400   1.601   1.545 -0.2655  0.0647  0.2962
  139fsi     F2 1751   2.310   1.766   1.415 -0.5736  0.4912  0.3570
  140fsi     F1 1752   2.690   2.312   0.423  0.1264 -0.2687 -0.1428
  140fsi     S1 1753   2.704   2.288   0.579 -0.2247  0.0406  0.2341
  140fsi      N 1754   2.725   2.433   0.641 -0.7238 -0.1537 -0.0129
  140fsi     O1 1755   2.576   2.239   0.620 -0.1124 -0.2426 -0.8993
  140fsi     O2 1756   2.814   2.202   0.597  0.1058  0.2078  0.0365
  140fsi     S2 1757   2.857   2.512   0.670  0.3514  0.0909 -0.4289
  140fsi     O3 1758   2.910   2.566   0.550  0.1721 -0.2171  0.5838
  140fsi     O4 1759   2.941   2.456   0.775  0.3515 -0.3080  0.5765
  140fsi     F2 1760   2.802   2.640   0.732  0.1216  0.0330 -0.0076
  141fsi     F1 1761   1.927   2.247   1.843  0.5412  0.5811  0.2317
  141fsi     S1 1762   1.887   2.156   1.957 -0.0846  0.0880  0.4277
  141fsi      N 1763   2.006   2.176   2.054  0.3350 -0.5829 -0.2340
  141fsi     O1 1764   1.753   2.197   2.007 -0.1383  0.4874 -0.3718
  141fsi     O2 1765   1.889   2.022   1.899 -0.3609 -0.8478  0.0852
  141fsi     S2 1766   2.009   2.238   2.200  0.0805 -0.0898 -0.3743
  141fsi     O3 1767   1.877   2.274   2.252 -0.2664 -0.3701 -0.2129
  141fsi     O4 1768   2.112   2.330   2.222  0.1038  0.3076 -0.0073
  141fsi     F2 1769   2.048   2.111   2.291 -0.4802  0.5099  0.3962
  142fsi     F1 1770   0.297   2.622   1.272  0.4941 -0.0550 -0.0312
  142fsi     S1 1771   0.270   2.624   1.421  0.0502  0.4456 -0.2894
  142fsi      N 1772   0.420   2.617   1.481  0.3027 -0.0037  0.1196
  142fsi     O1 1773   0.203   2.746   1.445 -0.1408 -0.0721  0.9630
  142fsi     O2 1774   0.198   2.499   1.451 -0.4938  0.2323 -0.0036
  142fsi     S2 1775   0.524   2.737   1.506  0.0239  0.2263 -0.3217
  142fsi     O3 1776   0.467   2.868   1.498 -0.0065  0.6218  0.3374
  142fsi     O4 1777   0.639   2.718   1.425  0.2671  0.8419  0.3548
  142fsi     F2 1778   0.563   2.714   1.652  0.6702 -0.0648 -0.2755
  143fsi     F1 1779   0.480   1.022   3.001  0.1106 -0.3288 -0.0833
  143fsi     S1 1780   0.564   0.997   2.865  0.1342  0.1446  0.1409
  143fsi      N 1781   0.456   1.008   2.752 -1.1497 -0.1358 -0.6551
  143fsi     O1 1782   0.653   1.106   2.849  0.0506 -0.3132 -0.6439
  143fsi     O2 1783   0.617   0.868   2.892 -0.8244 -0.1648 -0.4108
  143fsi     S2 1784   0.374   0.889   2.697  0.1416 -0.3157 -0.0548
  143fsi     O3 1785   0.274   0.927   2.605 -0.6452 -0.3975  0.1466
  143fsi     O4 1786   0.332   0.790   2.791 -0.0450  0.0037 -0.0782
  143fsi     F2 1787   0.478   0.806   2.597 -0.1094 -0.5687 -0.6164
  144fsi     F1 1788   0.340   1.001   2.265  0.0086  0.8023  0.1401
  144fsi     S1 1789   0.454   1.104   2.256  0.0839  0.1132 -0.1962
  144fsi      N 1790   0.522   1.063   2.121 -0.8914 -0.4396 -0.6333
  144fsi     O1 1791   0.390   1.236   2.247  0.3054 -0.4120  0.1715
  144fsi     O2 1792   0.534   1.075   2.372 -0.5546  1.2206  0.6349
  144fsi     S2 1793   0.636   0.953   2.092  0.0170  0.1923 -0.0076
  144fsi     O3 1794   0.667   0.944   1.950 -0.0335 -0.2418  0.2347
  144fsi     O4 1795   0.617   0.832   2.170 -0.0142  0.1877 -0.6776
  144fsi     F2 1796   0.761   1.023   2.159 -0.4010  0.3864  0.3140
  145fsi     F1 1797   0.325   2.698   2.257 -0.1826  0.0363  0.0812
  145fsi     S1 1798   0.335   2.735   2.110  0.1663  0.6099 -0.0132
  145fsi      N 1799   0.443   2.635   2.064 -0.3337 -0.0309  0.0822
  145fsi     O1 1800   0.204   2.699   2.055  0.8697  0.3806 -0.1283
  145fsi     O2 1801   0.369   2.876   2.111  0.4147 -0.6925 -0.5450
  145fsi     S2 1802   0.414   2.489   2.021  0.4809  0.0838 -0.2448
  145fsi     O3 1803   0.314   2.415   2.098 -1.0701 -0.8726  0.1939
  145fsi     O4 1804   0.539   2.419   1.992  0.1731  0.3959  0.2270
  145fsi     F2 1805   0.341   2.499   1.879 -0.1888  0.0955  0.0294
  146fsi     F1 1806   0.261   0.302   1.494  0.1505  0.0424 -0.6257
  146fsi     S1 1807   0.309   0.203   1.386 -0.5316  0.4226  0.5709
  146fsi      N 1808   0.333   0.285   1.259 -0.0219 -0.2068 -0.6513
  146fsi     O1 1809   0.429   0.139   1.434 -0.4944 -0.3115 -0.3954
  146fsi     O2 1810   0.195   0.115   1.367  0.5888 -0.2409  0.0242
  146fsi     S2 1811   0.439   0.401   1.248  0.3021  0.1868 -0.0135
  146fsi     O3 1812   0.514   0.422   1.364  0.4209 -0.6219  0.3515
  146fsi     O4 1813   0.398   0.514   1.171 -0.4353  0.1411 -0.3137
  146fsi     F2 1814   0.555   0.336   1.150 -0.2542  0.3046 -0.0030
  147fsi     F1 1815   1.846   1.876   2.407 -0.5345  0.3179  0.0809
  147fsi     S1 1816   1.891   1.760   2.510  0.1193  0.2917 -0.1974
  147fsi      N 1817   2.003   1.830   2.594  0.0491 -0.2618 -0.3911
  147fsi     O1 1818   1.774   1.724   2.590 -0.3820  0.2299 -0.3151
  147fsi     O2 1819   1.934   1.652   2.421 -0.3196  0.1730  0.1164
  147fsi     S2 1820   2.009   1.863   2.746  0.2553 -0.1161  0.0346
  147fsi     O3 1821   1.893   1.926   2.801 -0.7216 -0.3466  0.1594
  147fsi     O4 1822   2.140   1.902   2.800 -0.7231 -0.2851  0.1415
  147fsi     F2 1823   1.993   1.717   2.807 -0.3062  0.1730  0.7840
  148fsi     F1 1824   1.617   1.155   0.842 -0.3411  0.4122 -0.4525
  148fsi     S1 1825   1.736   1.163   0.745  0.1975  0.5819 -0.2913
  148fsi      N 1826   1.657   1.194   0.604 -0.4646 -0.5956  0.4987
  148fsi     O1 1827   1.815   1.270   0.796 -0.6346  0.5638 -0.2894
  148fsi     O2 1828   1.792   1.027   0.738 -0.5694 -0.8789  0.1395
  148fsi     S2 1829   1.616   1.333   0.536  0.2138 -0.0276  0.2286
  148fsi     O3 1830   1.653   1.445   0.623  0.1410 -0.3128 -0.1401
  148fsi     O4 1831   1.491   1.327   0.472  0.9104 -0.0717 -0.0745
  148fsi     F2 1832   1.726   1.341   0.414  0.0313  1.0147 -0.5885
  149fsi     F1 1833   2.696   3.025   0.976 -0.7073  0.2020  0.1374
  149fsi     S1 1834   2.773   3.142   1.042  0.3914 -0.2570  0.3021
  149fsi      N 1835   2.678   3.177   1.166 -0.5883  0.3543  0.1338
  149fsi     O1 1836   2.897   3.083   1.090  0.3094  0.1725 -0.2002
  149fsi     O2 1837   2.780   3.247   0.937  0.6773  0.5019 -0.4571
  149fsi     S2 1838   2.538   3.249   1.166  0.2826  0.0716  0.2603
  149fsi     O3 1839   2.451   3.210   1.052 -0.7741 -0.1425  0.2778
  149fsi     O4 1840   2.552   3.386   1.201  0.5214  0.3125  0.2358
  149fsi     F2 1841   2.463   3.196   1.297  0.6166  0.1498  0.1726
  150fsi     F1 1842   2.501   0.778   1.489 -0.5397 -0.2367 -0.6228
  150fsi     S1 1843   2.610   0.792   1.606 -0.0084  0.2667  0.4953
  150fsi      N 1844   2.747   0.781   1.527 -0.3237 -0.0800 -0.1622
  150fsi     O1 1845   2.583   0.920   1.663 -0.4737 -0.3043  0.5135
  150fsi     O2 1846   2.597   0.684   1.699  0.2395  0.0382 -0.3230
  150fsi     S2 1847   2.851   0.884   1.481 -0.3765  0.2602  0.0397
  150fsi     O3 1848   2.981   0.846   1.509 -0.3261 -0.0813  0.3567
  150fsi     O4 1849   2.824   1.022   1.498 -0.0528 -0.0186 -0.3897
  150fsi     F2 1850   2.845   0.862   1.326 -0.1419  0.9493 -0.3816
  151fsi     F1 1851   1.675   1.701   1.309  0.3234  0.0768  0.3356
  151fsi     S1 1852   1.570   1.797   1.372  0.1290 -0.0337 -0.0261
  151fsi      N 1853   1.588   1.769   1.523 -0.5816 -0.0834 -0.5043
  151fsi     O1 1854   1.600   1.931   1.333 -0.1657  0.7148  0.2983
  151fsi     O2 1855   1.449   1.734   1.325  0.3157 -0.3334 -0.0942
  151fsi     S2 1856   1.704   1.827   1.619  0.1888 -0.0305 -0.4278
  151fsi     O3 1857   1.838   1.839   1.547 -0.1039 -0.4933  0.2653
  151fsi     O4 1858   1.703   1.762   1.746 -0.2267 -0.4452 -0.1767
  151fsi     F2 1859   1.649   1.971   1.636 -0.1660 -0.7909  0.4201
  152fsi     F1 1860   1.556   1.832   2.278  0.2235 -0.0836  0.2460
  152fsi     S1 1861   1.610   1.929   2.165 -0.3907 -0.3403 -0.2532
  152fsi      N 1862   1.474   1.950   2.085  0.8038  0.0637  0.1772
  152fsi     O1 1863   1.668   2.043   2.229 -0.2867  0.2217 -0.1011
  152fsi     O2 1864   1.701   1.851   2.093  0.5918  0.2404 -0.6038
  152fsi     S2 1865   1.380   2.081   2.075 -0.0791 -0.1074  0.0086
  152fsi     O3 1866   1.427   2.198   2.141  0.0601  0.9529 -0.2371
  152fsi     O4 1867   1.243   2.049   2.085  0.6016  0.0687  0.0194
  152fsi     F2 1868   1.391   2.113   1.923 -0.3947 -0.1369 -0.3977
  153fsi     F1 1869   2.503   0.205   2.837 -0.3115  0.0532  0.0878
  153fsi     S1 1870   2.656   0.221   2.792  0.1156 -0.5309 -0.4397
  153fsi      N 1871   2.646   0.164   2.643 -0.6317 -0.4089 -0.3063
  153fsi     O1 1872   2.676   0.359   2.806  0.2193 -0.4404  0.4603
  153fsi     O2 1873   2.719   0.132   2.892 -0.5200  0.3860 -0.4363
  153fsi     S2 1874   2.760   0.116   2.545  0.2482 -0.0694  0.1559
  153fsi     O3 1875   2.734   0.002   2.465  0.1461 -0.1996 -0.3267
  153fsi     O4 1876   2.892   0.119   2.602  0.3185  0.2319 -0.5070
  153fsi     F2 1877   2.757   0.227   2.438  0.2408  0.2227 -0.1839
  154fsi     F1 1878   1.713   1.225   0.126 -0.0933  0.5187 -0.4520
  154fsi     S1 1879   1.558   1.201   0.094  0.1642 -0.2126  0.3204
  154fsi      N 1880   1.555   1.174  -0.064 -0.6078  0.2694 -0.7407
  154fsi     O1 1881   1.533   1.078   0.160  0.0286  0.0976 -0.3152
  154fsi     O2 1882   1.494   1.322   0.130  0.1078  0.2187 -0.2389
  154fsi     S2 1883   1.573   1.262  -0.196 -0.1737 -0.5207 -0.1007
  154fsi     O3 1884   1.629   1.183  -0.303 -0.3067  0.0804  0.2564
  154fsi     O4 1885   1.615   1.396  -0.169  0.3115  0.6088 -0.1065
  154fsi     F2 1886   1.427   1.278  -0.242  0.1393 -0.4322 -0.5034
  155fsi     F1 1887   0.996   2.949   2.608 -0.1317  0.7260  0.3244
  155fsi     S1 1888   1.029   3.082   2.694 -0.4968  0.1588 -0.0631
  155fsi      N 1889   1.109   3.180   2.596 -0.1199 -0.1914 -0.2762
  155fsi     O1 1890   0.902   3.131   2.735 -0.0439  0.2311 -0.6980
  155fsi     O2 1891   1.118   3.048   2.800  0.1784 -0.2167 -0.4539
  155fsi     S2 1892   1.072   3.315   2.526 -0.1282 -0.3192  0.4591
  155fsi     O3 1893   0.940   3.361   2.557 -0.1403  0.2397  0.0168
  155fsi     O4 1894   1.128   3.344   2.396 -0.2212 -0.3150 -0.4099
  155fsi     F2 1895   1.169   3.411   2.614  0.1597  0.3924  0.9339
  156fsi     F1 1896   0.236   1.520   2.202 -0.5922  0.2425  0.0753
  156fsi     S1 1897   0.276   1.592   2.069 -0.4853  0.2950 -0.5501
  156fsi      N 1898   0.139   1.650   2.020 -0.2748 -0.6470  0.0120
  156fsi     O1 1899   0.372   1.692   2.123 -0.1537 -0.7154  0.3416
  156fsi     O2 1900   0.339   1.491   1.993 -0.2236 -0.7410 -0.2495
  156fsi     S2 1901   0.018   1.585   1.950  0.3039 -0.1200  0.2318
  156fsi     O3 1902  -0.006   1.445   1.973  0.5794 -0.3247 -0.0737
  156fsi     O4 1903   0.002   1.621   1.809 -0.3768 -0.0511 -0.1684
  156fsi     F2 1904  -0.108   1.656   2.016 -0.4275  0.5571  0.0347
  157fsi     F1 1905   0.425   1.306   0.206  0.1980 -0.0958 -0.6597
  157fsi     S1 1906   0.555   1.347   0.132  0.0612 -0.5218  0.2807
  157fsi      N 1907   0.564   1.502   0.152 -0.0967 -0.0096  0.9966
  157fsi     O1 1908   0.658   1.275   0.205  0.5585  0.0640 -0.2662
  157fsi     O2 1909   0.525   1.309  -0.004  0.1504  0.2349  0.3995
  157fsi     S2 1910   0.452   1.616   0.159 -0.1376 -0.1250  0.0875
  157fsi     O3 1911   0.512   1.738   0.113 -0.1114  0.6890  0.3054
  157fsi     O4 1912   0.382   1.615   0.284 -0.1558  0.8982  0.2130
  157fsi     F2 1913   0.340   1.581   0.051  0.1866  0.1279 -0.2400
  158fsi     F1 1914   1.395   2.894   0.791  0.5613 -0.4747  0.6245
  158fsi     S1 1915   1.466   3.010   0.720  0.0620  0.4216  0.2191
  158fsi      N 1916   1.612   2.954   0.687 -0.3915  0.0793  0.1114
  158fsi     O1 1917   1.389   3.037   0.606  0.0773  0.3693  0.1075
  158fsi     O2 1918   1.465   3.112   0.822  0.6228  0.1657  0.3396
  158fsi     S2 1919   1.663   2.891   0.551  0.2055  0.5520  0.0602
  158fsi     O3 1920   1.574   2.877   0.440  0.0136 -0.3223 -0.2883
  158fsi     O4 1921   1.734   2.773   0.582  0.0137  0.1409  0.3684
  158fsi     F2 1922   1.771   2.999   0.493  0.6479  0.0743 -0.4003
  159fsi     F1 1923   1.631   2.499   2.534 -0.0252  0.2683  0.6809
  159fsi     S1 1924   1.679   2.652   2.556 -0.3164 -0.0133 -0.1038
  159fsi      N 1925   1.825   2.621   2.570  0.2559 -0.1899  0.0772
  159fsi     O1 1926   1.634   2.722   2.438 -0.0939 -0.3525 -0.1571
  159fsi     O2 1927   1.610   2.678   2.679  1.0178 -0.3573 -0.1585
  159fsi     S2 1928   1.950   2.706   2.532 -0.1110  0.3921 -0.0679
  159fsi     O3 1929   1.924   2.845   2.520 -0.0084 -0.7434  0.6695
  159fsi     O4 1930   2.044   2.650   2.440  0.0860  0.5922 -0.4205
  159fsi     F2 1931   2.030   2.706   2.668 -0.7472 -0.2144 -0.5199
  160fsi     F1 1932   0.413   0.078   0.863  0.2946 -0.0216 -0.2275
  160fsi     S1 1933   0.356  -0.067   0.866 -0.0598 -0.4813 -0.1477
  160fsi      N 1934   0.474  -0.138   0.949  0.2546 -0.3155 -0.1537
  160fsi     O1 1935   0.228  -0.065   0.931 -0.3120  0.7045 -0.1473
  160fsi     O2 1936   0.374  -0.104   0.726  0.2008 -0.1556  0.3717
  160fsi     S2 1937   0.487  -0.159   1.106  0.4656  0.2696  0.2150
  160fsi     O3 1938   0.542  -0.285   1.144 -0.1225 -0.4624  0.1658
  160fsi     O4 1939   0.385  -0.096   1.188 -0.2154 -0.5082  0.5776
  160fsi     F2 1940   0.611  -0.059   1.138  0.2401  0.1528 -0.1090
  161fsi     F1 1941   2.760   1.843   2.044 -0.5513 -0.4355 -0.9297
  161fsi     S1 1942   2.666   1.920   1.942 -0.2180 -0.3055  0.1655
  161fsi      N 1943   2.772   1.954   1.829 -0.1318 -0.0884  0.0846
  161fsi     O1 1944   2.576   1.814   1.902  0.3169  0.9000 -0.2775
  161fsi     O2 1945   2.617   2.033   2.024  0.4451  0.8258 -0.3337
  161fsi     S2 1946   2.781   1.908   1.675 -0.2623 -0.2882  0.1977
  161fsi     O3 1947   2.670   1.824   1.632  0.0591 -0.0479  0.1736
  161fsi     O4 1948   2.915   1.877   1.635  0.1896 -0.5529  0.1019
  161fsi     F2 1949   2.753   2.039   1.599  0.5238  0.2230 -0.4021
  162fsi     F1 1950   0.621   1.642   0.998 -0.1658 -0.2550  0.0041
  162fsi     S1 1951   0.558   1.516   1.060  0.1356 -0.5177 -0.0629
  162fsi      N 1952   0.419   1.578   1.091  0.1043  0.1727 -0.2310
  162fsi     O1 1953   0.567   1.418   0.957  0.1958 -0.0702 -0.1918
  162fsi     O2 1954   0.643   1.488   1.173  0.2917  0.0614  0.0727
  162fsi     S2 1955   0.366   1.632   1.229 -0.2634  0.0629  0.0092
  162fsi     O3 1956   0.384   1.537   1.336  0.4988 -0.5868 -0.0788
  162fsi     O4 1957   0.244   1.706   1.222  0.3206  0.3832 -0.3043
  162fsi     F2 1958   0.472   1.742   1.252 -0.5766  0.3854  0.5702
  163fsi     F1 1959   2.276   2.589   0.872 -0.6258 -0.6122 -0.2207
  163fsi     S1 1960   2.423   2.576   0.949 -0.2620  0.0432 -0.4288
  163fsi      N 1961   2.380   2.501   1.079 -0.0071 -0.2451 -0.3781
  163fsi     O1 1962   2.495   2.498   0.852  0.0434  0.5858  0.3809
  163fsi     O2 1963   2.456   2.715   0.970 -0.0189 -0.6532 -0.4062
  163fsi     S2 1964   2.388   2.350   1.129 -0.4528 -0.6668  0.2460
  163fsi     O3 1965   2.411   2.258   1.024 -0.2361 -0.0364 -0.2130
  163fsi     O4 1966   2.272   2.322   1.209 -0.0015  0.4481 -0.4125
  163fsi     F2 1967   2.517   2.333   1.216  0.8950 -0.0715  0.2273
  164fsi     F1 1968   0.466   2.564   0.813  0.3993 -0.0813  0.6275
  164fsi     S1 1969   0.599   2.515   0.739 -0.0052 -0.4062 -0.0669
  164fsi      N 1970   0.706   2.589   0.828 -0.7814 -0.3750  0.0178
  164fsi     O1 1971   0.585   2.371   0.753  0.0397 -0.0986 -0.0580
  164fsi     O2 1972   0.581   2.568   0.608 -0.1981  0.1451  0.1837
  164fsi     S2 1973   0.817   2.537   0.934  0.1624  0.0788  0.2262
  164fsi     O3 1974   0.848   2.395   0.927 -0.2755 -0.0306 -0.3087
  164fsi     O4 1975   0.803   2.601   1.062  0.2070 -0.2456 -0.2225
  164fsi     F2 1976   0.947   2.604   0.872 -0.4132  0.1092  0.3912
  165fsi     F1 1977   3.074   2.665   1.636  0.2027 -0.1071 -0.2695
  165fsi     S1 1978   3.025   2.558   1.739 -0.0609 -0.3464 -0.2826
  165fsi      N 1979   2.888   2.510   1.667  0.0632  0.4680  0.1264
  165fsi     O1 1980   3.129   2.465   1.754 -0.4011  0.1901  0.2494
  165fsi     O2 1981   2.987   2.641   1.854 -0.0141 -0.5243 -0.0439
  165fsi     S2 1982   2.852   2.378   1.583 -0.1430 -0.1490 -0.2274
  165fsi     O3 1983   2.962   2.301   1.530  0.3608  0.3689 -0.3752
  165fsi     O4 1984   2.732   2.391   1.504  0.1361  0.7927 -0.5860
  165fsi     F2 1985   2.811   2.290   1.704 -0.1847  0.2677  0.1912
  166fsi     F1 1986   2.502   1.977   2.937  0.4050 -0.8775 -0.2119
  166fsi     S1 1987   2.593   1.891   2.847 -0.1424  0.1547  0.1503
  166fsi      N 1988   2.559   1.952   2.702  0.4049  0.5880 -0.3055
  166fsi     O1 1989   2.726   1.918   2.893 -0.2574  0.6567 -0.7617
  166fsi     O2 1990   2.534   1.763   2.865 -0.3418  0.2738  0.4581
  166fsi     S2 1991   2.644   2.047   2.610  0.2839 -0.7937 -0.1192
  166fsi     O3 1992   2.772   2.083   2.666 -0.5429 -0.7476 -0.0858
  166fsi     O4 1993   2.564   2.146   2.543  0.1269  0.4125  0.6221
  166fsi     F2 1994   2.682   1.947   2.500  0.0292 -0.3070  0.0463
  167fsi     F1 1995   2.715   0.538   2.356  0.0055 -0.0556 -0.1128
  167fsi     S1 1996   2.806   0.648   2.414 -0.1454 -0.2600 -0.3071
  167fsi      N 1997   2.948   0.585   2.421  0.3520 -0.5818 -0.5891
  167fsi     O1 1998   2.794   0.749   2.312  0.4005  0.2390  0.1328
  167fsi     O2 1999   2.737   0.681   2.540 -0.4965  0.7751  0.3534
  167fsi     S2 2000   3.026   0.509   2.537  0.1939 -0.2481  0.1656
  167fsi     O3 2001   3.103   0.407   2.472 -0.1348  0.1576 -0.4991
  167fsi     O4 2002   2.949   0.469   2.653  0.5359 -0.3501  0.0765
  167fsi     F2 2003   3.126   0.617   2.587 -0.3531  0.1748  1.0601
  168fsi     F1 2004   0.191   0.478   2.825 -0.5734 -0.1060  0.2490
  168fsi     S1 2005   0.233   0.326   2.812  0.1560  0.1161 -0.5261
  168fsi      N 2006   0.376   0.321   2.741 -0.3012 -0.1860 -0.0670
  168fsi     O1 2007   0.230   0.270   2.946  0.5715 -0.0135  0.4862
  168fsi     O2 2008   0.136   0.272   2.721 -0.1181 -0.3769 -0.0720
  168fsi     S2 2009   0.518   0.359   2.797  0.2022 -0.5605 -0.4687
  168fsi     O3 2010   0.631   0.321   2.711 -0.1971 -0.5908  0.3529
  168fsi     O4 2011   0.534   0.332   2.941 -0.3436  0.4375 -0.0441
  168fsi     F2 2012   0.528   0.512   2.790  0.0911  0.2807 -0.3757
  169fsi     F1 2013   0.030   0.858   0.127  0.6263 -0.2972  0.3364
  169fsi     S1 2014   0.162   0.902   0.061 -0.1079  0.0290  0.1348
  169fsi      N 2015   0.119   0.962  -0.080 -0.4956  0.0735 -0.0077
  169fsi     O1 2016   0.217   0.997   0.152  0.0446  0.3422 -0.2439
  169fsi     O2 2017   0.234   0.777   0.041  0.1658  0.6676 -0.0361
  169fsi     S2 2018   0.092   1.111  -0.108  0.1836  0.0859  0.2010
  169fsi     O3 2019   0.009   1.164  -0.007 -0.2690 -0.2368  0.1432
  169fsi     O4 2020   0.060   1.130  -0.245 -0.0563 -0.6374 -0.1492
  169fsi     F2 2021   0.228   1.196  -0.102 -0.1256  0.4822 -0.4512
  170fsi     F1 2022   1.781   0.472   0.871 -0.4765  0.5349  0.6409
  170fsi     S1 2023   1.796   0.575   0.753 -0.3539  0.0508  0.2914
  170fsi      N 2024   1.914   0.511   0.680  0.0564  0.0007 -0.4252
  170fsi     O1 2025   1.672   0.566   0.682 -0.3913 -0.1497  0.3341
  170fsi     O2 2026   1.827   0.702   0.822  0.2819  0.6725 -0.1254
  170fsi     S2 2027   2.058   0.568   0.643 -0.3400  0.0815 -0.1838
  170fsi     O3 2028   2.062   0.709   0.608 -0.5436  0.0623 -0.0561
  170fsi     O4 2029   2.128   0.472   0.561 -0.5635 -0.4562 -0.3192
  170fsi     F2 2030   2.133   0.563   0.783 -0.2061 -0.1377  0.2814
  171fsi     F1 2031   2.610   1.910   1.042 -0.0067  0.0577  0.2237
  171fsi     S1 2032   2.610   1.954   0.896  0.5898  0.1386  0.7386
  171fsi      N 2033   2.700   1.844   0.831  0.1428 -0.3172 -0.2964
  171fsi     O1 2034   2.472   1.945   0.849  0.2845  0.2735 -0.2383
  171fsi     O2 2035   2.666   2.083   0.898  0.6913 -0.0473 -0.0057
  171fsi     S2 2036   2.840   1.861   0.764 -0.0064 -0.2805 -0.1230
  171fsi     O3 2037   2.916   1.742   0.780 -0.0609 -0.6739 -0.0850
  171fsi     O4 2038   2.907   1.987   0.783  0.5823  0.2938 -0.4145
  171fsi     F2 2039   2.805   1.861   0.615 -0.4259 -0.0663  0.4751
  172fsi     F1 2040   0.373   1.884   1.556  0.5096 -0.5246  0.7300
  172fsi     S1 2041   0.275   1.805   1.646  0.0429 -0.6523  0.1834
  172fsi      N 2042   0.272   1.887   1.781  0.2240 -0.2723 -0.0840
  172fsi     O1 2043   0.159   1.814   1.568 -0.4034  0.4002 -0.3827
  172fsi     O2 2044   0.325   1.673   1.657  0.2366  0.0856 -0.2079
  172fsi     S2 2045   0.175   2.006   1.817 -0.1297 -0.1855  0.0901
  172fsi     O3 2046   0.127   2.097   1.712 -0.3036  0.3396  0.2386
  172fsi     O4 2047   0.213   2.072   1.937  0.5383  0.3477  0.2931
  172fsi     F2 2048   0.038   1.940   1.874 -0.3766 -0.3100 -0.4124
  173fsi     F1 2049   1.835   2.528   1.165 -0.2688 -0.0948  0.2606
  173fsi     S1 2050   1.684   2.490   1.125  0.1919  0.1581 -0.1517
  173fsi      N 2051   1.602   2.619   1.154 -0.2771 -0.2506 -0.3876
  173fsi     O1 2052   1.703   2.453   0.993 -0.4345 -0.1638  0.7226
  173fsi     O2 2053   1.653   2.379   1.213  0.3937 -0.2326 -0.6827
  173fsi     S2 2054   1.568   2.735   1.057  0.2692  0.1867 -0.2549
  173fsi     O3 2055   1.629   2.728   0.928  0.5638  0.4903  0.0102
  173fsi     O4 2056   1.574   2.864   1.116 -0.1850  0.0697 -0.4662
  173fsi     F2 2057   1.418   2.722   1.029  0.2796 -0.4056  0.3397
  174fsi     F1 2058   0.517   0.303   2.424  0.1386 -0.2927 -0.0075
  174fsi     S1 2059   0.534   0.149   2.398 -0.1718  0.3822 -0.1714
  174fsi      N 2060   0.416   0.081   2.473 -0.4970 -0.1758  0.1083
  174fsi     O1 2061   0.536   0.133   2.253 -0.1491 -0.6181 -0.1193
  174fsi     O2 2062   0.660   0.130   2.460 -0.1266  0.2447 -0.5682
  174fsi     S2 2063   0.282   0.035   2.409  0.4787  0.0474 -0.1604
  174fsi     O3 2064   0.266   0.031   2.264 -0.3383 -0.0845  0.5128
  174fsi     O4 2065   0.169   0.075   2.486 -0.0231 -0.4448  0.2047
  174fsi     F2 2066   0.291  -0.127   2.440  0.0074 -0.5508  0.4051
  175fsi     F1 2067   2.963   2.390   2.722  0.0368  0.3901 -0.5192
  175fsi     S1 2068   3.097   2.334   2.756  0.2329  0.4097  0.0626
  175fsi      N 2069   3.192   2.464   2.766  0.6102  0.1216 -0.3810
  175fsi     O1 2070   3.084   2.255   2.877  0.1637  0.0847  0.1919
  175fsi     O2 2071   3.135   2.260   2.639 -0.0536  0.6743 -0.2302
  175fsi     S2 2072   3.328   2.483   2.855  0.2755 -0.0714 -0.1144
  175fsi     O3 2073   3.444   2.519   2.775 -0.5485  0.0530  0.0097
  175fsi     O4 2074   3.346   2.382   2.955 -0.4995 -0.9510 -0.1411
  175fsi     F2 2075   3.307   2.614   2.951 -0.1996 -0.2356  0.1357
  176fsi     F1 2076   2.176   1.991   0.032 -0.1459 -0.9827  0.0563
  176fsi     S1 2077   2.076   2.095   0.078  0.6665  0.4611 -0.3288
  176fsi      N 2078   2.147   2.230   0.037  0.0257  0.4101 -0.2916
  176fsi     O1 2079   1.959   2.065   0.001  0.0914 -0.3185  0.3934
  176fsi     O2 2080   2.058   2.075   0.221 -0.2777  0.2947  0.1964
  176fsi     S2 2081   2.208   2.335   0.132  0.3517 -0.4422 -0.0053
  176fsi     O3 2082   2.132   2.354   0.252 -0.2939  0.0242  0.3196
  176fsi     O4 2083   2.246   2.450   0.059  0.5944 -0.4047 -0.4029
  176fsi     F2 2084   2.342   2.272   0.187  0.7461  0.4515  0.5550
  177fsi     F1 2085   2.344   2.718   2.577 -0.5114  0.1783 -0.0477
  177fsi     S1 2086   2.456   2.796   2.656  0.0326  0.1378 -0.0036
  177fsi      N 2087   2.398   2.921   2.727  0.4625  0.3325  0.6715
  177fsi     O1 2088   2.510   2.701   2.742 -0.0080  0.0185  0.3674
  177fsi     O2 2089   2.549   2.834   2.550 -0.3307  0.3020  0.1952
  177fsi     S2 2090   2.329   2.930   2.867  0.4342  0.2940 -0.2302
  177fsi     O3 2091   2.223   2.829   2.873 -0.5595  0.3163  0.6555
  177fsi     O4 2092   2.297   3.062   2.915 -0.6728 -0.3125 -0.2776
  177fsi     F2 2093   2.431   2.888   2.967 -0.4846  0.0452  0.0647
  178fsi     F1 2094   0.381   0.157   1.764  0.4178  0.1388  0.3303
  178fsi     S1 2095   0.267   0.141   1.871  0.3047 -0.0382 -0.7318
  178fsi      N 2096   0.256  -0.012   1.886 -0.1873 -0.3958 -0.7883
  178fsi     O1 2097   0.311   0.202   1.996 -0.6813 -0.4696  0.2435
  178fsi     O2 2098   0.153   0.202   1.806 -0.1910  0.4911 -0.1970
  178fsi     S2 2099   0.218  -0.117   1.777  0.2310  0.3784 -0.3329
  178fsi     O3 2100   0.225  -0.073   1.640 -0.1817  0.4385  0.2051
  178fsi     O4 2101   0.103  -0.195   1.821  0.1462  0.4010  0.0101
  178fsi     F2 2102   0.338  -0.215   1.785  0.3942 -0.2367  0.0887
  179fsi     F1 2103   1.835   2.016   0.711  0.0090  0.2025 -0.4892
  179fsi     S1 2104   1.828   1.982   0.563 -0.0268 -0.2429  0.2906
  179fsi      N 2105   1.911   1.849   0.555 -0.3663  0.3032  0.4960
  179fsi     O1 2106   1.690   1.978   0.528  0.2893  0.2876 -0.2873
  179fsi     O2 2107   1.899   2.094   0.503 -0.4311 -0.8984  0.6736
  179fsi     S2 2108   1.924   1.735   0.655  0.1198  0.1651 -0.0129
  179fsi     O3 2109   1.976   1.622   0.585 -0.7904 -0.4842  0.2786
  179fsi     O4 2110   1.813   1.714   0.746 -0.5494 -0.5830 -0.2690
  179fsi     F2 2111   2.038   1.790   0.747 -0.5271  0.1878  0.0278
  180fsi     F1 2112   2.430   0.518   0.170  0.7571  0.1677  0.2617
  180fsi     S1 2113   2.461   0.426   0.039  0.3342 -0.0314 -0.1889
  180fsi      N 2114   2.415   0.284   0.090  0.1814  0.6723  0.7568
  180fsi     O1 2115   2.376   0.469  -0.067 -0.3703 -0.2294  0.4191
  180fsi     O2 2116   2.602   0.445   0.022  0.3817  0.2590 -0.1607
  180fsi     S2 2117   2.499   0.163   0.142  0.0616  0.0082  0.4673
  180fsi     O3 2118   2.640   0.158   0.104  0.0445 -0.0755  0.2764
  180fsi     O4 2119   2.427   0.041   0.125 -0.1965 -0.2724 -0.5352
  180fsi     F2 2120   2.502   0.190   0.301 -0.1963  0.0108  0.0275
  181fsi     F1 2121   2.709   1.563   0.347 -0.3546 -0.4888  0.3812
  181fsi     S1 2122   2.653   1.421   0.385 -0.0550 -0.2799 -0.0506
  181fsi      N 2123   2.640   1.436   0.533  0.7532  0.1314 -0.0233
  181fsi     O1 2124   2.537   1.426   0.304 -0.3364 -0.1660 -0.0470
  181fsi     O2 2125   2.760   1.336   0.342 -0.1396  0.0577  0.1998
  181fsi     S2 2126   2.743   1.418   0.645 -0.8944  0.2124 -0.0066
  181fsi     O3 2127   2.695   1.492   0.756 -0.3824 -0.0318 -0.5427
  181fsi     O4 2128   2.883   1.427   0.603  0.0831  0.0469 -0.6372
  181fsi     F2 2129   2.728   1.269   0.690 -0.4272  0.4403 -0.3730
  182fsi     F1 2130   1.032   0.814   2.111 -0.1501  0.5781 -0.3451
  182fsi     S1 2131   1.164   0.826   2.025 -0.0969  0.2231  0.0898
  182fsi      N 2132   1.142   0.971   1.963  0.0597  0.3276 -0.1954
  182fsi     O1 2133   1.273   0.805   2.112  0.0459  0.0439 -0.5736
  182fsi     O2 2134   1.143   0.724   1.923  0.6030 -0.4922 -0.2388
  182fsi     S2 2135   1.207   1.105   2.012 -0.0707 -0.4083 -0.4156
  182fsi     O3 2136   1.173   1.136   2.147 -0.1159 -0.1932 -0.5689
  182fsi     O4 2137   1.198   1.204   1.910 -0.1907  0.2434 -0.0275
  182fsi     F2 2138   1.359   1.074   2.012 -0.3825 -0.2802  0.0269
  183fsi     F1 2139   2.061   2.592   0.602  0.0033 -0.2155 -0.4928
  183fsi     S1 2140   1.991   2.460   0.649  0.0419 -0.1371  0.0800
  183fsi      N 2141   2.105   2.378   0.716  0.2833 -0.3881 -0.2071
  183fsi     O1 2142   1.900   2.510   0.744  0.2702  0.3293  0.1947
  183fsi     O2 2143   1.938   2.397   0.531  1.2422 -0.2008  0.6959
  183fsi     S2 2144   2.175   2.249   0.666  0.2047  0.4256 -0.2569
  183fsi     O3 2145   2.302   2.218   0.736  0.0753  0.1828  0.2265
  183fsi     O4 2146   2.178   2.231   0.526  0.2819  0.5294 -0.0172
  183fsi     F2 2147   2.091   2.128   0.720  0.7012  0.3062 -0.0872
  184fsi     F1 2148   0.232   1.197   1.539  0.1200 -0.0027 -0.2403
  184fsi     S1 2149   0.133   1.229   1.659 -0.0631  0.3884 -0.2027
  184fsi      N 2150   0.154   1.103   1.754  0.0303 -0.6045 -0.0909
  184fsi     O1 2151   0.171   1.358   1.714 -0.1018  0.3533  0.0068
  184fsi     O2 2152  -0.001   1.224   1.603 -0.2626  0.6949  0.0992
  184fsi     S2 2153   0.253   1.092   1.875  0.0752 -0.0254 -0.1700
  184fsi     O3 2154   0.362   1.188   1.866  0.1183  0.5682  0.0206
  184fsi     O4 2155   0.295   0.955   1.900  0.4991  0.2876  0.1233
  184fsi     F2 2156   0.163   1.136   2.002 -0.0768  0.0690 -0.1062
  185fsi     F1 2157   2.211   0.258   1.978 -0.2475 -0.2152  0.4535
  185fsi     S1 2158   2.132   0.381   1.908  0.1489 -0.2219  0.1017
  185fsi      N 2159   1.999   0.312   1.850  0.6173 -0.3131 -0.0005
  185fsi     O1 2160   2.123   0.465   2.024 -0.1001 -0.4880 -0.1487
  185fsi     O2 2161   2.226   0.429   1.804  0.0459 -0.0812  0.7261
  185fsi     S2 2162   1.865   0.285   1.923  0.0040  0.2377  0.1576
  185fsi     O3 2163   1.851   0.338   2.058 -0.1651 -0.4353  0.3143
  185fsi     O4 2164   1.805   0.157   1.905 -0.6387  0.0071  0.3679
  185fsi     F2 2165   1.760   0.382   1.851 -0.5161 -0.2220  0.5272
  186fsi     F1 2166   1.171   2.658   0.275 -0.1500 -0.0251 -0.0284
  186fsi     S1 2167   1.087   2.781   0.324 -0.2449 -0.0803 -0.3051
  186fsi      N 2168   1.071   2.870   0.189 -0.6016 -0.7555  0.2473
  186fsi     O1 2169   0.966   2.714   0.359  0.4728 -0.1214  0.4114
  186fsi     O2 2170   1.172   2.838   0.423  0.0643 -0.6756 -0.4864
  186fsi     S2 2171   0.953   2.896   0.097 -0.0019  0.2184 -0.0689
  186fsi     O3 2172   0.866   2.789   0.072  0.1445 -0.1298  0.6818
  186fsi     O4 2173   0.991   2.981  -0.012  0.4208 -0.7062  0.1792
  186fsi     F2 2174   0.878   2.996   0.194  0.1952  0.3226  0.3347
  187fsi     F1 2175   0.647   1.128   1.445  0.4165  0.1411  0.3317
  187fsi     S1 2176   0.600   1.175   1.585  0.1273  0.1319  0.0745
  187fsi      N 2177   0.732   1.175   1.664  0.0930  0.1812 -0.1682
  187fsi     O1 2178   0.535   1.306   1.563  0.6068  0.3179  0.4696
  187fsi     O2 2179   0.516   1.065   1.620 -0.0766  0.6704  0.6644
  187fsi     S2 2180   0.777   1.240   1.803  0.0584 -0.1039  0.3703
  187fsi     O3 2181   0.893   1.174   1.858 -0.4354 -0.0438 -0.1507
  187fsi     O4 2182   0.667   1.272   1.891  0.1928  0.4012 -0.1781
  187fsi     F2 2183   0.840   1.380   1.757 -0.0516 -0.6216 -0.0538
  188fsi     F1 2184   1.413   0.618   1.488  0.5515 -0.0790 -0.1861
  188fsi     S1 2185   1.270   0.643   1.436  0.3423 -0.0381 -0.6749
  188fsi      N 2186   1.289   0.772   1.345  0.6368  0.3142 -0.0980
  188fsi     O1 2187   1.232   0.519   1.367  0.1590 -0.3411  0.3496
  188fsi     O2 2188   1.206   0.679   1.556  0.4406  0.6919 -0.5425
  188fsi     S2 2189   1.258   0.797   1.190 -0.1479 -0.2003  0.3688
  188fsi     O3 2190   1.293   0.684   1.112 -0.3434  0.5406  0.4143
  188fsi     O4 2191   1.320   0.922   1.148 -0.5620 -0.0366 -0.3642
  188fsi     F2 2192   1.103   0.814   1.179 -0.8207  0.2742 -0.7530
  189fsi     F1 2193   2.420   1.659   0.020  0.5128 -0.3966 -0.2407
  189fsi     S1 2194   2.313   1.543  -0.009 -0.0116  0.3827 -0.2201
  189fsi      N 2195   2.399   1.426  -0.063 -0.5262 -0.1077 -0.1346
  189fsi     O1 2196   2.254   1.519   0.123 -0.4119 -0.1913 -0.4940
  189fsi     O2 2197   2.227   1.605  -0.107  0.1135 -0.4015  0.1317
  189fsi     S2 2198   2.449   1.293   0.002 -0.0706  0.4910  0.9266
  189fsi     O3 2199   2.382   1.254   0.123  0.5292  0.5558 -0.4459
  189fsi     O4 2200   2.591   1.284   0.007  0.3749  0.6497 -0.3591
  189fsi     F2 2201   2.402   1.174  -0.102 -0.6429  0.0685  0.2515
  190fsi     F1 2202   2.542   1.340   1.302 -0.1798 -0.2764 -0.3467
  190fsi     S1 2203   2.522   1.186   1.305  0.0059  0.0907  0.0869
  190fsi      N 2204   2.475   1.164   1.455  0.4647 -0.3817  0.4357
  190fsi     O1 2205   2.419   1.171   1.208 -0.5040  0.1125  0.1521
  190fsi     O2 2206   2.652   1.130   1.280 -0.4765 -0.1516  0.2233
  190fsi     S2 2207   2.331   1.146   1.517 -0.1299 -0.2129 -0.0021
  190fsi     O3 2208   2.229   1.218   1.443 -0.5240 -0.1217  0.3174
  190fsi     O4 2209   2.338   1.155   1.660  0.3700 -0.9091 -0.3949
  190fsi     F2 2210   2.303   0.991   1.493  0.5012 -0.3160 -0.1353
  191fsi     F1 2211   0.974   1.865   0.992 -0.3464 -0.1784  0.0828
  191fsi     S1 2212   1.075   1.746   0.978  0.0947 -0.0959 -0.0008
  191fsi      N 2213   1.139   1.767   0.830 -0.2909  0.5265 -0.8024
  191fsi     O1 2214   1.162   1.769   1.087 -0.3451  0.2859  0.3731
  191fsi     O2 2215   0.995   1.628   0.986  0.1909  0.7878 -0.2834
  191fsi     S2 2216   1.251   1.864   0.786  0.0126  0.0778 -0.0072
  191fsi     O3 2217   1.274   1.970   0.877  0.0702  0.3194  0.4136
  191fsi     O4 2218   1.256   1.885   0.641 -0.3447  0.2555  0.1551
  191fsi     F2 2219   1.374   1.781   0.802 -0.1037 -0.0282  0.9282
  192fsi     F1 2220   0.324   0.609   1.478  0.0624 -1.0129 -0.1434
  192fsi     S1 2221   0.312   0.664   1.615 -0.4205 -0.1044  0.0583
  192fsi      N 2222   0.462   0.698   1.662  0.5725  0.1798 -0.1801
  192fsi     O1 2223   0.243   0.787   1.608 -0.5591  0.2328 -0.2148
  192fsi     O2 2224   0.244   0.560   1.684  0.4903 -0.2618 -0.0274
  192fsi     S2 2225   0.574   0.613   1.726 -0.2195 -0.2728  0.0446
  192fsi     O3 2226   0.532   0.489   1.783 -0.4170 -0.2279  0.0467
  192fsi     O4 2227   0.661   0.697   1.803 -0.0231 -0.2206 -0.5219
  192fsi     F2 2228   0.658   0.572   1.602  0.5866 -0.4594 -0.2172
  193fsi     F1 2229   0.001   0.375   0.144 -0.3912  0.0867 -0.2100
  193fsi     S1 2230  -0.065   0.247   0.201  0.2041  0.4210  0.4733
  193fsi      N 2231  -0.129   0.308   0.329 -0.2157  0.6617  0.2193
  193fsi     O1 2232  -0.154   0.205   0.097 -0.0188  0.1860 -0.0960
  193fsi     O2 2233   0.049   0.161   0.231  0.5447 -0.1091  0.0472
  193fsi     S2 2234  -0.234   0.424   0.343  0.2818 -0.5146  0.0656
  193fsi     O3 2235  -0.257   0.507   0.226  0.0877 -0.0248 -0.2080
  193fsi     O4 2236  -0.208   0.504   0.463  0.6893  0.2815 -0.2725
  193fsi     F2 2237  -0.371   0.352   0.363 -0.2415  0.4286  0.3994
  194fsi     F1 2238   1.132   1.099   1.362 -0.1786  0.1605  0.1444
  194fsi     S1 2239   1.006   1.144   1.450 -0.1600 -0.5365 -0.4037
  194fsi      N 2240   0.918   1.011   1.439 -0.0328 -0.2995 -0.2749
  194fsi     O1 2241   1.063   1.169   1.583 -0.0689  0.0841 -0.2572
  194fsi     O2 2242   0.951   1.255   1.378  0.1353  0.8217  0.3690
  194fsi     S2 2243   0.901   0.893   1.545  0.0872 -0.3026 -0.2989
  194fsi     O3 2244   0.769   0.872   1.599 -0.2906 -0.1707  0.1496
  194fsi     O4 2245   1.013   0.883   1.640  0.2360 -0.2954  0.0820
  194fsi     F2 2246   0.923   0.768   1.463  0.2222  0.1401  0.3726
  195fsi     F1 2247   1.849   1.482   2.197 -0.0065  0.2021 -0.2272
  195fsi     S1 2248   1.924   1.467   2.069 -0.3884 -0.2387 -0.0284
  195fsi      N 2249   2.077   1.456   2.113 -0.3129  0.0408  0.0043
  195fsi     O1 2250   1.870   1.347   2.014 -0.2895 -0.4055 -0.7461
  195fsi     O2 2251   1.899   1.592   1.995  0.4923 -0.8498  0.0440
  195fsi     S2 2252   2.179   1.347   2.080  0.0988  0.0249 -0.3275
  195fsi     O3 2253   2.156   1.271   1.965 -0.7449 -0.5102  0.8401
  195fsi     O4 2254   2.211   1.283   2.199 -0.0267 -0.7750  0.1145
  195fsi     F2 2255   2.308   1.430   2.046  0.3327  0.2855  0.5296
  196fsi     F1 2256   1.695   2.729   2.103  0.0138  0.5942  0.2049
  196fsi     S1 2257   1.761   2.590   2.098 -0.0813 -0.5642  0.5056
  196fsi      N 2258   1.820   2.593   1.956 -0.4281 -0.4235  0.1378
  196fsi     O1 2259   1.869   2.596   2.193 -0.4535 -0.1323  0.1299
  196fsi     O2 2260   1.661   2.489   2.118  0.2545  0.3250 -0.1350
  196fsi     S2 2261   1.966   2.586   1.898  0.0672 -0.1368  0.5723
  196fsi     O3 2262   1.973   2.542   1.763  0.0877 -0.3309 -0.3131
  196fsi     O4 2263   2.052   2.518   1.990 -0.4376 -0.0801  0.2564
  196fsi     F2 2264   2.009   2.736   1.890  0.2560  0.0567 -0.6598
  197fsi     F1 2265   1.508   0.083   1.751  0.3463  0.1458  0.4264
  197fsi     S1 2266   1.353   0.086   1.738  0.1713  0.2792  0.5517
  197fsi      N 2267   1.322   0.237   1.719  0.7733 -0.5508 -0.0474
  197fsi     O1 2268   1.343   0.015   1.608  0.1415 -0.0528  0.0949
  197fsi     O2 2269   1.307   0.024   1.860 -0.2086  0.3762  0.5445
  197fsi     S2 2270   1.309   0.343   1.840  0.1469 -0.0390 -0.0161
  197fsi     O3 2271   1.278   0.291   1.970 -0.3493  0.3721 -0.1215
  197fsi     O4 2272   1.240   0.462   1.807 -0.1614  0.2817  0.3110
  197fsi     F2 2273   1.455   0.394   1.859  0.1100  0.7486 -0.8937
  198fsi     F1 2274   1.941   1.019   1.241  0.1184  0.0252 -0.0642
  198fsi     S1 2275   1.815   0.964   1.162 -0.3134 -0.0201 -0.0632
  198fsi      N 2276   1.824   0.805   1.156  0.0369 -0.5688 -0.2013
  198fsi     O1 2277   1.706   1.016   1.237 -0.1890  0.4733  0.5523
  198fsi     O2 2278   1.829   1.028   1.031  0.6508 -0.1305 -0.0086
  198fsi     S2 2279   1.729   0.697   1.211  0.1645  0.0512 -0.0402
  198fsi     O3 2280   1.635   0.745   1.312 -0.1114 -0.6520 -0.0222
  198fsi     O4 2281   1.792   0.571   1.228  0.4262 -0.3732  0.4750
  198fsi     F2 2282   1.635   0.676   1.085 -0.1608  0.0133 -0.1043
  199fsi     F1 2283   1.082   2.887   1.051  0.1735  0.2681  0.2934
  199fsi     S1 2284   1.025   2.934   1.198  0.0791  0.5816 -0.0057
  199fsi      N 2285   1.106   2.851   1.299  0.1485  0.1677 -0.0335
  199fsi     O1 2286   1.055   3.076   1.207 -0.6747  0.1466 -0.2817
  199fsi     O2 2287   0.888   2.895   1.194 -0.4546  0.0246 -0.7822
  199fsi     S2 2288   1.059   2.718   1.361  0.3610 -0.1208  0.3046
  199fsi     O3 2289   1.168   2.636   1.406  0.1357  0.3324  0.5599
  199fsi     O4 2290   0.953   2.648   1.304  0.5031 -0.2257  0.7613
  199fsi     F2 2291   0.995   2.776   1.493  0.4402 -0.3897  0.5928
  200fsi     F1 2292   0.666   1.516   2.080  0.1420 -0.4045  0.3707
  200fsi     S1 2293   0.752   1.473   2.209 -0.3700  0.6552 -0.0422
  200fsi      N 2294   0.897   1.494   2.170 -0.1894  0.2368 -0.2399
  200fsi     O1 2295   0.698   1.562   2.307  0.1997  0.0070 -0.0321
  200fsi     O2 2296   0.731   1.333   2.227 -0.1626  0.4080 -0.2254
  200fsi     S2 2297   1.019   1.539   2.253 -0.0035 -0.1167 -0.3258
  200fsi     O3 2298   1.004   1.560   2.393  0.0953  0.1939 -0.1252
  200fsi     O4 2299   1.098   1.634   2.176  0.2513  0.0934 -0.3326
  200fsi     F2 2300   1.107   1.409   2.236  0.0501 -0.1996  0.0563
   3.08570   3.08570   3.08570
