simbox
 2300
    1Li      Li    1   1.144   1.162   2.856
    2Li      Li    2   0.776   2.910   2.232
    3Li      Li    3   1.548   1.823   0.804
    4Li      Li    4   1.178   2.782   1.828
    5Li      Li    5   0.523   0.220   0.362
    6Li      Li    6   2.431   0.996   2.730
    7Li      Li    7   0.104   1.692   1.308
    8Li      Li    8   1.038   2.794   0.646
    9Li      Li    9   0.153   2.358   2.640
   10Li      Li   10   2.783   1.341   0.883
   11Li      Li   11   2.137   1.354   1.152
   12Li      Li   12   2.658   1.360   1.472
   13Li      Li   13   0.022   1.809   2.799
   14Li      Li   14   2.571   0.539   2.382
   15Li      Li   15   0.782   0.825   1.390
   16Li      Li   16   0.432   1.746   1.693
   17Li      Li   17   3.012   1.364   1.264
   18Li      Li   18   0.827   1.808   2.893
   19Li      Li   19   1.638   2.236   2.166
   20Li      Li   20   0.688   2.661   1.615
   21Li      Li   21   2.044   2.717   1.800
   22Li      Li   22   2.073   0.466   3.050
   23Li      Li   23   1.591   0.825   2.926
   24Li      Li   24   0.111   2.232   1.753
   25Li      Li   25   0.275   2.221   1.105
   26Li      Li   26   2.455   2.629   2.175
   27Li      Li   27   1.931   1.539   0.784
   28Li      Li   28   2.285   0.291   2.532
   29Li      Li   29   0.203   0.091   2.089
   30Li      Li   30   1.460   0.451   2.861
   31Li      Li   31   1.412   2.157   0.113
   32Li      Li   32   0.737   2.224   0.500
   33Li      Li   33   2.103   2.204   0.561
   34Li      Li   34   0.474   0.793   2.082
   35Li      Li   35   2.439   1.599   1.561
   36Li      Li   36   1.804   1.047   0.833
   37Li      Li   37   0.763   0.007   2.940
   38Li      Li   38   2.648   1.937   1.191
   39Li      Li   39   0.051   0.769   2.958
   40Li      Li   40   1.343   1.428   1.287
   41Li      Li   41   0.745   0.965   1.793
   42Li      Li   42   0.128   2.600   1.838
   43Li      Li   43   0.112   0.839   1.661
   44Li      Li   44   0.027   0.180   1.082
   45Li      Li   45   1.323   0.401   0.815
   46Li      Li   46   1.210   1.459   0.371
   47Li      Li   47   1.977   2.007   1.544
   48Li      Li   48   2.950   1.630   1.944
   49Li      Li   49   0.282   1.363   2.004
   50Li      Li   50   2.771   2.284   0.232
   51c3c      N   51   1.021   0.288   1.966
   51c3c     C1   52   0.886   0.340   1.941
   51c3c     C2   53   1.092   0.387   2.049
   51c3c     C3   54   0.895   0.490   1.962
   51c3c     C4   55   0.996   0.503   2.073
   51c3c     C5   56   1.009   0.163   2.041
   51c3c     C6   57   1.095   0.254   1.842
   51c3c     H1   58   0.814   0.302   2.013
   51c3c     H2   59   0.846   0.313   1.843
   51c3c     H3   60   1.122   0.349   2.146
   51c3c     H4   61   1.184   0.424   2.003
   51c3c     H5   62   0.800   0.536   1.989
   51c3c     H6   63   0.930   0.537   1.870
   51c3c     H7   64   0.947   0.492   2.170
   51c3c     H8   65   1.048   0.599   2.073
   51c3c     H9   66   0.948   0.091   1.986
   51c3c    H10   67   1.105   0.116   2.062
   51c3c    H11   68   0.960   0.177   2.137
   51c3c    H12   69   1.192   0.211   1.867
   51c3c    H13   70   1.041   0.176   1.788
   51c3c     C7   71   1.119   0.370   1.744
   51c3c    H14   72   1.169   0.452   1.794
   51c3c    H15   73   1.023   0.407   1.707
   51c3c     C8   74   1.205   0.332   1.623
   51c3c    H16   75   1.156   0.259   1.559
   51c3c    H17   76   1.302   0.293   1.654
   51c3c    H18   77   1.225   0.422   1.563
   52c3c      N   78   1.046   0.390   0.301
   52c3c     C1   79   1.170   0.453   0.251
   52c3c     C2   80   0.938   0.475   0.251
   52c3c     C3   81   1.139   0.598   0.213
   52c3c     C4   82   0.991   0.617   0.241
   52c3c     C5   83   1.030   0.256   0.242
   52c3c     C6   84   1.044   0.372   0.448
   52c3c     H1   85   1.207   0.402   0.162
   52c3c     H2   86   1.251   0.447   0.324
   52c3c     H3   87   0.906   0.445   0.151
   52c3c     H4   88   0.850   0.467   0.315
   52c3c     H5   89   1.159   0.614   0.107
   52c3c     H6   90   1.199   0.670   0.268
   52c3c     H7   91   0.942   0.673   0.161
   52c3c     H8   92   0.976   0.674   0.333
   52c3c     H9   93   1.107   0.185   0.276
   52c3c    H10   94   0.934   0.211   0.269
   52c3c    H11   95   1.035   0.256   0.133
   52c3c    H12   96   0.952   0.322   0.476
   52c3c    H13   97   1.123   0.302   0.475
   52c3c     C7   98   1.060   0.498   0.535
   52c3c    H14   99   0.975   0.565   0.523
   52c3c    H15  100   1.149   0.553   0.505
   52c3c     C8  101   1.072   0.464   0.685
   52c3c    H16  102   1.148   0.387   0.701
   52c3c    H17  103   0.978   0.423   0.722
   52c3c    H18  104   1.096   0.552   0.744
   53c3c      N  105   1.093   1.774   0.701
   53c3c     C1  106   1.182   1.664   0.666
   53c3c     C2  107   1.020   1.736   0.822
   53c3c     C3  108   1.109   1.538   0.712
   53c3c     C4  109   1.023   1.584   0.827
   53c3c     C5  110   1.169   1.894   0.733
   53c3c     C6  111   1.007   1.807   0.587
   53c3c     H1  112   1.278   1.671   0.719
   53c3c     H2  113   1.209   1.665   0.560
   53c3c     H3  114   1.067   1.772   0.913
   53c3c     H4  115   0.919   1.778   0.825
   53c3c     H5  116   1.178   1.457   0.739
   53c3c     H6  117   1.044   1.494   0.637
   53c3c     H7  118   1.068   1.555   0.922
   53c3c     H8  119   0.922   1.543   0.820
   53c3c     H9  120   1.228   1.931   0.650
   53c3c    H10  121   1.103   1.974   0.767
   53c3c    H11  122   1.237   1.876   0.816
   53c3c    H12  123   0.945   1.891   0.618
   53c3c    H13  124   1.070   1.845   0.507
   53c3c     C7  125   0.921   1.695   0.523
   53c3c    H14  126   0.857   1.648   0.597
   53c3c    H15  127   0.986   1.618   0.482
   53c3c     C8  128   0.839   1.743   0.404
   53c3c    H16  129   0.901   1.797   0.332
   53c3c    H17  130   0.758   1.810   0.436
   53c3c    H18  131   0.792   1.660   0.352
   54c3c      N  132   1.234   0.694   1.261
   54c3c     C1  133   1.114   0.721   1.341
   54c3c     C2  134   1.194   0.699   1.120
   54c3c     C3  135   0.993   0.693   1.252
   54c3c     C4  136   1.042   0.690   1.109
   54c3c     C5  137   1.335   0.799   1.283
   54c3c     C6  138   1.294   0.565   1.297
   54c3c     H1  139   1.111   0.824   1.377
   54c3c     H2  140   1.111   0.661   1.432
   54c3c     H3  141   1.227   0.791   1.073
   54c3c     H4  142   1.239   0.619   1.062
   54c3c     H5  143   0.916   0.769   1.263
   54c3c     H6  144   0.951   0.595   1.276
   54c3c     H7  145   1.001   0.774   1.053
   54c3c     H8  146   1.010   0.599   1.059
   54c3c     H9  147   1.376   0.797   1.384
   54c3c    H10  148   1.420   0.793   1.216
   54c3c    H11  149   1.299   0.901   1.268
   54c3c    H12  150   1.388   0.554   1.244
   54c3c    H13  151   1.321   0.567   1.403
   54c3c     C7  152   1.209   0.438   1.271
   54c3c    H14  153   1.165   0.439   1.171
   54c3c    H15  154   1.126   0.433   1.341
   54c3c     C8  155   1.294   0.310   1.281
   54c3c    H16  156   1.340   0.300   1.379
   54c3c    H17  157   1.374   0.310   1.208
   54c3c    H18  158   1.233   0.221   1.264
   55c3c      N  159   0.303   1.610   2.463
   55c3c     C1  160   0.410   1.647   2.368
   55c3c     C2  161   0.210   1.723   2.470
   55c3c     C3  162   0.368   1.774   2.294
   55c3c     C4  163   0.228   1.804   2.342
   55c3c     C5  164   0.229   1.496   2.407
   55c3c     C6  165   0.358   1.566   2.594
   55c3c     H1  166   0.432   1.569   2.296
   55c3c     H2  167   0.505   1.668   2.418
   55c3c     H3  168   0.106   1.695   2.488
   55c3c     H4  169   0.234   1.788   2.554
   55c3c     H5  170   0.370   1.760   2.186
   55c3c     H6  171   0.435   1.856   2.319
   55c3c     H7  172   0.160   1.777   2.261
   55c3c     H8  173   0.213   1.911   2.360
   55c3c     H9  174   0.288   1.405   2.407
   55c3c    H10  175   0.138   1.474   2.463
   55c3c    H11  176   0.200   1.515   2.303
   55c3c    H12  177   0.277   1.528   2.656
   55c3c    H13  178   0.425   1.482   2.575
   55c3c     C7  179   0.437   1.671   2.677
   55c3c    H14  180   0.372   1.753   2.708
   55c3c    H15  181   0.519   1.715   2.621
   55c3c     C8  182   0.496   1.615   2.807
   55c3c    H16  183   0.569   1.536   2.787
   55c3c    H17  184   0.419   1.576   2.873
   55c3c    H18  185   0.548   1.694   2.861
   56c3c      N  186   2.252   0.688   0.563
   56c3c     C1  187   2.303   0.823   0.592
   56c3c     C2  188   2.359   0.594   0.601
   56c3c     C3  189   2.444   0.812   0.648
   56c3c     C4  190   2.489   0.673   0.608
   56c3c     C5  191   2.134   0.659   0.645
   56c3c     C6  192   2.207   0.668   0.423
   56c3c     H1  193   2.242   0.876   0.665
   56c3c     H2  194   2.304   0.887   0.503
   56c3c     H3  195   2.339   0.552   0.700
   56c3c     H4  196   2.368   0.511   0.532
   56c3c     H5  197   2.443   0.823   0.757
   56c3c     H6  198   2.512   0.889   0.611
   56c3c     H7  199   2.559   0.632   0.681
   56c3c     H8  200   2.539   0.677   0.512
   56c3c     H9  201   2.047   0.720   0.618
   56c3c    H10  202   2.104   0.555   0.635
   56c3c    H11  203   2.152   0.677   0.751
   56c3c    H12  204   2.166   0.568   0.411
   56c3c    H13  205   2.125   0.736   0.401
   56c3c     C7  206   2.313   0.689   0.313
   56c3c    H14  207   2.399   0.624   0.328
   56c3c    H15  208   2.349   0.792   0.315
   56c3c     C8  209   2.255   0.663   0.174
   56c3c    H16  210   2.174   0.732   0.151
   56c3c    H17  211   2.218   0.561   0.164
   56c3c    H18  212   2.332   0.678   0.098
   57c3c      N  213   1.210   2.238   0.371
   57c3c     C1  214   1.248   2.215   0.511
   57c3c     C2  215   1.067   2.270   0.368
   57c3c     C3  216   1.131   2.253   0.598
   57c3c     C4  217   1.012   2.241   0.507
   57c3c     C5  218   1.286   2.354   0.324
   57c3c     C6  219   1.242   2.122   0.286
   57c3c     H1  220   1.333   2.276   0.543
   57c3c     H2  221   1.272   2.112   0.533
   57c3c     H3  222   1.050   2.376   0.348
   57c3c     H4  223   1.012   2.217   0.291
   57c3c     H5  224   1.146   2.357   0.628
   57c3c     H6  225   1.123   2.190   0.687
   57c3c     H7  226   0.936   2.314   0.534
   57c3c     H8  227   0.971   2.140   0.515
   57c3c     H9  228   1.394   2.338   0.326
   57c3c    H10  229   1.257   2.386   0.224
   57c3c    H11  230   1.266   2.437   0.391
   57c3c    H12  231   1.212   2.147   0.184
   57c3c    H13  232   1.349   2.106   0.291
   57c3c     C7  233   1.177   1.988   0.325
   57c3c    H14  234   1.074   2.002   0.358
   57c3c    H15  235   1.233   1.946   0.408
   57c3c     C8  236   1.177   1.885   0.212
   57c3c    H16  237   1.272   1.882   0.159
   57c3c    H17  238   1.098   1.906   0.139
   57c3c    H18  239   1.158   1.786   0.253
   58c3c      N  240   0.622   0.284   1.351
   58c3c     C1  241   0.686   0.361   1.458
   58c3c     C2  242   0.715   0.174   1.320
   58c3c     C3  243   0.838   0.341   1.444
   58c3c     C4  244   0.857   0.226   1.346
   58c3c     C5  245   0.496   0.226   1.400
   58c3c     C6  246   0.586   0.367   1.234
   58c3c     H1  247   0.657   0.324   1.556
   58c3c     H2  248   0.656   0.466   1.457
   58c3c     H3  249   0.700   0.091   1.389
   58c3c     H4  250   0.703   0.135   1.219
   58c3c     H5  251   0.883   0.318   1.541
   58c3c     H6  252   0.889   0.429   1.405
   58c3c     H7  253   0.921   0.149   1.388
   58c3c     H8  254   0.905   0.261   1.255
   58c3c     H9  255   0.421   0.302   1.424
   58c3c    H10  256   0.451   0.159   1.327
   58c3c    H11  257   0.510   0.168   1.491
   58c3c    H12  258   0.534   0.305   1.161
   58c3c    H13  259   0.513   0.442   1.265
   58c3c     C7  260   0.699   0.440   1.160
   58c3c    H14  261   0.768   0.368   1.116
   58c3c    H15  262   0.757   0.502   1.230
   58c3c     C8  263   0.648   0.532   1.049
   58c3c    H16  264   0.595   0.619   1.090
   58c3c    H17  265   0.579   0.479   0.983
   58c3c    H18  266   0.730   0.568   0.988
   59c3c      N  267   1.209   2.191   1.737
   59c3c     C1  268   1.203   2.044   1.745
   59c3c     C2  269   1.348   2.226   1.707
   59c3c     C3  270   1.340   1.997   1.792
   59c3c     C4  271   1.435   2.112   1.761
   59c3c     C5  272   1.121   2.237   1.628
   59c3c     C6  273   1.165   2.257   1.862
   59c3c     H1  274   1.183   1.998   1.649
   59c3c     H2  275   1.125   2.006   1.812
   59c3c     H3  276   1.364   2.233   1.599
   59c3c     H4  277   1.378   2.323   1.745
   59c3c     H5  278   1.371   1.905   1.742
   59c3c     H6  279   1.340   1.976   1.898
   59c3c     H7  280   1.513   2.088   1.689
   59c3c     H8  281   1.487   2.139   1.853
   59c3c     H9  282   1.018   2.203   1.642
   59c3c    H10  283   1.121   2.345   1.617
   59c3c    H11  284   1.150   2.198   1.530
   59c3c    H12  285   1.165   2.365   1.845
   59c3c    H13  286   1.061   2.230   1.879
   59c3c     C7  287   1.244   2.227   1.991
   59c3c    H14  288   1.351   2.244   1.976
   59c3c    H15  289   1.231   2.123   2.020
   59c3c     C8  290   1.205   2.316   2.108
   59c3c    H16  291   1.110   2.287   2.151
   59c3c    H17  292   1.198   2.421   2.080
   59c3c    H18  293   1.281   2.309   2.186
   60c3c      N  294   2.275   1.297   2.180
   60c3c     C1  295   2.392   1.383   2.199
   60c3c     C2  296   2.164   1.371   2.237
   60c3c     C3  297   2.369   1.473   2.320
   60c3c     C4  298   2.223   1.451   2.354
   60c3c     C5  299   2.255   1.279   2.037
   60c3c     C6  300   2.291   1.162   2.237
   60c3c     H1  301   2.406   1.451   2.115
   60c3c     H2  302   2.482   1.322   2.208
   60c3c     H3  303   2.124   1.440   2.163
   60c3c     H4  304   2.081   1.306   2.267
   60c3c     H5  305   2.389   1.577   2.296
   60c3c     H6  306   2.434   1.446   2.403
   60c3c     H7  307   2.170   1.544   2.374
   60c3c     H8  308   2.217   1.391   2.444
   60c3c     H9  309   2.341   1.235   1.988
   60c3c    H10  310   2.170   1.213   2.020
   60c3c    H11  311   2.236   1.374   1.987
   60c3c    H12  312   2.201   1.104   2.215
   60c3c    H13  313   2.373   1.113   2.185
   60c3c     C7  314   2.317   1.148   2.388
   60c3c    H14  315   2.225   1.169   2.443
   60c3c    H15  316   2.392   1.219   2.422
   60c3c     C8  317   2.365   1.007   2.419
   60c3c    H16  318   2.464   0.992   2.374
   60c3c    H17  319   2.299   0.932   2.376
   60c3c    H18  320   2.371   0.989   2.526
   61c3c      N  321   0.274   2.523   0.540
   61c3c     C1  322   0.406   2.491   0.596
   61c3c     C2  323   0.296   2.551   0.397
   61c3c     C3  324   0.511   2.542   0.497
   61c3c     C4  325   0.437   2.607   0.383
   61c3c     C5  326   0.186   2.406   0.552
   61c3c     C6  327   0.212   2.634   0.616
   61c3c     H1  328   0.420   2.383   0.608
   61c3c     H2  329   0.423   2.531   0.696
   61c3c     H3  330   0.296   2.459   0.340
   61c3c     H4  331   0.220   2.616   0.353
   61c3c     H5  332   0.567   2.458   0.456
   61c3c     H6  333   0.580   2.611   0.545
   61c3c     H7  334   0.482   2.581   0.287
   61c3c     H8  335   0.442   2.716   0.392
   61c3c     H9  336   0.177   2.373   0.656
   61c3c    H10  337   0.085   2.425   0.515
   61c3c    H11  338   0.224   2.321   0.497
   61c3c    H12  339   0.113   2.654   0.574
   61c3c    H13  340   0.194   2.599   0.718
   61c3c     C7  341   0.290   2.767   0.625
   61c3c    H14  342   0.304   2.810   0.526
   61c3c    H15  343   0.389   2.752   0.668
   61c3c     C8  344   0.217   2.872   0.710
   61c3c    H16  345   0.201   2.835   0.812
   61c3c    H17  346   0.120   2.897   0.667
   61c3c    H18  347   0.275   2.963   0.717
   62c3c      N  348   2.514   1.826   0.262
   62c3c     C1  349   2.502   1.694   0.326
   62c3c     C2  350   2.530   1.923   0.372
   62c3c     C3  351   2.454   1.718   0.469
   62c3c     C4  352   2.526   1.846   0.504
   62c3c     C5  353   2.636   1.826   0.180
   62c3c     C6  354   2.403   1.859   0.171
   62c3c     H1  355   2.600   1.648   0.337
   62c3c     H2  356   2.440   1.622   0.272
   62c3c     H3  357   2.626   1.975   0.367
   62c3c     H4  358   2.453   2.001   0.371
   62c3c     H5  359   2.481   1.637   0.537
   62c3c     H6  360   2.346   1.732   0.474
   62c3c     H7  361   2.627   1.825   0.537
   62c3c     H8  362   2.477   1.900   0.585
   62c3c     H9  363   2.632   1.750   0.102
   62c3c    H10  364   2.650   1.923   0.131
   62c3c    H11  365   2.725   1.807   0.239
   62c3c    H12  366   2.421   1.956   0.125
   62c3c    H13  367   2.401   1.788   0.089
   62c3c     C7  368   2.262   1.863   0.233
   62c3c    H14  369   2.259   1.936   0.314
   62c3c    H15  370   2.237   1.766   0.275
   62c3c     C8  371   2.153   1.903   0.132
   62c3c    H16  372   2.150   1.835   0.047
   62c3c    H17  373   2.170   2.004   0.095
   62c3c    H18  374   2.055   1.903   0.179
   63c3c      N  375   0.736   1.068   2.757
   63c3c     C1  376   0.602   1.008   2.766
   63c3c     C2  377   0.712   1.213   2.763
   63c3c     C3  378   0.504   1.105   2.703
   63c3c     C4  379   0.563   1.240   2.736
   63c3c     C5  380   0.815   1.025   2.873
   63c3c     C6  381   0.814   1.026   2.639
   63c3c     H1  382   0.572   0.999   2.870
   63c3c     H2  383   0.597   0.909   2.722
   63c3c     H3  384   0.738   1.257   2.860
   63c3c     H4  385   0.771   1.266   2.688
   63c3c     H5  386   0.403   1.095   2.745
   63c3c     H6  387   0.498   1.089   2.596
   63c3c     H7  388   0.516   1.282   2.826
   63c3c     H8  389   0.549   1.311   2.654
   63c3c     H9  390   0.834   0.918   2.872
   63c3c    H10  391   0.913   1.074   2.876
   63c3c    H11  392   0.767   1.048   2.968
   63c3c    H12  393   0.916   1.063   2.648
   63c3c    H13  394   0.824   0.917   2.639
   63c3c     C7  395   0.765   1.069   2.499
   63c3c    H14  396   0.748   1.176   2.493
   63c3c    H15  397   0.671   1.020   2.474
   63c3c     C8  398   0.870   1.034   2.392
   63c3c    H16  399   0.887   0.927   2.385
   63c3c    H17  400   0.966   1.081   2.415
   63c3c    H18  401   0.841   1.070   2.293
   64c3c      N  402   2.799   0.987   2.411
   64c3c     C1  403   2.699   0.893   2.464
   64c3c     C2  404   2.934   0.931   2.430
   64c3c     C3  405   2.774   0.778   2.530
   64c3c     C4  406   2.920   0.793   2.492
   64c3c     C5  407   2.775   0.998   2.268
   64c3c     C6  408   2.784   1.123   2.465
   64c3c     H1  409   2.635   0.852   2.386
   64c3c     H2  410   2.630   0.940   2.534
   64c3c     H3  411   2.990   0.922   2.337
   64c3c     H4  412   2.997   0.994   2.494
   64c3c     H5  413   2.734   0.682   2.498
   64c3c     H6  414   2.763   0.782   2.639
   64c3c     H7  415   2.948   0.716   2.420
   64c3c     H8  416   2.984   0.781   2.579
   64c3c     H9  417   2.681   1.048   2.246
   64c3c    H10  418   2.857   1.055   2.223
   64c3c    H11  419   2.773   0.903   2.215
   64c3c    H12  420   2.854   1.190   2.415
   64c3c    H13  421   2.685   1.163   2.439
   64c3c     C7  422   2.803   1.137   2.617
   64c3c    H14  423   2.905   1.110   2.647
   64c3c    H15  424   2.736   1.071   2.672
   64c3c     C8  425   2.777   1.279   2.665
   64c3c    H16  426   2.677   1.312   2.638
   64c3c    H17  427   2.849   1.347   2.620
   64c3c    H18  428   2.787   1.285   2.773
   65c3c      N  429   0.733   2.817   1.169
   65c3c     C1  430   0.867   2.874   1.188
   65c3c     C2  431   0.733   2.682   1.227
   65c3c     C3  432   0.961   2.759   1.220
   65c3c     C4  433   0.876   2.633   1.222
   65c3c     C5  434   0.637   2.896   1.246
   65c3c     C6  435   0.690   2.818   1.028
   65c3c     H1  436   0.872   2.945   1.271
   65c3c     H2  437   0.902   2.930   1.101
   65c3c     H3  438   0.703   2.681   1.332
   65c3c     H4  439   0.665   2.613   1.177
   65c3c     H5  440   1.010   2.774   1.317
   65c3c     H6  441   1.041   2.752   1.147
   65c3c     H7  442   0.898   2.570   1.308
   65c3c     H8  443   0.892   2.571   1.134
   65c3c     H9  444   0.625   2.997   1.207
   65c3c    H10  445   0.540   2.847   1.245
   65c3c    H11  446   0.666   2.904   1.351
   65c3c    H12  447   0.591   2.774   1.021
   65c3c    H13  448   0.680   2.921   0.993
   65c3c     C7  449   0.782   2.744   0.928
   65c3c    H14  450   0.792   2.641   0.960
   65c3c    H15  451   0.883   2.785   0.928
   65c3c     C8  452   0.728   2.744   0.785
   65c3c    H16  453   0.721   2.845   0.744
   65c3c    H17  454   0.629   2.699   0.781
   65c3c    H18  455   0.792   2.685   0.719
   66c3c      N  456   0.265   0.802   0.681
   66c3c     C1  457   0.411   0.820   0.683
   66c3c     C2  458   0.238   0.661   0.717
   66c3c     C3  459   0.475   0.684   0.718
   66c3c     C4  460   0.366   0.583   0.688
   66c3c     C5  461   0.202   0.890   0.780
   66c3c     C6  462   0.207   0.840   0.550
   66c3c     H1  463   0.443   0.898   0.752
   66c3c     H2  464   0.451   0.853   0.587
   66c3c     H3  465   0.219   0.652   0.824
   66c3c     H4  466   0.150   0.620   0.668
   66c3c     H5  467   0.499   0.678   0.824
   66c3c     H6  468   0.566   0.665   0.662
   66c3c     H7  469   0.376   0.494   0.749
   66c3c     H8  470   0.371   0.553   0.583
   66c3c     H9  471   0.222   0.995   0.761
   66c3c    H10  472   0.093   0.878   0.782
   66c3c    H11  473   0.237   0.868   0.881
   66c3c    H12  474   0.099   0.837   0.555
   66c3c    H13  475   0.232   0.944   0.530
   66c3c     C7  476   0.251   0.754   0.430
   66c3c    H14  477   0.209   0.654   0.437
   66c3c    H15  478   0.359   0.741   0.428
   66c3c     C8  479   0.208   0.817   0.297
   66c3c    H16  480   0.253   0.915   0.283
   66c3c    H17  481   0.100   0.827   0.291
   66c3c    H18  482   0.241   0.755   0.213
   67c3c      N  483   0.579   1.172   0.398
   67c3c     C1  484   0.618   1.312   0.420
   67c3c     C2  485   0.623   1.136   0.263
   67c3c     C3  486   0.635   1.379   0.283
   67c3c     C4  487   0.653   1.264   0.185
   67c3c     C5  488   0.648   1.090   0.497
   67c3c     C6  489   0.434   1.154   0.419
   67c3c     H1  490   0.712   1.321   0.474
   67c3c     H2  491   0.545   1.362   0.483
   67c3c     H3  492   0.714   1.076   0.266
   67c3c     H4  493   0.550   1.075   0.210
   67c3c     H5  494   0.722   1.445   0.283
   67c3c     H6  495   0.548   1.439   0.257
   67c3c     H7  496   0.755   1.263   0.147
   67c3c     H8  497   0.586   1.276   0.100
   67c3c     H9  498   0.610   1.113   0.597
   67c3c    H10  499   0.633   0.983   0.489
   67c3c    H11  500   0.756   1.105   0.497
   67c3c    H12  501   0.409   1.049   0.403
   67c3c    H13  502   0.410   1.175   0.523
   67c3c     C7  503   0.340   1.242   0.333
   67c3c    H14  504   0.347   1.214   0.228
   67c3c    H15  505   0.366   1.347   0.340
   67c3c     C8  506   0.194   1.232   0.379
   67c3c    H16  507   0.183   1.268   0.482
   67c3c    H17  508   0.156   1.130   0.375
   67c3c    H18  509   0.130   1.295   0.317
   68c3c      N  510   1.508   1.586   2.700
   68c3c     C1  511   1.515   1.450   2.753
   68c3c     C2  512   1.625   1.655   2.755
   68c3c     C3  513   1.602   1.450   2.879
   68c3c     C4  514   1.663   1.589   2.887
   68c3c     C5  515   1.521   1.584   2.554
   68c3c     C6  516   1.380   1.654   2.731
   68c3c     H1  517   1.566   1.385   2.682
   68c3c     H2  518   1.417   1.404   2.769
   68c3c     H3  519   1.710   1.638   2.689
   68c3c     H4  520   1.612   1.763   2.763
   68c3c     H5  521   1.681   1.375   2.869
   68c3c     H6  522   1.544   1.427   2.969
   68c3c     H7  523   1.771   1.584   2.898
   68c3c     H8  524   1.623   1.643   2.974
   68c3c     H9  525   1.440   1.533   2.503
   68c3c    H10  526   1.529   1.684   2.512
   68c3c    H11  527   1.611   1.531   2.521
   68c3c    H12  528   1.379   1.751   2.683
   68c3c    H13  529   1.299   1.599   2.682
   68c3c     C7  530   1.345   1.672   2.880
   68c3c    H14  531   1.422   1.730   2.932
   68c3c    H15  532   1.340   1.576   2.930
   68c3c     C8  533   1.211   1.746   2.898
   68c3c    H16  534   1.136   1.712   2.826
   68c3c    H17  535   1.224   1.853   2.884
   68c3c    H18  536   1.170   1.731   2.998
   69c3c      N  537   2.192   0.875   1.112
   69c3c     C1  538   2.287   0.806   1.201
   69c3c     C2  539   2.177   0.797   0.988
   69c3c     C3  540   2.328   0.677   1.133
   69c3c     C4  541   2.291   0.696   0.988
   69c3c     C5  542   2.063   0.870   1.181
   69c3c     C6  543   2.232   1.014   1.086
   69c3c     H1  544   2.249   0.785   1.301
   69c3c     H2  545   2.374   0.870   1.220
   69c3c     H3  546   2.083   0.742   0.985
   69c3c     H4  547   2.175   0.859   0.899
   69c3c     H5  548   2.273   0.594   1.176
   69c3c     H6  549   2.435   0.658   1.145
   69c3c     H7  550   2.260   0.603   0.942
   69c3c     H8  551   2.377   0.736   0.934
   69c3c     H9  552   2.056   0.934   1.269
   69c3c    H10  553   1.978   0.893   1.117
   69c3c    H11  554   2.045   0.769   1.218
   69c3c    H12  555   2.151   1.071   1.041
   69c3c    H13  556   2.256   1.064   1.180
   69c3c     C7  557   2.355   1.039   0.997
   69c3c    H14  558   2.332   1.008   0.895
   69c3c    H15  559   2.441   0.978   1.027
   69c3c     C8  560   2.396   1.186   1.000
   69c3c    H16  561   2.445   1.216   1.093
   69c3c    H17  562   2.311   1.254   0.992
   69c3c    H18  563   2.465   1.207   0.919
   70c3c      N  564   1.480   2.268   2.761
   70c3c     C1  565   1.605   2.196   2.788
   70c3c     C2  566   1.379   2.167   2.729
   70c3c     C3  567   1.599   2.065   2.709
   70c3c     C4  568   1.452   2.043   2.678
   70c3c     C5  569   1.437   2.339   2.882
   70c3c     C6  570   1.494   2.371   2.655
   70c3c     H1  571   1.612   2.170   2.893
   70c3c     H2  572   1.694   2.255   2.766
   70c3c     H3  573   1.324   2.136   2.818
   70c3c     H4  574   1.302   2.203   2.661
   70c3c     H5  575   1.642   1.983   2.767
   70c3c     H6  576   1.655   2.069   2.615
   70c3c     H7  577   1.415   1.954   2.730
   70c3c     H8  578   1.437   2.028   2.571
   70c3c     H9  579   1.512   2.411   2.915
   70c3c    H10  580   1.345   2.394   2.866
   70c3c    H11  581   1.420   2.272   2.966
   70c3c    H12  582   1.400   2.424   2.644
   70c3c    H13  583   1.567   2.445   2.688
   70c3c     C7  584   1.539   2.326   2.515
   70c3c    H14  585   1.476   2.246   2.476
   70c3c    H15  586   1.640   2.286   2.522
   70c3c     C8  587   1.542   2.444   2.416
   70c3c    H16  588   1.617   2.518   2.444
   70c3c    H17  589   1.447   2.495   2.412
   70c3c    H18  590   1.565   2.411   2.314
   71c3c      N  591   1.610   0.245   2.209
   71c3c     C1  592   1.489   0.163   2.204
   71c3c     C2  593   1.562   0.384   2.220
   71c3c     C3  594   1.381   0.246   2.137
   71c3c     C4  595   1.422   0.391   2.160
   71c3c     C5  596   1.684   0.216   2.332
   71c3c     C6  597   1.696   0.220   2.092
   71c3c     H1  598   1.455   0.138   2.304
   71c3c     H2  599   1.504   0.066   2.155
   71c3c     H3  600   1.552   0.415   2.324
   71c3c     H4  601   1.630   0.457   2.177
   71c3c     H5  602   1.284   0.224   2.181
   71c3c     H6  603   1.373   0.226   2.030
   71c3c     H7  604   1.353   0.441   2.227
   71c3c     H8  605   1.422   0.445   2.065
   71c3c     H9  606   1.723   0.114   2.335
   71c3c    H10  607   1.768   0.285   2.346
   71c3c    H11  608   1.622   0.227   2.421
   71c3c    H12  609   1.776   0.294   2.089
   71c3c    H13  610   1.747   0.124   2.102
   71c3c     C7  611   1.632   0.221   1.952
   71c3c    H14  612   1.572   0.311   1.943
   71c3c    H15  613   1.564   0.136   1.940
   71c3c     C8  614   1.734   0.216   1.838
   71c3c    H16  615   1.793   0.125   1.840
   71c3c    H17  616   1.803   0.301   1.843
   71c3c    H18  617   1.685   0.221   1.741
   72c3c      N  618   2.752   2.652   0.781
   72c3c     C1  619   2.660   2.765   0.769
   72c3c     C2  620   2.867   2.703   0.857
   72c3c     C3  621   2.744   2.893   0.768
   72c3c     C4  622   2.879   2.853   0.825
   72c3c     C5  623   2.691   2.543   0.857
   72c3c     C6  624   2.790   2.596   0.649
   72c3c     H1  625   2.597   2.772   0.858
   72c3c     H2  626   2.592   2.756   0.684
   72c3c     H3  627   2.851   2.693   0.964
   72c3c     H4  628   2.958   2.647   0.835
   72c3c     H5  629   2.697   2.970   0.829
   72c3c     H6  630   2.754   2.934   0.667
   72c3c     H7  631   2.904   2.909   0.915
   72c3c     H8  632   2.958   2.872   0.752
   72c3c     H9  633   2.604   2.500   0.809
   72c3c    H10  634   2.762   2.462   0.873
   72c3c    H11  635   2.661   2.574   0.957
   72c3c    H12  636   2.851   2.507   0.666
   72c3c    H13  637   2.698   2.559   0.602
   72c3c     C7  638   2.865   2.685   0.549
   72c3c    H14  639   2.960   2.717   0.592
   72c3c    H15  640   2.806   2.774   0.525
   72c3c     C8  641   2.895   2.614   0.417
   72c3c    H16  642   2.805   2.605   0.356
   72c3c    H17  643   2.935   2.514   0.434
   72c3c    H18  644   2.968   2.669   0.358
   73c3c      N  645   1.254   1.919   2.312
   73c3c     C1  646   1.253   1.820   2.419
   73c3c     C2  647   1.177   1.864   2.199
   73c3c     C3  648   1.235   1.686   2.351
   73c3c     C4  649   1.145   1.719   2.236
   73c3c     C5  650   1.186   2.037   2.364
   73c3c     C6  651   1.389   1.963   2.271
   73c3c     H1  652   1.167   1.830   2.485
   73c3c     H2  653   1.342   1.825   2.482
   73c3c     H3  654   1.084   1.917   2.179
   73c3c     H4  655   1.233   1.866   2.105
   73c3c     H5  656   1.191   1.611   2.418
   73c3c     H6  657   1.330   1.646   2.316
   73c3c     H7  658   1.044   1.711   2.274
   73c3c     H8  659   1.155   1.652   2.150
   73c3c     H9  660   1.238   2.075   2.452
   73c3c    H10  661   1.177   2.116   2.290
   73c3c    H11  662   1.085   2.015   2.399
   73c3c    H12  663   1.380   2.031   2.187
   73c3c    H13  664   1.435   2.021   2.351
   73c3c     C7  665   1.489   1.852   2.234
   73c3c    H14  666   1.452   1.793   2.150
   73c3c    H15  667   1.503   1.782   2.316
   73c3c     C8  668   1.628   1.909   2.202
   73c3c    H16  669   1.671   1.963   2.286
   73c3c    H17  670   1.622   1.976   2.116
   73c3c    H18  671   1.697   1.829   2.176
   74c3c      N  672   2.655   2.777   2.671
   74c3c     C1  673   2.652   2.744   2.528
   74c3c     C2  674   2.790   2.833   2.693
   74c3c     C3  675   2.795   2.712   2.483
   74c3c     C4  676   2.884   2.761   2.596
   74c3c     C5  677   2.554   2.879   2.699
   74c3c     C6  678   2.622   2.663   2.759
   74c3c     H1  679   2.619   2.829   2.468
   74c3c     H2  680   2.583   2.663   2.507
   74c3c     H3  681   2.792   2.939   2.667
   74c3c     H4  682   2.823   2.825   2.797
   74c3c     H5  683   2.819   2.762   2.390
   74c3c     H6  684   2.810   2.605   2.467
   74c3c     H7  685   2.963   2.826   2.560
   74c3c     H8  686   2.932   2.676   2.644
   74c3c     H9  687   2.453   2.842   2.680
   74c3c    H10  688   2.557   2.911   2.803
   74c3c    H11  689   2.567   2.968   2.638
   74c3c    H12  690   2.615   2.698   2.862
   74c3c    H13  691   2.522   2.626   2.735
   74c3c     C7  692   2.716   2.540   2.761
   74c3c    H14  693   2.816   2.569   2.794
   74c3c    H15  694   2.726   2.497   2.662
   74c3c     C8  695   2.665   2.433   2.858
   74c3c    H16  696   2.568   2.394   2.828
   74c3c    H17  697   2.655   2.471   2.959
   74c3c    H18  698   2.735   2.349   2.862
   75c3c      N  699   1.799   2.729   0.461
   75c3c     C1  700   1.834   2.851   0.387
   75c3c     C2  701   1.913   2.704   0.551
   75c3c     C3  702   1.986   2.869   0.392
   75c3c     C4  703   2.037   2.757   0.480
   75c3c     C5  704   1.681   2.753   0.545
   75c3c     C6  705   1.766   2.619   0.367
   75c3c     H1  706   1.785   2.939   0.431
   75c3c     H2  707   1.800   2.848   0.284
   75c3c     H3  708   1.902   2.761   0.644
   75c3c     H4  709   1.924   2.601   0.583
   75c3c     H5  710   2.012   2.965   0.436
   75c3c     H6  711   2.030   2.863   0.293
   75c3c     H7  712   2.112   2.793   0.551
   75c3c     H8  713   2.084   2.679   0.421
   75c3c     H9  714   1.598   2.791   0.486
   75c3c    H10  715   1.647   2.662   0.594
   75c3c    H11  716   1.697   2.827   0.624
   75c3c    H12  717   1.731   2.531   0.421
   75c3c    H13  718   1.678   2.648   0.310
   75c3c     C7  719   1.873   2.573   0.265
   75c3c    H14  720   1.965   2.545   0.315
   75c3c    H15  721   1.898   2.653   0.196
   75c3c     C8  722   1.827   2.450   0.185
   75c3c    H16  723   1.736   2.470   0.129
   75c3c    H17  724   1.808   2.366   0.252
   75c3c    H18  725   1.904   2.418   0.116
   76c3c      N  726   2.764   2.790   1.384
   76c3c     C1  727   2.745   2.837   1.523
   76c3c     C2  728   2.649   2.835   1.303
   76c3c     C3  729   2.628   2.935   1.522
   76c3c     C4  730   2.548   2.900   1.398
   76c3c     C5  731   2.886   2.853   1.329
   76c3c     C6  732   2.786   2.644   1.374
   76c3c     H1  733   2.834   2.882   1.566
   76c3c     H2  734   2.720   2.756   1.591
   76c3c     H3  735   2.677   2.908   1.228
   76c3c     H4  736   2.602   2.753   1.248
   76c3c     H5  737   2.664   3.038   1.516
   76c3c     H6  738   2.568   2.927   1.613
   76c3c     H7  739   2.500   2.988   1.355
   76c3c     H8  740   2.468   2.828   1.419
   76c3c     H9  741   2.975   2.823   1.385
   76c3c    H10  742   2.903   2.824   1.226
   76c3c    H11  743   2.881   2.961   1.334
   76c3c    H12  744   2.800   2.615   1.270
   76c3c    H13  745   2.880   2.618   1.423
   76c3c     C7  746   2.678   2.551   1.434
   76c3c    H14  747   2.578   2.571   1.395
   76c3c    H15  748   2.669   2.562   1.542
   76c3c     C8  749   2.715   2.405   1.409
   76c3c    H16  750   2.822   2.388   1.418
   76c3c    H17  751   2.684   2.372   1.310
   76c3c    H18  752   2.668   2.341   1.483
   77c3c      N  753   2.786   0.476   1.344
   77c3c     C1  754   2.923   0.483   1.290
   77c3c     C2  755   2.716   0.597   1.296
   77c3c     C3  756   2.950   0.628   1.252
   77c3c     C4  757   2.824   0.704   1.281
   77c3c     C5  758   2.721   0.356   1.290
   77c3c     C6  759   2.782   0.461   1.490
   77c3c     H1  760   2.935   0.424   1.199
   77c3c     H2  761   2.998   0.446   1.361
   77c3c     H3  762   2.672   0.582   1.198
   77c3c     H4  763   2.636   0.629   1.362
   77c3c     H5  764   2.969   0.635   1.144
   77c3c     H6  765   3.035   0.672   1.305
   77c3c     H7  766   2.802   0.773   1.200
   77c3c     H8  767   2.838   0.764   1.372
   77c3c     H9  768   2.774   0.265   1.320
   77c3c    H10  769   2.619   0.345   1.325
   77c3c    H11  770   2.717   0.359   1.181
   77c3c    H12  771   2.678   0.453   1.522
   77c3c    H13  772   2.831   0.368   1.520
   77c3c     C7  773   2.843   0.572   1.574
   77c3c    H14  774   2.789   0.665   1.556
   77c3c    H15  775   2.947   0.586   1.544
   77c3c     C8  776   2.839   0.543   1.725
   77c3c    H16  777   2.894   0.453   1.750
   77c3c    H17  778   2.736   0.531   1.760
   77c3c    H18  779   2.883   0.625   1.782
   78c3c      N  780   1.376   1.005   0.591
   78c3c     C1  781   1.495   0.926   0.623
   78c3c     C2  782   1.266   0.910   0.571
   78c3c     C3  783   1.476   0.788   0.561
   78c3c     C4  784   1.327   0.772   0.542
   78c3c     C5  785   1.340   1.092   0.705
   78c3c     C6  786   1.405   1.092   0.477
   78c3c     H1  787   1.502   0.918   0.732
   78c3c     H2  788   1.589   0.971   0.591
   78c3c     H3  789   1.204   0.900   0.660
   78c3c     H4  790   1.198   0.941   0.491
   78c3c     H5  791   1.519   0.708   0.621
   78c3c     H6  792   1.522   0.780   0.462
   78c3c     H7  793   1.288   0.698   0.612
   78c3c     H8  794   1.306   0.739   0.441
   78c3c     H9  795   1.421   1.160   0.732
   78c3c    H10  796   1.252   1.153   0.685
   78c3c    H11  797   1.317   1.035   0.795
   78c3c    H12  798   1.329   1.170   0.468
   78c3c    H13  799   1.498   1.145   0.496
   78c3c     C7  800   1.423   1.027   0.340
   78c3c    H14  801   1.335   0.970   0.310
   78c3c    H15  802   1.507   0.958   0.343
   78c3c     C8  803   1.454   1.134   0.235
   78c3c    H16  804   1.549   1.183   0.256
   78c3c    H17  805   1.377   1.210   0.227
   78c3c    H18  806   1.465   1.086   0.138
   79c3c      N  807   1.843   1.484   1.553
   79c3c     C1  808   1.880   1.410   1.432
   79c3c     C2  809   1.909   1.616   1.550
   79c3c     C3  810   1.956   1.505   1.341
   79c3c     C4  811   1.985   1.632   1.420
   79c3c     C5  812   1.697   1.498   1.550
   79c3c     C6  813   1.879   1.415   1.677
   79c3c     H1  814   1.795   1.368   1.379
   79c3c     H2  815   1.937   1.320   1.455
   79c3c     H3  816   1.835   1.695   1.566
   79c3c     H4  817   1.979   1.634   1.631
   79c3c     H5  818   1.899   1.529   1.251
   79c3c     H6  819   2.049   1.457   1.310
   79c3c     H7  820   1.955   1.723   1.368
   79c3c     H8  821   2.091   1.645   1.440
   79c3c     H9  822   1.646   1.402   1.557
   79c3c    H10  823   1.659   1.560   1.630
   79c3c    H11  824   1.664   1.544   1.456
   79c3c    H12  825   1.840   1.469   1.763
   79c3c    H13  826   1.830   1.317   1.677
   79c3c     C7  827   2.029   1.396   1.697
   79c3c    H14  828   2.076   1.487   1.734
   79c3c    H15  829   2.077   1.372   1.601
   79c3c     C8  830   2.065   1.286   1.792
   79c3c    H16  831   2.021   1.190   1.764
   79c3c    H17  832   2.028   1.314   1.891
   79c3c    H18  833   2.173   1.272   1.792
   80c3c      N  834   2.573   0.328   0.870
   80c3c     C1  835   2.582   0.211   0.959
   80c3c     C2  836   2.501   0.430   0.947
   80c3c     C3  837   2.459   0.214   1.051
   80c3c     C4  838   2.412   0.359   1.049
   80c3c     C5  839   2.706   0.380   0.839
   80c3c     C6  840   2.508   0.296   0.741
   80c3c     H1  841   2.670   0.217   1.022
   80c3c     H2  842   2.591   0.117   0.905
   80c3c     H3  843   2.570   0.492   1.005
   80c3c     H4  844   2.447   0.500   0.883
   80c3c     H5  845   2.483   0.182   1.152
   80c3c     H6  846   2.379   0.149   1.016
   80c3c     H7  847   2.428   0.405   1.146
   80c3c     H8  848   2.306   0.366   1.025
   80c3c     H9  849   2.768   0.309   0.785
   80c3c    H10  850   2.701   0.470   0.778
   80c3c    H11  851   2.762   0.409   0.928
   80c3c    H12  852   2.511   0.385   0.677
   80c3c    H13  853   2.569   0.223   0.688
   80c3c     C7  854   2.363   0.243   0.744
   80c3c    H14  855   2.296   0.314   0.794
   80c3c    H15  856   2.358   0.150   0.799
   80c3c     C8  857   2.308   0.215   0.604
   80c3c    H16  858   2.375   0.152   0.546
   80c3c    H17  859   2.291   0.307   0.547
   80c3c    H18  860   2.212   0.163   0.610
   81c3c      N  861   0.285   1.556   0.826
   81c3c     C1  862   0.359   1.554   0.953
   81c3c     C2  863   0.244   1.418   0.794
   81c3c     C3  864   0.346   1.414   1.011
   81c3c     C4  865   0.322   1.327   0.888
   81c3c     C5  866   0.165   1.637   0.844
   81c3c     C6  867   0.361   1.619   0.716
   81c3c     H1  868   0.326   1.629   1.025
   81c3c     H2  869   0.464   1.577   0.938
   81c3c     H3  870   0.138   1.402   0.813
   81c3c     H4  871   0.259   1.391   0.689
   81c3c     H5  872   0.261   1.408   1.079
   81c3c     H6  873   0.435   1.383   1.065
   81c3c     H7  874   0.267   1.237   0.912
   81c3c     H8  875   0.418   1.299   0.844
   81c3c     H9  876   0.191   1.741   0.863
   81c3c    H10  877   0.099   1.636   0.757
   81c3c    H11  878   0.107   1.603   0.929
   81c3c    H12  879   0.297   1.624   0.628
   81c3c    H13  880   0.384   1.723   0.742
   81c3c     C7  881   0.494   1.553   0.676
   81c3c    H14  882   0.484   1.444   0.670
   81c3c    H15  883   0.571   1.571   0.751
   81c3c     C8  884   0.543   1.608   0.541
   81c3c    H16  885   0.540   1.717   0.538
   81c3c    H17  886   0.481   1.573   0.459
   81c3c    H18  887   0.646   1.576   0.522
   82c3c      N  888   2.129   0.330   2.150
   82c3c     C1  889   2.142   0.476   2.132
   82c3c     C2  890   2.254   0.282   2.209
   82c3c     C3  891   2.285   0.514   2.171
   82c3c     C4  892   2.361   0.385   2.173
   82c3c     C5  893   2.019   0.296   2.241
   82c3c     C6  894   2.094   0.262   2.024
   82c3c     H1  895   2.071   0.532   2.194
   82c3c     H2  896   2.119   0.508   2.031
   82c3c     H3  897   2.248   0.280   2.318
   82c3c     H4  898   2.279   0.180   2.178
   82c3c     H5  899   2.285   0.564   2.268
   82c3c     H6  900   2.334   0.581   2.100
   82c3c     H7  901   2.442   0.390   2.246
   82c3c     H8  902   2.407   0.366   2.076
   82c3c     H9  903   1.929   0.351   2.212
   82c3c    H10  904   1.995   0.190   2.243
   82c3c    H11  905   2.037   0.323   2.345
   82c3c    H12  906   2.075   0.156   2.043
   82c3c    H13  907   2.001   0.302   1.986
   82c3c     C7  908   2.197   0.268   1.910
   82c3c    H14  909   2.298   0.244   1.943
   82c3c    H15  910   2.200   0.368   1.866
   82c3c     C8  911   2.161   0.164   1.805
   82c3c    H16  912   2.054   0.161   1.787
   82c3c    H17  913   2.191   0.064   1.836
   82c3c    H18  914   2.211   0.187   1.711
   83c3c      N  915   0.607   2.577   2.515
   83c3c     C1  916   0.550   2.443   2.500
   83c3c     C2  917   0.502   2.671   2.474
   83c3c     C3  918   0.433   2.450   2.403
   83c3c     C4  919   0.414   2.598   2.372
   83c3c     C5  920   0.636   2.595   2.657
   83c3c     C6  921   0.733   2.593   2.440
   83c3c     H1  922   0.512   2.405   2.594
   83c3c     H2  923   0.626   2.372   2.467
   83c3c     H3  924   0.438   2.697   2.558
   83c3c     H4  925   0.541   2.765   2.436
   83c3c     H5  926   0.343   2.408   2.448
   83c3c     H6  927   0.455   2.391   2.314
   83c3c     H7  928   0.309   2.627   2.382
   83c3c     H8  929   0.443   2.620   2.270
   83c3c     H9  930   0.709   2.523   2.693
   83c3c    H10  931   0.675   2.695   2.675
   83c3c    H11  932   0.548   2.582   2.720
   83c3c    H12  933   0.775   2.691   2.463
   83c3c    H13  934   0.806   2.523   2.480
   83c3c     C7  935   0.725   2.575   2.287
   83c3c    H14  936   0.653   2.644   2.243
   83c3c    H15  937   0.694   2.474   2.262
   83c3c     C8  938   0.859   2.605   2.218
   83c3c    H16  939   0.937   2.536   2.250
   83c3c    H17  940   0.893   2.706   2.239
   83c3c    H18  941   0.850   2.595   2.110
   84c3c      N  942   1.706   0.568   1.394
   84c3c     C1  943   1.649   0.700   1.366
   84c3c     C2  944   1.804   0.592   1.501
   84c3c     C3  945   1.756   0.804   1.397
   84c3c     C4  946   1.825   0.743   1.515
   84c3c     C5  947   1.600   0.477   1.439
   84c3c     C6  948   1.764   0.503   1.274
   84c3c     H1  949   1.569   0.721   1.436
   84c3c     H2  950   1.609   0.708   1.265
   84c3c     H3  951   1.767   0.551   1.596
   84c3c     H4  952   1.900   0.542   1.486
   84c3c     H5  953   1.714   0.902   1.420
   84c3c     H6  954   1.825   0.818   1.314
   84c3c     H7  955   1.777   0.779   1.606
   84c3c     H8  956   1.930   0.772   1.519
   84c3c     H9  957   1.538   0.441   1.357
   84c3c    H10  958   1.641   0.388   1.488
   84c3c    H11  959   1.533   0.522   1.511
   84c3c    H12  960   1.791   0.400   1.299
   84c3c    H13  961   1.689   0.494   1.196
   84c3c     C7  962   1.887   0.570   1.212
   84c3c    H14  963   1.958   0.599   1.289
   84c3c    H15  964   1.854   0.660   1.160
   84c3c     C8  965   1.963   0.479   1.115
   84c3c    H16  966   1.894   0.418   1.057
   84c3c    H17  967   2.031   0.411   1.167
   84c3c    H18  968   2.023   0.537   1.045
   85c3c      N  969   0.654   2.004   1.975
   85c3c     C1  970   0.766   1.909   1.961
   85c3c     C2  971   0.600   2.014   1.839
   85c3c     C3  972   0.825   1.929   1.822
   85c3c     C4  973   0.719   2.004   1.744
   85c3c     C5  974   0.552   1.949   2.063
   85c3c     C6  975   0.692   2.133   2.036
   85c3c     H1  976   0.729   1.807   1.968
   85c3c     H2  977   0.844   1.920   2.036
   85c3c     H3  978   0.536   1.928   1.818
   85c3c     H4  979   0.539   2.102   1.822
   85c3c     H5  980   0.854   1.833   1.779
   85c3c     H6  981   0.916   1.990   1.826
   85c3c     H7  982   0.691   1.955   1.651
   85c3c     H8  983   0.759   2.102   1.717
   85c3c     H9  984   0.593   1.928   2.162
   85c3c    H10  985   0.471   2.020   2.081
   85c3c    H11  986   0.508   1.856   2.025
   85c3c    H12  987   0.616   2.208   2.012
   85c3c    H13  988   0.688   2.127   2.145
   85c3c     C7  989   0.832   2.189   2.004
   85c3c    H14  990   0.845   2.193   1.896
   85c3c    H15  991   0.911   2.125   2.044
   85c3c     C8  992   0.851   2.327   2.063
   85c3c    H16  993   0.859   2.322   2.172
   85c3c    H17  994   0.766   2.392   2.039
   85c3c    H18  995   0.940   2.376   2.025
   86c3c      N  996   2.211   2.821   1.052
   86c3c     C1  997   2.111   2.749   0.970
   86c3c     C2  998   2.279   2.912   0.958
   86c3c     C3  999   2.141   2.772   0.823
   86c3c     C4 1000   2.274   2.843   0.821
   86c3c     C5 1001   2.145   2.901   1.157
   86c3c     C6 1002   2.303   2.730   1.124
   86c3c     H1 1003   2.010   2.785   0.987
   86c3c     H2 1004   2.109   2.642   0.991
   86c3c     H3 1005   2.222   3.004   0.949
   86c3c     H4 1006   2.380   2.938   0.990
   86c3c     H5 1007   2.064   2.837   0.781
   86c3c     H6 1008   2.143   2.679   0.767
   86c3c     H7 1009   2.281   2.913   0.738
   86c3c     H8 1010   2.354   2.770   0.809
   86c3c     H9 1011   2.096   2.838   1.232
   86c3c    H10 1012   2.216   2.963   1.212
   86c3c    H11 1013   2.068   2.966   1.118
   86c3c    H12 1014   2.374   2.786   1.184
   86c3c    H13 1015   2.246   2.672   1.196
   86c3c     C7 1016   2.382   2.630   1.038
   86c3c    H14 1017   2.460   2.683   0.983
   86c3c    H15 1018   2.319   2.584   0.962
   86c3c     C8 1019   2.449   2.518   1.119
   86c3c    H16 1020   2.378   2.462   1.179
   86c3c    H17 1021   2.528   2.556   1.184
   86c3c    H18 1022   2.496   2.447   1.051
   87c3c      N 1023   0.528   1.005   1.197
   87c3c     C1 1024   0.449   0.891   1.242
   87c3c     C2 1025   0.435   1.108   1.147
   87c3c     C3 1026   0.322   0.893   1.160
   87c3c     C4 1027   0.300   1.039   1.127
   87c3c     C5 1028   0.600   1.056   1.312
   87c3c     C6 1029   0.634   0.970   1.101
   87c3c     H1 1030   0.418   0.905   1.345
   87c3c     H2 1031   0.501   0.795   1.237
   87c3c     H3 1032   0.421   1.189   1.219
   87c3c     H4 1033   0.473   1.155   1.057
   87c3c     H5 1034   0.238   0.852   1.217
   87c3c     H6 1035   0.334   0.835   1.069
   87c3c     H7 1036   0.225   1.081   1.195
   87c3c     H8 1037   0.262   1.050   1.025
   87c3c     H9 1038   0.659   0.977   1.358
   87c3c    H10 1039   0.668   1.137   1.287
   87c3c    H11 1040   0.533   1.094   1.390
   87c3c    H12 1041   0.692   1.059   1.081
   87c3c    H13 1042   0.701   0.897   1.147
   87c3c     C7 1043   0.597   0.915   0.965
   87c3c    H14 1044   0.548   0.994   0.908
   87c3c    H15 1045   0.528   0.831   0.973
   87c3c     C8 1046   0.724   0.869   0.891
   87c3c    H16 1047   0.761   0.774   0.930
   87c3c    H17 1048   0.806   0.940   0.907
   87c3c    H18 1049   0.708   0.858   0.784
   88c3c      N 1050   1.888   2.035   1.066
   88c3c     C1 1051   1.751   2.002   1.026
   88c3c     C2 1052   1.960   1.909   1.086
   88c3c     C3 1053   1.723   1.858   1.071
   88c3c     C4 1054   1.858   1.795   1.092
   88c3c     C5 1055   1.952   2.108   0.958
   88c3c     C6 1056   1.890   2.125   1.184
   88c3c     H1 1057   1.740   2.008   0.918
   88c3c     H2 1058   1.676   2.070   1.066
   88c3c     H3 1059   2.030   1.889   1.005
   88c3c     H4 1060   2.021   1.913   1.177
   88c3c     H5 1061   1.662   1.802   1.000
   88c3c     H6 1062   1.666   1.855   1.163
   88c3c     H7 1063   1.878   1.718   1.017
   88c3c     H8 1064   1.858   1.745   1.189
   88c3c     H9 1065   1.901   2.202   0.937
   88c3c    H10 1066   2.055   2.135   0.982
   88c3c    H11 1067   1.955   2.050   0.865
   88c3c    H12 1068   1.991   2.163   1.200
   88c3c    H13 1069   1.828   2.211   1.160
   88c3c     C7 1070   1.836   2.061   1.312
   88c3c    H14 1071   1.897   1.975   1.342
   88c3c    H15 1072   1.737   2.025   1.283
   88c3c     C8 1073   1.810   2.149   1.433
   88c3c    H16 1074   1.758   2.241   1.407
   88c3c    H17 1075   1.903   2.174   1.484
   88c3c    H18 1076   1.748   2.096   1.505
   89c3c      N 1077   2.233   2.146   1.897
   89c3c     C1 1078   2.232   2.291   1.876
   89c3c     C2 1079   2.269   2.125   2.037
   89c3c     C3 1080   2.323   2.353   1.981
   89c3c     C4 1081   2.307   2.260   2.098
   89c3c     C5 1082   2.099   2.096   1.868
   89c3c     C6 1083   2.325   2.070   1.811
   89c3c     H1 1084   2.132   2.331   1.893
   89c3c     H2 1085   2.262   2.321   1.776
   89c3c     H3 1086   2.187   2.079   2.093
   89c3c     H4 1087   2.352   2.055   2.049
   89c3c     H5 1088   2.293   2.455   2.006
   89c3c     H6 1089   2.426   2.355   1.946
   89c3c     H7 1090   2.229   2.298   2.163
   89c3c     H8 1091   2.400   2.252   2.154
   89c3c     H9 1092   2.053   2.140   1.779
   89c3c    H10 1093   2.100   1.988   1.850
   89c3c    H11 1094   2.027   2.113   1.949
   89c3c    H12 1095   2.331   1.967   1.848
   89c3c    H13 1096   2.287   2.056   1.710
   89c3c     C7 1097   2.467   2.125   1.798
   89c3c    H14 1098   2.511   2.147   1.895
   89c3c    H15 1099   2.467   2.218   1.742
   89c3c     C8 1100   2.554   2.022   1.727
   89c3c    H16 1101   2.505   1.981   1.639
   89c3c    H17 1102   2.574   1.937   1.792
   89c3c    H18 1103   2.648   2.066   1.696
   90c3c      N 1104   1.545   2.693   1.610
   90c3c     C1 1105   1.657   2.782   1.639
   90c3c     C2 1106   1.435   2.782   1.574
   90c3c     C3 1107   1.601   2.914   1.692
   90c3c     C4 1108   1.456   2.916   1.645
   90c3c     C5 1109   1.580   2.607   1.495
   90c3c     C6 1110   1.511   2.603   1.722
   90c3c     H1 1111   1.711   2.807   1.548
   90c3c     H2 1112   1.731   2.737   1.706
   90c3c     H3 1113   1.434   2.805   1.467
   90c3c     H4 1114   1.339   2.736   1.594
   90c3c     H5 1115   1.656   2.999   1.651
   90c3c     H6 1116   1.607   2.921   1.800
   90c3c     H7 1117   1.438   2.998   1.576
   90c3c     H8 1118   1.388   2.928   1.730
   90c3c     H9 1119   1.682   2.567   1.497
   90c3c    H10 1120   1.517   2.518   1.484
   90c3c    H11 1121   1.574   2.661   1.401
   90c3c    H12 1122   1.432   2.535   1.691
   90c3c    H13 1123   1.599   2.541   1.739
   90c3c     C7 1124   1.471   2.666   1.856
   90c3c    H14 1125   1.382   2.728   1.844
   90c3c    H15 1126   1.551   2.730   1.892
   90c3c     C8 1127   1.442   2.562   1.965
   90c3c    H16 1128   1.533   2.509   1.994
   90c3c    H17 1129   1.369   2.488   1.931
   90c3c    H18 1130   1.403   2.609   2.055
   91c3c      N 1131   1.980   1.489   0.267
   91c3c     C1 1132   1.837   1.477   0.299
   91c3c     C2 1133   2.024   1.356   0.225
   91c3c     C3 1134   1.814   1.332   0.338
   91c3c     C4 1135   1.913   1.257   0.251
   91c3c     C5 1136   1.993   1.585   0.156
   91c3c     C6 1137   2.061   1.541   0.378
   91c3c     H1 1138   1.775   1.495   0.211
   91c3c     H2 1139   1.805   1.549   0.375
   91c3c     H3 1140   2.054   1.350   0.120
   91c3c     H4 1141   2.111   1.325   0.283
   91c3c     H5 1142   1.712   1.299   0.319
   91c3c     H6 1143   1.831   1.320   0.445
   91c3c     H7 1144   1.865   1.227   0.158
   91c3c     H8 1145   1.951   1.167   0.299
   91c3c     H9 1146   1.954   1.683   0.184
   91c3c    H10 1147   2.097   1.599   0.128
   91c3c    H11 1148   1.938   1.554   0.068
   91c3c    H12 1149   2.164   1.556   0.346
   91c3c    H13 1150   2.022   1.640   0.401
   91c3c     C7 1151   2.066   1.463   0.511
   91c3c    H14 1152   2.106   1.363   0.493
   91c3c    H15 1153   1.966   1.446   0.551
   91c3c     C8 1154   2.151   1.535   0.617
   91c3c    H16 1155   2.118   1.637   0.637
   91c3c    H17 1156   2.255   1.544   0.586
   91c3c    H18 1157   2.149   1.484   0.714
   92c3c      N 1158   0.639   0.613   2.401
   92c3c     C1 1159   0.573   0.506   2.477
   92c3c     C2 1160   0.569   0.734   2.445
   92c3c     C3 1161   0.425   0.547   2.492
   92c3c     C4 1162   0.422   0.697   2.466
   92c3c     C5 1163   0.781   0.627   2.436
   92c3c     C6 1164   0.638   0.589   2.254
   92c3c     H1 1165   0.615   0.498   2.577
   92c3c     H2 1166   0.583   0.407   2.434
   92c3c     H3 1167   0.606   0.763   2.543
   92c3c     H4 1168   0.585   0.820   2.380
   92c3c     H5 1169   0.388   0.523   2.592
   92c3c     H6 1170   0.361   0.494   2.422
   92c3c     H7 1171   0.378   0.752   2.549
   92c3c     H8 1172   0.360   0.720   2.379
   92c3c     H9 1173   0.840   0.541   2.404
   92c3c    H10 1174   0.826   0.714   2.388
   92c3c    H11 1175   0.798   0.636   2.543
   92c3c    H12 1176   0.686   0.674   2.205
   92c3c    H13 1177   0.703   0.504   2.234
   92c3c     C7 1178   0.505   0.555   2.184
   92c3c    H14 1179   0.431   0.634   2.199
   92c3c    H15 1180   0.462   0.463   2.224
   92c3c     C8 1181   0.527   0.536   2.034
   92c3c    H16 1182   0.572   0.440   2.012
   92c3c    H17 1183   0.593   0.612   1.992
   92c3c    H18 1184   0.432   0.541   1.981
   93c3c      N 1185   1.818   0.248   0.559
   93c3c     C1 1186   1.877   0.366   0.494
   93c3c     C2 1187   1.686   0.289   0.610
   93c3c     C3 1188   1.822   0.487   0.568
   93c3c     C4 1189   1.691   0.440   0.628
   93c3c     C5 1190   1.800   0.144   0.457
   93c3c     C6 1191   1.901   0.190   0.667
   93c3c     H1 1192   1.842   0.376   0.391
   93c3c     H2 1193   1.986   0.365   0.490
   93c3c     H3 1194   1.606   0.265   0.539
   93c3c     H4 1195   1.658   0.238   0.702
   93c3c     H5 1196   1.808   0.572   0.502
   93c3c     H6 1197   1.889   0.518   0.648
   93c3c     H7 1198   1.605   0.489   0.583
   93c3c     H8 1199   1.692   0.461   0.735
   93c3c     H9 1200   1.894   0.109   0.416
   93c3c    H10 1201   1.745   0.059   0.498
   93c3c    H11 1202   1.742   0.181   0.373
   93c3c    H12 1203   1.849   0.103   0.707
   93c3c    H13 1204   1.992   0.151   0.622
   93c3c     C7 1205   1.941   0.281   0.785
   93c3c    H14 1206   1.853   0.324   0.833
   93c3c    H15 1207   2.003   0.364   0.751
   93c3c     C8 1208   2.020   0.203   0.891
   93c3c    H16 1209   2.105   0.150   0.847
   93c3c    H17 1210   1.957   0.129   0.941
   93c3c    H18 1211   2.059   0.269   0.968
   94c3c      N 1212   2.760   2.141   2.169
   94c3c     C1 1213   2.667   2.037   2.119
   94c3c     C2 1214   2.891   2.116   2.107
   94c3c     C3 1215   2.741   1.972   2.004
   94c3c     C4 1216   2.884   1.974   2.053
   94c3c     C5 1217   2.713   2.272   2.121
   94c3c     C6 1218   2.768   2.140   2.316
   94c3c     H1 1219   2.569   2.076   2.090
   94c3c     H2 1220   2.644   1.960   2.193
   94c3c     H3 1221   2.907   2.180   2.021
   94c3c     H4 1222   2.976   2.132   2.173
   94c3c     H5 1223   2.734   2.033   1.914
   94c3c     H6 1224   2.704   1.872   1.981
   94c3c     H7 1225   2.958   1.960   1.973
   94c3c     H8 1226   2.901   1.899   2.129
   94c3c     H9 1227   2.615   2.297   2.162
   94c3c    H10 1228   2.782   2.351   2.150
   94c3c    H11 1229   2.703   2.275   2.013
   94c3c    H12 1230   2.829   2.225   2.347
   94c3c    H13 1231   2.669   2.156   2.358
   94c3c     C7 1232   2.827   2.013   2.382
   94c3c    H14 1233   2.925   1.987   2.342
   94c3c    H15 1234   2.763   1.926   2.364
   94c3c     C8 1235   2.839   2.031   2.533
   94c3c    H16 1236   2.742   2.054   2.576
   94c3c    H17 1237   2.909   2.111   2.558
   94c3c    H18 1238   2.875   1.940   2.581
   95c3c      N 1239   0.736   1.947   1.215
   95c3c     C1 1240   0.597   1.899   1.203
   95c3c     C2 1241   0.813   1.880   1.110
   95c3c     C3 1242   0.592   1.806   1.083
   95c3c     C4 1243   0.734   1.756   1.072
   95c3c     C5 1244   0.737   2.091   1.193
   95c3c     C6 1245   0.790   1.922   1.350
   95c3c     H1 1246   0.525   1.980   1.191
   95c3c     H2 1247   0.565   1.844   1.292
   95c3c     H3 1248   0.823   1.942   1.021
   95c3c     H4 1249   0.916   1.858   1.138
   95c3c     H5 1250   0.562   1.860   0.993
   95c3c     H6 1251   0.521   1.724   1.098
   95c3c     H7 1252   0.758   1.718   0.973
   95c3c     H8 1253   0.751   1.676   1.144
   95c3c     H9 1254   0.668   2.143   1.260
   95c3c    H10 1255   0.837   2.132   1.211
   95c3c    H11 1256   0.709   2.118   1.092
   95c3c    H12 1257   0.886   1.972   1.362
   95c3c    H13 1258   0.723   1.967   1.424
   95c3c     C7 1259   0.812   1.774   1.385
   95c3c    H14 1260   0.894   1.732   1.326
   95c3c    H15 1261   0.725   1.714   1.358
   95c3c     C8 1262   0.842   1.751   1.531
   95c3c    H16 1263   0.752   1.758   1.592
   95c3c    H17 1264   0.919   1.820   1.567
   95c3c    H18 1265   0.880   1.650   1.546
   96c3c      N 1266   1.311   0.827   2.232
   96c3c     C1 1267   1.355   0.778   2.101
   96c3c     C2 1268   1.326   0.973   2.226
   96c3c     C3 1269   1.465   0.873   2.055
   96c3c     C4 1270   1.416   1.006   2.108
   96c3c     C5 1271   1.169   0.796   2.254
   96c3c     C6 1272   1.386   0.764   2.343
   96c3c     H1 1273   1.276   0.786   2.027
   96c3c     H2 1274   1.388   0.674   2.103
   96c3c     H3 1275   1.233   1.027   2.212
   96c3c     H4 1276   1.369   1.014   2.318
   96c3c     H5 1277   1.476   0.872   1.947
   96c3c     H6 1278   1.564   0.849   2.096
   96c3c     H7 1279   1.355   1.052   2.030
   96c3c     H8 1280   1.497   1.075   2.133
   96c3c     H9 1281   1.152   0.689   2.259
   96c3c    H10 1282   1.134   0.840   2.347
   96c3c    H11 1283   1.107   0.836   2.174
   96c3c    H12 1284   1.347   0.803   2.437
   96c3c    H13 1285   1.361   0.658   2.341
   96c3c     C7 1286   1.540   0.776   2.343
   96c3c    H14 1287   1.570   0.878   2.320
   96c3c    H15 1288   1.584   0.714   2.266
   96c3c     C8 1289   1.605   0.740   2.478
   96c3c    H16 1290   1.634   0.635   2.480
   96c3c    H17 1291   1.539   0.757   2.563
   96c3c    H18 1292   1.695   0.799   2.495
   97c3c      N 1293   1.036   1.324   1.945
   97c3c     C1 1294   0.894   1.294   1.928
   97c3c     C2 1295   1.106   1.197   1.924
   97c3c     C3 1296   0.874   1.152   1.979
   97c3c     C4 1297   1.012   1.088   1.974
   97c3c     C5 1298   1.079   1.423   1.847
   97c3c     C6 1299   1.062   1.380   2.078
   97c3c     H1 1300   0.868   1.299   1.822
   97c3c     H2 1301   0.832   1.367   1.979
   97c3c     H3 1302   1.121   1.179   1.818
   97c3c     H4 1303   1.206   1.195   1.967
   97c3c     H5 1304   0.804   1.097   1.917
   97c3c     H6 1305   0.833   1.149   2.080
   97c3c     H7 1306   1.011   1.008   1.900
   97c3c     H8 1307   1.042   1.046   2.070
   97c3c     H9 1308   1.017   1.512   1.847
   97c3c    H10 1309   1.181   1.459   1.864
   97c3c    H11 1310   1.077   1.383   1.745
   97c3c    H12 1311   1.170   1.373   2.090
   97c3c    H13 1312   1.041   1.486   2.075
   97c3c     C7 1313   0.997   1.317   2.202
   97c3c    H14 1314   1.031   1.215   2.215
   97c3c    H15 1315   0.888   1.318   2.196
   97c3c     C8 1316   1.033   1.395   2.326
   97c3c    H16 1317   0.987   1.494   2.328
   97c3c    H17 1318   1.141   1.410   2.327
   97c3c    H18 1319   1.002   1.343   2.417
   98c3c      N 1320   2.238   1.405   2.851
   98c3c     C1 1321   2.269   1.448   2.714
   98c3c     C2 1322   2.363   1.425   2.926
   98c3c     C3 1323   2.421   1.464   2.700
   98c3c     C4 1324   2.478   1.409   2.828
   98c3c     C5 1325   2.133   1.489   2.908
   98c3c     C6 1326   2.186   1.267   2.857
   98c3c     H1 1327   2.218   1.539   2.685
   98c3c     H2 1328   2.235   1.372   2.644
   98c3c     H3 1329   2.369   1.525   2.968
   98c3c     H4 1330   2.373   1.354   3.008
   98c3c     H5 1331   2.448   1.569   2.689
   98c3c     H6 1332   2.461   1.409   2.614
   98c3c     H7 1333   2.567   1.463   2.861
   98c3c     H8 1334   2.506   1.304   2.817
   98c3c     H9 1335   2.039   1.478   2.853
   98c3c    H10 1336   2.113   1.461   3.012
   98c3c    H11 1337   2.158   1.595   2.907
   98c3c    H12 1338   2.159   1.240   2.959
   98c3c    H13 1339   2.092   1.264   2.802
   98c3c     C7 1340   2.276   1.155   2.801
   98c3c    H14 1341   2.357   1.136   2.872
   98c3c    H15 1342   2.321   1.184   2.706
   98c3c     C8 1343   2.197   1.026   2.777
   98c3c    H16 1344   2.122   1.044   2.699
   98c3c    H17 1345   2.146   0.996   2.869
   98c3c    H18 1346   2.253   0.938   2.744
   99c3c      N 1347   2.313   0.836   1.884
   99c3c     C1 1348   2.354   0.706   1.827
   99c3c     C2 1349   2.170   0.848   1.856
   99c3c     C3 1350   2.253   0.670   1.717
   99c3c     C4 1351   2.143   0.773   1.725
   99c3c     C5 1352   2.333   0.843   2.029
   99c3c     C6 1353   2.392   0.946   1.828
   99c3c     H1 1354   2.349   0.625   1.900
   99c3c     H2 1355   2.456   0.706   1.789
   99c3c     H3 1356   2.108   0.800   1.932
   99c3c     H4 1357   2.137   0.952   1.853
   99c3c     H5 1358   2.210   0.572   1.737
   99c3c     H6 1359   2.298   0.669   1.618
   99c3c     H7 1360   2.046   0.725   1.725
   99c3c     H8 1361   2.145   0.840   1.639
   99c3c     H9 1362   2.437   0.824   2.057
   99c3c    H10 1363   2.304   0.941   2.066
   99c3c    H11 1364   2.268   0.775   2.083
   99c3c    H12 1365   2.369   1.039   1.880
   99c3c    H13 1366   2.497   0.926   1.847
   99c3c     C7 1367   2.375   0.975   1.680
   99c3c    H14 1368   2.274   1.013   1.663
   99c3c    H15 1369   2.390   0.886   1.618
   99c3c     C8 1370   2.473   1.080   1.638
   99c3c    H16 1371   2.574   1.046   1.661
   99c3c    H17 1372   2.454   1.175   1.688
   99c3c    H18 1373   2.469   1.098   1.530
  100c3c      N 1374   1.980   2.303   2.506
  100c3c     C1 1375   1.880   2.213   2.448
  100c3c     C2 1376   2.111   2.267   2.449
  100c3c     C3 1377   1.949   2.094   2.385
  100c3c     C4 1378   2.096   2.130   2.381
  100c3c     C5 1379   1.943   2.440   2.468
  100c3c     C6 1380   1.983   2.300   2.654
  100c3c     H1 1381   1.819   2.261   2.371
  100c3c     H2 1382   1.812   2.175   2.524
  100c3c     H3 1383   2.143   2.339   2.373
  100c3c     H4 1384   2.191   2.264   2.522
  100c3c     H5 1385   1.910   2.068   2.287
  100c3c     H6 1386   1.934   2.005   2.448
  100c3c     H7 1387   2.129   2.136   2.277
  100c3c     H8 1388   2.156   2.052   2.427
  100c3c     H9 1389   1.841   2.465   2.498
  100c3c    H10 1390   2.007   2.515   2.515
  100c3c    H11 1391   1.950   2.457   2.361
  100c3c    H12 1392   2.062   2.367   2.689
  100c3c    H13 1393   1.890   2.342   2.693
  100c3c     C7 1394   2.006   2.163   2.720
  100c3c    H14 1395   2.104   2.122   2.693
  100c3c    H15 1396   1.932   2.091   2.686
  100c3c     C8 1397   1.997   2.172   2.873
  100c3c    H16 1398   1.900   2.210   2.906
  100c3c    H17 1399   2.073   2.239   2.912
  100c3c    H18 1400   2.012   2.075   2.919
  101fsi     F1 1401   1.013   2.943   2.130
  101fsi     S1 1402   0.993   2.864   1.996
  101fsi      N 1403   0.839   2.834   1.999
  101fsi     O1 1404   1.040   2.953   1.894
  101fsi     O2 1405   1.073   2.746   2.013
  101fsi     S2 1406   0.715   2.918   1.951
  101fsi     O3 1407   0.747   3.045   1.894
  101fsi     O4 1408   0.614   2.912   2.053
  101fsi     F2 1409   0.656   2.835   1.831
  102fsi     F1 1410   2.835   1.571   1.161
  102fsi     S1 1411   2.954   1.602   1.065
  102fsi      N 1412   2.891   1.704   0.965
  102fsi     O1 1413   3.056   1.656   1.150
  102fsi     O2 1414   2.980   1.472   1.010
  102fsi     S2 1415   2.819   1.839   1.000
  102fsi     O3 1416   2.848   1.890   1.131
  102fsi     O4 1417   2.681   1.841   0.962
  102fsi     F2 1418   2.884   1.944   0.906
  103fsi     F1 1419   1.008   1.099   0.502
  103fsi     S1 1420   1.046   1.217   0.407
  103fsi      N 1421   1.126   1.147   0.292
  103fsi     O1 1422   0.922   1.273   0.362
  103fsi     O2 1423   1.128   1.303   0.487
  103fsi     S2 1424   1.067   1.050   0.184
  103fsi     O3 1425   0.951   0.977   0.227
  103fsi     O4 1426   1.168   0.977   0.112
  103fsi     F2 1427   1.012   1.149   0.077
  104fsi     F1 1428   0.734   1.306   1.134
  104fsi     S1 1429   0.789   1.392   1.016
  104fsi      N 1430   0.855   1.284   0.924
  104fsi     O1 1431   0.673   1.453   0.958
  104fsi     O2 1432   0.886   1.478   1.075
  104fsi     S2 1433   0.793   1.223   0.796
  104fsi     O3 1434   0.651   1.206   0.804
  104fsi     O4 1435   0.870   1.114   0.742
  104fsi     F2 1436   0.815   1.338   0.690
  105fsi     F1 1437   1.013   2.377   2.419
  105fsi     S1 1438   1.153   2.430   2.465
  105fsi      N 1439   1.184   2.547   2.365
  105fsi     O1 1440   1.135   2.466   2.603
  105fsi     O2 1441   1.240   2.319   2.439
  105fsi     S2 1442   1.170   2.701   2.388
  105fsi     O3 1443   1.044   2.741   2.444
  105fsi     O4 1444   1.218   2.776   2.275
  105fsi     F2 1445   1.278   2.731   2.499
  106fsi     F1 1446   2.324   2.555   1.768
  106fsi     S1 1447   2.369   2.703   1.755
  106fsi      N 1448   2.470   2.714   1.874
  106fsi     O1 1449   2.427   2.709   1.625
  106fsi     O2 1450   2.247   2.776   1.778
  106fsi     S2 1451   2.595   2.624   1.899
  106fsi     O3 1452   2.605   2.509   1.813
  106fsi     O4 1453   2.613   2.602   2.040
  106fsi     F2 1454   2.716   2.716   1.858
  107fsi     F1 1455   0.119   1.736   0.190
  107fsi     S1 1456   0.229   1.771   0.297
  107fsi      N 1457   0.161   1.887   0.378
  107fsi     O1 1458   0.248   1.647   0.368
  107fsi     O2 1459   0.339   1.817   0.216
  107fsi     S2 1460   0.083   1.880   0.514
  107fsi     O3 1461   0.009   1.759   0.535
  107fsi     O4 1462   0.019   2.006   0.543
  107fsi     F2 1463   0.199   1.871   0.620
  108fsi     F1 1464   1.194   0.763   2.916
  108fsi     S1 1465   1.281   0.835   2.807
  108fsi      N 1466   1.274   0.986   2.851
  108fsi     O1 1467   1.411   0.772   2.820
  108fsi     O2 1468   1.208   0.812   2.685
  108fsi     S2 1469   1.375   1.070   2.937
  108fsi     O3 1470   1.470   0.991   3.008
  108fsi     O4 1471   1.308   1.178   3.004
  108fsi     F2 1472   1.463   1.145   2.834
  109fsi     F1 1473   2.223   1.801   1.146
  109fsi     S1 1474   2.264   1.670   1.072
  109fsi      N 1475   2.418   1.665   1.102
  109fsi     O1 1476   2.187   1.567   1.136
  109fsi     O2 1477   2.231   1.695   0.935
  109fsi     S2 1478   2.490   1.657   1.240
  109fsi     O3 1479   2.405   1.659   1.356
  109fsi     O4 1480   2.609   1.737   1.249
  109fsi     F2 1481   2.547   1.510   1.238
  110fsi     F1 1482   2.534   2.661   0.423
  110fsi     S1 1483   2.377   2.648   0.429
  110fsi      N 1484   2.330   2.775   0.348
  110fsi     O1 1485   2.348   2.522   0.365
  110fsi     O2 1486   2.348   2.662   0.569
  110fsi     S2 1487   2.327   2.795   0.193
  110fsi     O3 1488   2.436   2.734   0.122
  110fsi     O4 1489   2.293   2.930   0.158
  110fsi     F2 1490   2.200   2.713   0.147
  111fsi     F1 1491   1.088   1.699   1.186
  111fsi     S1 1492   1.178   1.794   1.272
  111fsi      N 1493   1.141   1.755   1.420
  111fsi     O1 1494   1.311   1.760   1.232
  111fsi     O2 1495   1.128   1.924   1.237
  111fsi     S2 1496   1.206   1.650   1.516
  111fsi     O3 1497   1.284   1.547   1.451
  111fsi     O4 1498   1.116   1.610   1.620
  111fsi     F2 1499   1.309   1.734   1.594
  112fsi     F1 1500   0.127   2.860   1.870
  112fsi     S1 1501   0.265   2.873   1.944
  112fsi      N 1502   0.231   2.963   2.068
  112fsi     O1 1503   0.298   2.737   1.975
  112fsi     O2 1504   0.347   2.943   1.849
  112fsi     S2 1505   0.189   2.920   2.213
  112fsi     O3 1506   0.115   2.796   2.222
  112fsi     O4 1507   0.138   3.034   2.283
  112fsi     F2 1508   0.326   2.890   2.283
  113fsi     F1 1509   0.751   0.342   0.850
  113fsi     S1 1510   0.752   0.193   0.804
  113fsi      N 1511   0.600   0.163   0.780
  113fsi     O1 1512   0.833   0.197   0.685
  113fsi     O2 1513   0.806   0.125   0.919
  113fsi     S2 1514   0.516   0.183   0.649
  113fsi     O3 1515   0.556   0.294   0.567
  113fsi     O4 1516   0.375   0.165   0.666
  113fsi     F2 1517   0.557   0.059   0.561
  114fsi     F1 1518   2.009   0.691   2.776
  114fsi     S1 1519   1.913   0.719   2.896
  114fsi      N 1520   1.924   0.874   2.915
  114fsi     O1 1521   1.782   0.676   2.855
  114fsi     O2 1522   1.975   0.644   3.002
  114fsi     S2 1523   1.863   0.988   2.824
  114fsi     O3 1524   1.884   0.966   2.684
  114fsi     O4 1525   1.888   1.119   2.878
  114fsi     F2 1526   1.709   0.971   2.841
  115fsi     F1 1527   0.683   1.981   2.695
  115fsi     S1 1528   0.744   2.040   2.825
  115fsi      N 1529   0.896   2.002   2.811
  115fsi     O1 1530   0.714   2.180   2.822
  115fsi     O2 1531   0.682   1.958   2.926
  115fsi     S2 1532   1.004   2.076   2.723
  115fsi     O3 1533   0.954   2.152   2.613
  115fsi     O4 1534   1.117   1.991   2.697
  115fsi     F2 1535   1.062   2.183   2.823
  116fsi     F1 1536   1.802   3.059   1.446
  116fsi     S1 1537   1.768   3.198   1.381
  116fsi      N 1538   1.822   3.300   1.487
  116fsi     O1 1539   1.840   3.201   1.257
  116fsi     O2 1540   1.625   3.201   1.376
  116fsi     S2 1541   1.970   3.338   1.517
  116fsi     O3 1542   2.062   3.228   1.506
  116fsi     O4 1543   1.980   3.427   1.629
  116fsi     F2 1544   2.008   3.430   1.396
  117fsi     F1 1545   0.887   2.383   1.762
  117fsi     S1 1546   0.742   2.431   1.732
  117fsi      N 1547   0.746   2.453   1.577
  117fsi     O1 1548   0.656   2.326   1.778
  117fsi     O2 1549   0.735   2.555   1.803
  117fsi     S2 1550   0.748   2.341   1.466
  117fsi     O3 1551   0.695   2.215   1.506
  117fsi     O4 1552   0.872   2.339   1.394
  117fsi     F2 1553   0.643   2.395   1.361
  118fsi     F1 1554   1.459   1.208   1.564
  118fsi     S1 1555   1.314   1.175   1.512
  118fsi      N 1556   1.304   1.019   1.519
  118fsi     O1 1557   1.226   1.239   1.605
  118fsi     O2 1558   1.317   1.226   1.378
  118fsi     S2 1559   1.373   0.932   1.629
  118fsi     O3 1560   1.330   0.960   1.764
  118fsi     O4 1561   1.511   0.915   1.599
  118fsi     F2 1562   1.314   0.789   1.605
  119fsi     F1 1563   2.775   1.425   1.877
  119fsi     S1 1564   2.645   1.356   1.821
  119fsi      N 1565   2.675   1.204   1.835
  119fsi     O1 1566   2.539   1.399   1.906
  119fsi     O2 1567   2.641   1.400   1.685
  119fsi     S2 1568   2.707   1.133   1.970
  119fsi     O3 1569   2.812   1.199   2.043
  119fsi     O4 1570   2.709   0.989   1.963
  119fsi     F2 1571   2.578   1.158   2.054
  120fsi     F1 1572   2.065   0.519   2.462
  120fsi     S1 1573   1.923   0.583   2.474
  120fsi      N 1574   1.960   0.735   2.490
  120fsi     O1 1575   1.858   0.549   2.351
  120fsi     O2 1576   1.872   0.521   2.593
  120fsi     S2 1577   2.003   0.836   2.377
  120fsi     O3 1578   2.084   0.775   2.274
  120fsi     O4 1579   2.050   0.961   2.430
  120fsi     F2 1580   1.867   0.871   2.308
  121fsi     F1 1581   2.652   0.666   2.837
  121fsi     S1 1582   2.613   0.803   2.904
  121fsi      N 1583   2.740   0.837   2.990
  121fsi     O1 1584   2.594   0.892   2.793
  121fsi     O2 1585   2.495   0.771   2.979
  121fsi     S2 1586   2.870   0.913   2.949
  121fsi     O3 1587   2.905   0.900   2.810
  121fsi     O4 1588   2.980   0.892   3.039
  121fsi     F2 1589   2.833   1.065   2.966
  122fsi     F1 1590   0.692   2.005   0.841
  122fsi     S1 1591   0.656   1.938   0.706
  122fsi      N 1592   0.506   1.974   0.688
  122fsi     O1 1593   0.742   2.002   0.610
  122fsi     O2 1594   0.680   1.800   0.734
  122fsi     S2 1595   0.443   2.083   0.593
  122fsi     O3 1596   0.535   2.178   0.537
  122fsi     O4 1597   0.319   2.134   0.643
  122fsi     F2 1598   0.404   1.998   0.469
  123fsi     F1 1599   1.463   0.465   0.149
  123fsi     S1 1600   1.563   0.399   0.251
  123fsi      N 1601   1.469   0.318   0.346
  123fsi     O1 1602   1.653   0.322   0.170
  123fsi     O2 1603   1.619   0.510   0.323
  123fsi     S2 1604   1.402   0.180   0.323
  123fsi     O3 1605   1.355   0.161   0.188
  123fsi     O4 1606   1.315   0.148   0.432
  123fsi     F2 1607   1.520   0.079   0.340
  124fsi     F1 1608   0.904   2.362   0.115
  124fsi     S1 1609   0.758   2.327   0.162
  124fsi      N 1610   0.744   2.177   0.116
  124fsi     O1 1611   0.763   2.344   0.305
  124fsi     O2 1612   0.675   2.417   0.088
  124fsi     S2 1613   0.732   2.048   0.205
  124fsi     O3 1614   0.799   2.060   0.332
  124fsi     O4 1615   0.755   1.926   0.132
  124fsi     F2 1616   0.579   2.045   0.241
  125fsi     F1 1617   1.365   1.460   0.879
  125fsi     S1 1618   1.420   1.585   0.955
  125fsi      N 1619   1.461   1.526   1.093
  125fsi     O1 1620   1.529   1.627   0.872
  125fsi     O2 1621   1.308   1.673   0.959
  125fsi     S2 1622   1.602   1.482   1.142
  125fsi     O3 1623   1.704   1.476   1.041
  125fsi     O4 1624   1.591   1.377   1.239
  125fsi     F2 1625   1.647   1.604   1.226
  126fsi     F1 1626   0.262   2.059   0.927
  126fsi     S1 1627   0.122   2.009   0.976
  126fsi      N 1628   0.161   1.895   1.075
  126fsi     O1 1629   0.066   2.123   1.042
  126fsi     O2 1630   0.061   1.959   0.857
  126fsi     S2 1631   0.225   1.913   1.215
  126fsi     O3 1632   0.288   2.040   1.237
  126fsi     O4 1633   0.294   1.793   1.250
  126fsi     F2 1634   0.102   1.912   1.313
  127fsi     F1 1635   1.424   2.622   0.437
  127fsi     S1 1636   1.322   2.731   0.389
  127fsi      N 1637   1.416   2.844   0.334
  127fsi     O1 1638   1.246   2.663   0.288
  127fsi     O2 1639   1.253   2.768   0.511
  127fsi     S2 1640   1.484   2.851   0.192
  127fsi     O3 1641   1.510   2.721   0.134
  127fsi     O4 1642   1.592   2.945   0.188
  127fsi     F2 1643   1.372   2.916   0.103
  128fsi     F1 1644   2.907   1.723   2.882
  128fsi     S1 1645   2.885   1.582   2.816
  128fsi      N 1646   2.760   1.607   2.724
  128fsi     O1 1647   3.010   1.561   2.748
  128fsi     O2 1648   2.855   1.497   2.927
  128fsi     S2 1649   2.752   1.654   2.574
  128fsi     O3 1650   2.878   1.690   2.516
  128fsi     O4 1651   2.640   1.740   2.548
  128fsi     F2 1652   2.712   1.522   2.499
  129fsi     F1 1653   1.722   0.630   0.072
  129fsi     S1 1654   1.641   0.762   0.097
  129fsi      N 1655   1.656   0.787   0.249
  129fsi     O1 1656   1.708   0.861   0.019
  129fsi     O2 1657   1.508   0.728   0.055
  129fsi     S2 1658   1.782   0.843   0.320
  129fsi     O3 1659   1.907   0.807   0.258
  129fsi     O4 1660   1.771   0.827   0.462
  129fsi     F2 1661   1.768   0.998   0.300
  130fsi     F1 1662   2.678   1.105   0.645
  130fsi     S1 1663   2.798   1.043   0.725
  130fsi      N 1664   2.726   0.946   0.827
  130fsi     O1 1665   2.878   0.976   0.625
  130fsi     O2 1666   2.858   1.156   0.790
  130fsi     S2 1667   2.754   0.794   0.858
  130fsi     O3 1668   2.808   0.715   0.751
  130fsi     O4 1669   2.649   0.732   0.935
  130fsi     F2 1670   2.873   0.803   0.961
  131fsi     F1 1671   2.914   1.262   1.661
  131fsi     S1 1672   2.878   1.180   1.534
  131fsi      N 1673   2.944   1.040   1.553
  131fsi     O1 1674   2.736   1.178   1.530
  131fsi     O2 1675   2.941   1.255   1.430
  131fsi     S2 1676   2.923   0.933   1.664
  131fsi     O3 1677   2.945   0.977   1.798
  131fsi     O4 1678   2.995   0.814   1.628
  131fsi     F2 1679   2.772   0.892   1.657
  132fsi     F1 1680   2.384   1.109   0.693
  132fsi     S1 1681   2.272   1.209   0.650
  132fsi      N 1682   2.180   1.121   0.560
  132fsi     O1 1683   2.206   1.247   0.771
  132fsi     O2 1684   2.343   1.307   0.575
  132fsi     S2 1685   2.047   1.048   0.595
  132fsi     O3 1686   2.018   1.025   0.734
  132fsi     O4 1687   2.026   0.938   0.506
  132fsi     F2 1688   1.939   1.150   0.552
  133fsi     F1 1689   0.290   2.099   2.862
  133fsi     S1 1690   0.196   2.102   2.736
  133fsi      N 1691   0.286   2.164   2.623
  133fsi     O1 1692   0.154   1.965   2.720
  133fsi     O2 1693   0.093   2.196   2.771
  133fsi     S2 1694   0.402   2.093   2.542
  133fsi     O3 1695   0.407   1.952   2.559
  133fsi     O4 1696   0.526   2.163   2.548
  133fsi     F2 1697   0.356   2.113   2.393
  134fsi     F1 1698   1.002   2.768   2.971
  134fsi     S1 1699   0.897   2.667   2.910
  134fsi      N 1700   0.762   2.721   2.971
  134fsi     O1 1701   0.910   2.683   2.768
  134fsi     O2 1702   0.937   2.541   2.965
  134fsi     S2 1703   0.676   2.846   2.930
  134fsi     O3 1704   0.721   2.917   2.814
  134fsi     O4 1705   0.642   2.930   3.042
  134fsi     F2 1706   0.538   2.785   2.886
  135fsi     F1 1707   1.422   0.518   2.515
  135fsi     S1 1708   1.372   0.414   2.618
  135fsi      N 1709   1.281   0.324   2.528
  135fsi     O1 1710   1.494   0.358   2.667
  135fsi     O2 1711   1.300   0.493   2.714
  135fsi     S2 1712   1.282   0.168   2.516
  135fsi     O3 1713   1.409   0.109   2.546
  135fsi     O4 1714   1.216   0.121   2.397
  135fsi     F2 1715   1.186   0.126   2.632
  136fsi     F1 1716   1.250   2.494   0.835
  136fsi     S1 1717   1.096   2.494   0.863
  136fsi      N 1718   1.064   2.343   0.890
  136fsi     O1 1719   1.078   2.580   0.975
  136fsi     O2 1720   1.040   2.545   0.740
  136fsi     S2 1721   1.038   2.261   1.023
  136fsi     O3 1722   1.139   2.272   1.123
  136fsi     O4 1723   0.987   2.130   0.995
  136fsi     F2 1724   0.914   2.333   1.088
  137fsi     F1 1725   1.638   1.835   0.401
  137fsi     S1 1726   1.576   1.814   0.258
  137fsi      N 1727   1.554   1.961   0.204
  137fsi     O1 1728   1.674   1.739   0.185
  137fsi     O2 1729   1.451   1.748   0.286
  137fsi     S2 1730   1.664   2.059   0.148
  137fsi     O3 1731   1.797   2.041   0.197
  137fsi     O4 1732   1.613   2.193   0.139
  137fsi     F2 1733   1.672   2.015  -0.002
  138fsi     F1 1734   1.749   2.559   0.830
  138fsi     S1 1735   1.683   2.431   0.766
  138fsi      N 1736   1.762   2.419   0.631
  138fsi     O1 1737   1.709   2.328   0.862
  138fsi     O2 1738   1.547   2.471   0.742
  138fsi     S2 1739   1.866   2.314   0.579
  138fsi     O3 1740   1.913   2.218   0.674
  138fsi     O4 1741   1.969   2.371   0.497
  138fsi     F2 1742   1.784   2.230   0.475
  139fsi     F1 1743   2.195   1.671   2.172
  139fsi     S1 1744   2.268   1.755   2.065
  139fsi      N 1745   2.313   1.648   1.958
  139fsi     O1 1746   2.164   1.842   2.023
  139fsi     O2 1747   2.379   1.813   2.136
  139fsi     S2 1748   2.312   1.657   1.802
  139fsi     O3 1749   2.219   1.748   1.741
  139fsi     O4 1750   2.328   1.531   1.736
  139fsi     F2 1751   2.449   1.725   1.772
  140fsi     F1 1752   0.082   2.615   0.966
  140fsi     S1 1753   0.075   2.465   1.011
  140fsi      N 1754   0.215   2.444   1.078
  140fsi     O1 1755  -0.039   2.461   1.099
  140fsi     O2 1756   0.064   2.395   0.886
  140fsi     S2 1757   0.265   2.488   1.221
  140fsi     O3 1758   0.164   2.546   1.305
  140fsi     O4 1759   0.396   2.547   1.220
  140fsi     F2 1760   0.290   2.348   1.284
  141fsi     F1 1761   1.647   2.337   1.830
  141fsi     S1 1762   1.762   2.243   1.876
  141fsi      N 1763   1.872   2.342   1.929
  141fsi     O1 1764   1.700   2.168   1.982
  141fsi     O2 1765   1.800   2.174   1.756
  141fsi     S2 1766   1.901   2.383   2.077
  141fsi     O3 1767   1.783   2.397   2.158
  141fsi     O4 1768   2.007   2.479   2.091
  141fsi     F2 1769   1.967   2.254   2.133
  142fsi     F1 1770   0.206   2.337   1.536
  142fsi     S1 1771   0.347   2.305   1.596
  142fsi      N 1772   0.422   2.442   1.580
  142fsi     O1 1773   0.317   2.270   1.732
  142fsi     O2 1774   0.395   2.200   1.511
  142fsi     S2 1775   0.394   2.575   1.656
  142fsi     O3 1776   0.255   2.607   1.673
  142fsi     O4 1777   0.484   2.681   1.618
  142fsi     F2 1778   0.442   2.542   1.801
  143fsi     F1 1779   0.590   0.540   2.959
  143fsi     S1 1780   0.599   0.669   2.870
  143fsi      N 1781   0.456   0.682   2.805
  143fsi     O1 1782   0.632   0.774   2.961
  143fsi     O2 1783   0.698   0.639   2.771
  143fsi     S2 1784   0.321   0.730   2.871
  143fsi     O3 1785   0.294   0.683   3.004
  143fsi     O4 1786   0.209   0.725   2.782
  143fsi     F2 1787   0.342   0.884   2.890
  144fsi     F1 1788   0.420   1.202   2.400
  144fsi     S1 1789   0.503   1.269   2.285
  144fsi      N 1790   0.595   1.151   2.239
  144fsi     O1 1791   0.403   1.309   2.189
  144fsi     O2 1792   0.577   1.370   2.355
  144fsi     S2 1793   0.550   1.021   2.168
  144fsi     O3 1794   0.432   0.958   2.222
  144fsi     O4 1795   0.658   0.931   2.139
  144fsi     F2 1796   0.504   1.070   2.029
  145fsi     F1 1797   0.212   2.483   2.188
  145fsi     S1 1798   0.283   2.405   2.071
  145fsi      N 1799   0.267   2.256   2.116
  145fsi     O1 1800   0.204   2.444   1.957
  145fsi     O2 1801   0.419   2.449   2.075
  145fsi     S2 1802   0.183   2.142   2.050
  145fsi     O3 1803   0.077   2.187   1.963
  145fsi     O4 1804   0.152   2.035   2.139
  145fsi     F2 1805   0.288   2.080   1.952
  146fsi     F1 1806   0.235   0.226   1.124
  146fsi     S1 1807   0.230   0.298   0.984
  146fsi      N 1808   0.154   0.429   1.021
  146fsi     O1 1809   0.368   0.315   0.947
  146fsi     O2 1810   0.145   0.212   0.907
  146fsi     S2 1811   0.208   0.548   1.107
  146fsi     O3 1812   0.247   0.510   1.240
  146fsi     O4 1813   0.127   0.664   1.090
  146fsi     F2 1814   0.342   0.588   1.037
  147fsi     F1 1815   1.751   1.619   2.341
  147fsi     S1 1816   1.842   1.504   2.285
  147fsi      N 1817   1.928   1.464   2.410
  147fsi     O1 1818   1.752   1.401   2.244
  147fsi     O2 1819   1.918   1.571   2.184
  147fsi     S2 1820   1.902   1.349   2.515
  147fsi     O3 1821   1.804   1.386   2.613
  147fsi     O4 1822   2.024   1.292   2.565
  147fsi     F2 1823   1.842   1.230   2.434
  148fsi     F1 1824   1.582   1.319   0.840
  148fsi     S1 1825   1.664   1.317   0.708
  148fsi      N 1826   1.557   1.352   0.599
  148fsi     O1 1827   1.769   1.413   0.729
  148fsi     O2 1828   1.704   1.179   0.701
  148fsi     S2 1829   1.506   1.486   0.535
  148fsi     O3 1830   1.558   1.609   0.588
  148fsi     O4 1831   1.365   1.480   0.507
  148fsi     F2 1832   1.564   1.481   0.391
  149fsi     F1 1833   2.429   0.479   1.398
  149fsi     S1 1834   2.347   0.355   1.448
  149fsi      N 1835   2.457   0.259   1.504
  149fsi     O1 1836   2.260   0.413   1.546
  149fsi     O2 1837   2.289   0.305   1.327
  149fsi     S2 1838   2.526   0.258   1.645
  149fsi     O3 1839   2.502   0.377   1.723
  149fsi     O4 1840   2.661   0.210   1.635
  149fsi     F2 1841   2.453   0.143   1.723
  150fsi     F1 1842   2.598   0.891   1.173
  150fsi     S1 1843   2.622   0.992   1.289
  150fsi      N 1844   2.759   1.055   1.247
  150fsi     O1 1845   2.511   1.082   1.283
  150fsi     O2 1846   2.629   0.906   1.404
  150fsi     S2 1847   2.783   1.180   1.155
  150fsi     O3 1848   2.702   1.187   1.037
  150fsi     O4 1849   2.923   1.210   1.138
  150fsi     F2 1850   2.732   1.299   1.242
  151fsi     F1 1851   1.510   2.176   1.409
  151fsi     S1 1852   1.422   2.061   1.349
  151fsi      N 1853   1.522   1.944   1.334
  151fsi     O1 1854   1.322   2.038   1.449
  151fsi     O2 1855   1.382   2.114   1.223
  151fsi     S2 1856   1.584   1.848   1.440
  151fsi     O3 1857   1.563   1.887   1.576
  151fsi     O4 1858   1.717   1.811   1.405
  151fsi     F2 1859   1.506   1.716   1.423
  152fsi     F1 1860   1.953   1.710   1.864
  152fsi     S1 1861   1.862   1.832   1.824
  152fsi      N 1862   1.729   1.763   1.781
  152fsi     O1 1863   1.854   1.911   1.943
  152fsi     O2 1864   1.928   1.889   1.710
  152fsi     S2 1865   1.616   1.710   1.874
  152fsi     O3 1866   1.667   1.647   1.991
  152fsi     O4 1867   1.508   1.648   1.803
  152fsi     F2 1868   1.551   1.843   1.925
  153fsi     F1 1869   2.683   0.005   2.279
  153fsi     S1 1870   2.590   0.121   2.226
  153fsi      N 1871   2.690   0.219   2.155
  153fsi     O1 1872   2.498   0.055   2.138
  153fsi     O2 1873   2.535   0.177   2.347
  153fsi     S2 1874   2.773   0.198   2.022
  153fsi     O3 1875   2.762   0.067   1.964
  153fsi     O4 1876   2.903   0.257   2.029
  153fsi     F2 1877   2.696   0.289   1.922
  154fsi     F1 1878   1.258   1.196   2.671
  154fsi     S1 1879   1.282   1.256   2.531
  154fsi      N 1880   1.437   1.248   2.517
  154fsi     O1 1881   1.207   1.170   2.445
  154fsi     O2 1882   1.238   1.391   2.551
  154fsi     S2 1883   1.528   1.121   2.532
  154fsi     O3 1884   1.453   1.001   2.556
  154fsi     O4 1885   1.640   1.143   2.617
  154fsi     F2 1886   1.589   1.104   2.389
  155fsi     F1 1887   1.329   2.662   3.003
  155fsi     S1 1888   1.384   2.736   2.876
  155fsi      N 1889   1.253   2.780   2.803
  155fsi     O1 1890   1.466   2.842   2.927
  155fsi     O2 1891   1.454   2.633   2.805
  155fsi     S2 1892   1.207   2.926   2.771
  155fsi     O3 1893   1.220   3.019   2.880
  155fsi     O4 1894   1.087   2.933   2.693
  155fsi     F2 1895   1.319   2.968   2.670
  156fsi     F1 1896   2.677   1.698   2.260
  156fsi     S1 1897   2.711   1.589   2.153
  156fsi      N 1898   2.867   1.600   2.137
  156fsi     O1 1899   2.670   1.465   2.210
  156fsi     O2 1900   2.644   1.637   2.036
  156fsi     S2 1901   2.978   1.529   2.221
  156fsi     O3 1902   2.940   1.417   2.304
  156fsi     O4 1903   3.065   1.625   2.277
  156fsi     F2 1904   3.064   1.461   2.109
  157fsi     F1 1905   1.148   1.454   2.833
  157fsi     S1 1906   1.005   1.394   2.838
  157fsi      N 1907   0.910   1.516   2.815
  157fsi     O1 1908   1.007   1.294   2.735
  157fsi     O2 1909   0.997   1.343   2.971
  157fsi     S2 1910   0.876   1.587   2.681
  157fsi     O3 1911   0.985   1.593   2.588
  157fsi     O4 1912   0.803   1.708   2.707
  157fsi     F2 1913   0.769   1.492   2.617
  158fsi     F1 1914   1.813   2.765   1.347
  158fsi     S1 1915   1.808   2.718   1.198
  158fsi      N 1916   1.944   2.645   1.185
  158fsi     O1 1917   1.695   2.630   1.192
  158fsi     O2 1918   1.805   2.842   1.125
  158fsi     S2 1919   1.971   2.492   1.190
  158fsi     O3 1920   1.882   2.420   1.276
  158fsi     O4 1921   2.111   2.467   1.202
  158fsi     F2 1922   1.936   2.444   1.045
  159fsi     F1 1923   1.958   2.776   2.110
  159fsi     S1 1924   1.843   2.788   2.004
  159fsi      N 1925   1.714   2.765   2.089
  159fsi     O1 1926   1.859   2.920   1.949
  159fsi     O2 1927   1.869   2.680   1.914
  159fsi     S2 1928   1.632   2.871   2.169
  159fsi     O3 1929   1.710   2.984   2.211
  159fsi     O4 1930   1.544   2.812   2.265
  159fsi     F2 1931   1.534   2.929   2.059
  160fsi     F1 1932   0.123   2.934   1.113
  160fsi     S1 1933   0.278   2.954   1.126
  160fsi      N 1934   0.293   3.007   1.274
  160fsi     O1 1935   0.333   2.825   1.096
  160fsi     O2 1936   0.304   3.058   1.030
  160fsi     S2 1937   0.301   2.925   1.408
  160fsi     O3 1938   0.332   2.787   1.392
  160fsi     O4 1939   0.194   2.958   1.499
  160fsi     F2 1940   0.430   2.983   1.477
  161fsi     F1 1941   2.707   1.658   1.752
  161fsi     S1 1942   2.825   1.739   1.694
  161fsi      N 1943   2.906   1.631   1.615
  161fsi     O1 1944   2.759   1.837   1.615
  161fsi     O2 1945   2.895   1.779   1.812
  161fsi     S2 1946   2.886   1.599   1.464
  161fsi     O3 1947   2.755   1.545   1.438
  161fsi     O4 1948   2.996   1.529   1.405
  161fsi     F2 1949   2.891   1.738   1.392
  162fsi     F1 1950   0.575   1.333   1.396
  162fsi     S1 1951   0.534   1.483   1.383
  162fsi      N 1952   0.381   1.478   1.408
  162fsi     O1 1953   0.605   1.547   1.490
  162fsi     O2 1954   0.563   1.518   1.248
  162fsi     S2 1955   0.308   1.567   1.512
  162fsi     O3 1956   0.339   1.543   1.649
  162fsi     O4 1957   0.172   1.588   1.475
  162fsi     F2 1958   0.374   1.708   1.489
  163fsi     F1 1959   2.631   2.112   1.345
  163fsi     S1 1960   2.478   2.112   1.375
  163fsi      N 1961   2.423   2.178   1.245
  163fsi     O1 1962   2.446   1.972   1.391
  163fsi     O2 1963   2.464   2.196   1.490
  163fsi     S2 1964   2.414   2.115   1.103
  163fsi     O3 1965   2.466   1.982   1.096
  163fsi     O4 1966   2.456   2.207   1.002
  163fsi     F2 1967   2.261   2.095   1.081
  164fsi     F1 1968   0.796   2.427   0.872
  164fsi     S1 1969   0.736   2.327   0.771
  164fsi      N 1970   0.610   2.271   0.844
  164fsi     O1 1971   0.709   2.405   0.655
  164fsi     O2 1972   0.837   2.227   0.753
  164fsi     S2 1973   0.509   2.346   0.937
  164fsi     O3 1974   0.526   2.488   0.943
  164fsi     O4 1975   0.482   2.273   1.058
  164fsi     F2 1976   0.375   2.330   0.858
  165fsi     F1 1977   2.883   2.529   1.685
  165fsi     S1 1978   2.941   2.412   1.773
  165fsi      N 1979   2.872   2.285   1.712
  165fsi     O1 1980   3.082   2.423   1.751
  165fsi     O2 1981   2.896   2.442   1.906
  165fsi     S2 1982   2.930   2.167   1.627
  165fsi     O3 1983   3.069   2.177   1.594
  165fsi     O4 1984   2.842   2.121   1.523
  165fsi     F2 1985   2.929   2.051   1.731
  166fsi     F1 1986   1.920   1.853   2.765
  166fsi     S1 1987   1.950   1.778   2.630
  166fsi      N 1988   2.078   1.851   2.577
  166fsi     O1 1989   1.970   1.643   2.672
  166fsi     O2 1990   1.832   1.809   2.553
  166fsi     S2 1991   2.227   1.840   2.626
  166fsi     O3 1992   2.242   1.785   2.758
  166fsi     O4 1993   2.302   1.957   2.593
  166fsi     F2 1994   2.287   1.730   2.530
  167fsi     F1 1995   2.743   0.523   2.060
  167fsi     S1 1996   2.756   0.600   2.195
  167fsi      N 1997   2.765   0.487   2.305
  167fsi     O1 1998   2.873   0.681   2.179
  167fsi     O2 1999   2.629   0.665   2.209
  167fsi     S2 2000   2.890   0.419   2.374
  167fsi     O3 2001   3.019   0.462   2.326
  167fsi     O4 2002   2.870   0.280   2.400
  167fsi     F2 2003   2.884   0.481   2.519
  168fsi     F1 2004   0.481   0.323   2.822
  168fsi     S1 2005   0.601   0.231   2.780
  168fsi      N 2006   0.728   0.316   2.818
  168fsi     O1 2007   0.583   0.113   2.859
  168fsi     O2 2008   0.583   0.218   2.638
  168fsi     S2 2009   0.832   0.299   2.935
  168fsi     O3 2010   0.791   0.209   3.040
  168fsi     O4 2011   0.894   0.423   2.975
  168fsi     F2 2012   0.949   0.221   2.865
  169fsi     F1 2013   0.424   0.497   0.345
  169fsi     S1 2014   0.575   0.513   0.304
  169fsi      N 2015   0.567   0.619   0.189
  169fsi     O1 2016   0.639   0.556   0.425
  169fsi     O2 2017   0.608   0.381   0.258
  169fsi     S2 2018   0.574   0.775   0.200
  169fsi     O3 2019   0.577   0.823   0.335
  169fsi     O4 2020   0.483   0.844   0.112
  169fsi     F2 2021   0.717   0.810   0.145
  170fsi     F1 2022   1.488   0.646   1.050
  170fsi     S1 2023   1.485   0.660   0.896
  170fsi      N 2024   1.607   0.754   0.870
  170fsi     O1 2025   1.493   0.524   0.851
  170fsi     O2 2026   1.360   0.724   0.867
  170fsi     S2 2027   1.760   0.729   0.862
  170fsi     O3 2028   1.803   0.598   0.900
  170fsi     O4 2029   1.839   0.841   0.905
  170fsi     F2 2030   1.784   0.732   0.710
  171fsi     F1 2031   2.913   2.198   0.716
  171fsi     S1 2032   2.757   2.183   0.731
  171fsi      N 2033   2.704   2.293   0.631
  171fsi     O1 2034   2.728   2.049   0.688
  171fsi     O2 2035   2.734   2.216   0.868
  171fsi     S2 2036   2.675   2.274   0.479
  171fsi     O3 2037   2.755   2.176   0.412
  171fsi     O4 2038   2.665   2.397   0.405
  171fsi     F2 2039   2.529   2.219   0.474
  172fsi     F1 2040   0.102   1.571   1.820
  172fsi     S1 2041   0.168   1.674   1.919
  172fsi      N 2042   0.243   1.775   1.825
  172fsi     O1 2043   0.054   1.730   1.986
  172fsi     O2 2044   0.256   1.590   1.997
  172fsi     S2 2045   0.183   1.865   1.710
  172fsi     O3 2046   0.077   1.806   1.634
  172fsi     O4 2047   0.290   1.928   1.640
  172fsi     F2 2048   0.113   1.982   1.784
  173fsi     F1 2049   1.366   2.419   1.279
  173fsi     S1 2050   1.275   2.539   1.323
  173fsi      N 2051   1.349   2.668   1.270
  173fsi     O1 2052   1.149   2.519   1.261
  173fsi     O2 2053   1.275   2.530   1.467
  173fsi     S2 2054   1.395   2.703   1.123
  173fsi     O3 2055   1.430   2.590   1.041
  173fsi     O4 2056   1.481   2.818   1.119
  173fsi     F2 2057   1.266   2.760   1.056
  174fsi     F1 2058   0.998   0.298   2.352
  174fsi     S1 2059   0.874   0.244   2.430
  174fsi      N 2060   0.759   0.265   2.325
  174fsi     O1 2061   0.906   0.106   2.456
  174fsi     O2 2062   0.865   0.334   2.541
  174fsi     S2 2063   0.675   0.156   2.247
  174fsi     O3 2064   0.747   0.035   2.217
  174fsi     O4 2065   0.598   0.215   2.141
  174fsi     F2 2066   0.566   0.112   2.351
  175fsi     F1 2067   0.245   2.734   2.710
  175fsi     S1 2068   0.147   2.615   2.739
  175fsi      N 2069   0.241   2.495   2.778
  175fsi     O1 2070   0.059   2.662   2.843
  175fsi     O2 2071   0.089   2.585   2.611
  175fsi     S2 2072   0.317   2.468   2.913
  175fsi     O3 2073   0.332   2.583   2.998
  175fsi     O4 2074   0.431   2.384   2.889
  175fsi     F2 2075   0.218   2.374   2.991
  176fsi     F1 2076   2.281   2.032   2.941
  176fsi     S1 2077   2.380   2.153   2.931
  176fsi      N 2078   2.519   2.089   2.966
  176fsi     O1 2079   2.365   2.200   2.796
  176fsi     O2 2080   2.336   2.241   3.035
  176fsi     S2 2081   2.614   2.002   2.876
  176fsi     O3 2082   2.558   1.957   2.752
  176fsi     O4 2083   2.689   1.906   2.953
  176fsi     F2 2084   2.724   2.104   2.832
  177fsi     F1 2085   2.447   2.275   2.387
  177fsi     S1 2086   2.500   2.415   2.435
  177fsi      N 2087   2.407   2.518   2.360
  177fsi     O1 2088   2.485   2.411   2.577
  177fsi     O2 2089   2.633   2.423   2.383
  177fsi     S2 2090   2.287   2.603   2.417
  177fsi     O3 2091   2.244   2.571   2.550
  177fsi     O4 2092   2.188   2.624   2.316
  177fsi     F2 2093   2.352   2.746   2.433
  178fsi     F1 2094   0.212   0.453   1.886
  178fsi     S1 2095   0.279   0.311   1.883
  178fsi      N 2096   0.174   0.223   1.808
  178fsi     O1 2097   0.403   0.331   1.813
  178fsi     O2 2098   0.287   0.275   2.022
  178fsi     S2 2099   0.152   0.209   1.653
  178fsi     O3 2100   0.162   0.332   1.579
  178fsi     O4 2101   0.041   0.124   1.619
  178fsi     F2 2102   0.278   0.127   1.608
  179fsi     F1 2103   1.911   1.853   0.375
  179fsi     S1 2104   1.998   1.923   0.485
  179fsi      N 2105   1.907   1.914   0.611
  179fsi     O1 2106   2.115   1.841   0.495
  179fsi     O2 2107   2.017   2.056   0.435
  179fsi     S2 2108   1.865   1.785   0.687
  179fsi     O3 2109   1.867   1.665   0.609
  179fsi     O4 2110   1.751   1.799   0.771
  179fsi     F2 2111   1.980   1.764   0.791
  180fsi     F1 2112   2.433   0.342   2.821
  180fsi     S1 2113   2.303   0.431   2.809
  180fsi      N 2114   2.359   0.564   2.749
  180fsi     O1 2115   2.220   0.355   2.720
  180fsi     O2 2116   2.257   0.443   2.945
  180fsi     S2 2117   2.372   0.607   2.598
  180fsi     O3 2118   2.368   0.498   2.505
  180fsi     O4 2119   2.476   0.703   2.575
  180fsi     F2 2120   2.243   0.691   2.573
  181fsi     F1 2121   2.892   1.479   0.745
  181fsi     S1 2122   2.781   1.532   0.648
  181fsi      N 2123   2.652   1.462   0.706
  181fsi     O1 2124   2.786   1.674   0.665
  181fsi     O2 2125   2.824   1.479   0.522
  181fsi     S2 2126   2.565   1.506   0.829
  181fsi     O3 2127   2.643   1.498   0.950
  181fsi     O4 2128   2.435   1.446   0.833
  181fsi     F2 2129   2.533   1.658   0.806
  182fsi     F1 2130   0.704   0.588   1.696
  182fsi     S1 2131   0.771   0.709   1.622
  182fsi      N 2132   0.859   0.776   1.733
  182fsi     O1 2133   0.841   0.650   1.512
  182fsi     O2 2134   0.665   0.796   1.582
  182fsi     S2 2135   1.015   0.760   1.755
  182fsi     O3 2136   1.074   0.655   1.678
  182fsi     O4 2137   1.049   0.770   1.893
  182fsi     F2 2138   1.071   0.889   1.690
  183fsi     F1 2139   2.134   2.422   0.723
  183fsi     S1 2140   2.239   2.338   0.802
  183fsi      N 2141   2.200   2.191   0.766
  183fsi     O1 2142   2.363   2.386   0.748
  183fsi     O2 2143   2.207   2.370   0.938
  183fsi     S2 2144   2.283   2.076   0.701
  183fsi     O3 2145   2.289   2.094   0.558
  183fsi     O4 2146   2.242   1.947   0.749
  183fsi     F2 2147   2.429   2.092   0.751
  184fsi     F1 2148   0.331   1.072   1.506
  184fsi     S1 2149   0.176   1.060   1.513
  184fsi      N 2150   0.146   1.057   1.668
  184fsi     O1 2151   0.131   1.173   1.438
  184fsi     O2 2152   0.153   0.929   1.458
  184fsi     S2 2153   0.157   1.173   1.775
  184fsi     O3 2154   0.186   1.302   1.720
  184fsi     O4 2155   0.226   1.133   1.894
  184fsi     F2 2156   0.013   1.194   1.830
  185fsi     F1 2157   1.914   1.236   2.090
  185fsi     S1 2158   1.864   1.095   2.045
  185fsi      N 2159   1.812   1.125   1.900
  185fsi     O1 2160   1.984   1.016   2.052
  185fsi     O2 2161   1.758   1.065   2.137
  185fsi     S2 2162   1.795   1.026   1.780
  185fsi     O3 2163   1.901   0.932   1.767
  185fsi     O4 2164   1.750   1.088   1.658
  185fsi     F2 2165   1.675   0.937   1.824
  186fsi     F1 2166   0.856   3.054   0.368
  186fsi     S1 2167   0.974   2.978   0.439
  186fsi      N 2168   0.915   2.835   0.465
  186fsi     O1 2169   1.084   2.985   0.346
  186fsi     O2 2170   0.990   3.046   0.564
  186fsi     S2 2171   0.895   2.714   0.366
  186fsi     O3 2172   0.949   2.733   0.234
  186fsi     O4 2173   0.764   2.659   0.376
  186fsi     F2 2174   0.987   2.604   0.430
  187fsi     F1 2175   0.467   1.284   1.645
  187fsi     S1 2176   0.542   1.294   1.782
  187fsi      N 2177   0.640   1.414   1.764
  187fsi     O1 2178   0.438   1.323   1.877
  187fsi     O2 2179   0.607   1.167   1.794
  187fsi     S2 2180   0.651   1.545   1.848
  187fsi     O3 2181   0.546   1.641   1.831
  187fsi     O4 2182   0.784   1.597   1.850
  187fsi     F2 2183   0.628   1.493   1.995
  188fsi     F1 2184   1.120   1.036   1.278
  188fsi     S1 2185   1.045   1.068   1.147
  188fsi      N 2186   1.056   1.222   1.145
  188fsi     O1 2187   1.119   1.002   1.043
  188fsi     O2 2188   0.914   1.017   1.174
  188fsi     S2 2189   1.176   1.305   1.089
  188fsi     O3 2190   1.301   1.237   1.081
  188fsi     O4 2191   1.180   1.437   1.144
  188fsi     F2 2192   1.137   1.324   0.939
  189fsi     F1 2193   2.566   1.411   0.418
  189fsi     S1 2194   2.606   1.322   0.296
  189fsi      N 2195   2.484   1.223   0.287
  189fsi     O1 2196   2.616   1.415   0.186
  189fsi     O2 2197   2.726   1.256   0.338
  189fsi     S2 2198   2.363   1.226   0.189
  189fsi     O3 2199   2.319   1.359   0.154
  189fsi     O4 2200   2.262   1.129   0.219
  189fsi     F2 2201   2.427   1.169   0.056
  190fsi     F1 2202   2.240   1.471   1.467
  190fsi     S1 2203   2.325   1.349   1.425
  190fsi      N 2204   2.252   1.234   1.500
  190fsi     O1 2205   2.314   1.347   1.282
  190fsi     O2 2206   2.453   1.381   1.480
  190fsi     S2 2207   2.148   1.135   1.442
  190fsi     O3 2208   2.098   1.179   1.314
  190fsi     O4 2209   2.053   1.084   1.536
  190fsi     F2 2210   2.236   1.010   1.411
  191fsi     F1 2211   1.479   2.211   0.964
  191fsi     S1 2212   1.411   2.101   0.877
  191fsi      N 2213   1.439   2.141   0.728
  191fsi     O1 2214   1.472   1.977   0.916
  191fsi     O2 2215   1.272   2.113   0.905
  191fsi     S2 2216   1.538   2.074   0.627
  191fsi     O3 2217   1.667   2.055   0.683
  191fsi     O4 2218   1.528   2.123   0.492
  191fsi     F2 2219   1.480   1.929   0.615
  192fsi     F1 2220   0.389   0.743   1.511
  192fsi     S1 2221   0.352   0.634   1.617
  192fsi      N 2222   0.432   0.677   1.744
  192fsi     O1 2223   0.210   0.650   1.632
  192fsi     O2 2224   0.405   0.516   1.556
  192fsi     S2 2225   0.444   0.819   1.809
  192fsi     O3 2226   0.408   0.928   1.725
  192fsi     O4 2227   0.566   0.832   1.883
  192fsi     F2 2228   0.332   0.816   1.920
  193fsi     F1 2229   2.511   0.904   0.149
  193fsi     S1 2230   2.620   0.895   0.262
  193fsi      N 2231   2.637   0.740   0.281
  193fsi     O1 2232   2.733   0.962   0.205
  193fsi     O2 2233   2.555   0.952   0.377
  193fsi     S2 2234   2.769   0.656   0.281
  193fsi     O3 2235   2.843   0.658   0.157
  193fsi     O4 2236   2.748   0.527   0.342
  193fsi     F2 2237   2.861   0.730   0.384
  194fsi     F1 2238   1.058   1.374   1.430
  194fsi     S1 2239   0.906   1.364   1.455
  194fsi      N 2240   0.875   1.212   1.430
  194fsi     O1 2241   0.886   1.403   1.592
  194fsi     O2 2242   0.851   1.449   1.355
  194fsi     S2 2243   0.871   1.096   1.533
  194fsi     O3 2244   0.922   1.117   1.665
  194fsi     O4 2245   0.900   0.969   1.473
  194fsi     F2 2246   0.719   1.084   1.562
  195fsi     F1 2247   1.630   1.361   1.818
  195fsi     S1 2248   1.503   1.308   1.889
  195fsi      N 2249   1.523   1.357   2.037
  195fsi     O1 2250   1.396   1.368   1.816
  195fsi     O2 2251   1.515   1.166   1.876
  195fsi     S2 2252   1.441   1.459   2.122
  195fsi     O3 2253   1.342   1.534   2.050
  195fsi     O4 2254   1.514   1.534   2.219
  195fsi     F2 2255   1.359   1.362   2.214
  196fsi     F1 2256   1.987   2.625   1.538
  196fsi     S1 2257   1.973   2.496   1.626
  196fsi      N 2258   2.012   2.380   1.530
  196fsi     O1 2259   2.063   2.519   1.735
  196fsi     O2 2260   1.834   2.495   1.661
  196fsi     S2 2261   2.152   2.324   1.489
  196fsi     O3 2262   2.261   2.415   1.510
  196fsi     O4 2263   2.148   2.242   1.372
  196fsi     F2 2264   2.171   2.214   1.594
  197fsi     F1 2265   1.786   0.747   1.995
  197fsi     S1 2266   1.779   0.599   1.946
  197fsi      N 2267   1.625   0.567   1.938
  197fsi     O1 2268   1.849   0.598   1.821
  197fsi     O2 2269   1.843   0.527   2.052
  197fsi     S2 2270   1.526   0.579   1.817
  197fsi     O3 2271   1.569   0.664   1.712
  197fsi     O4 2272   1.388   0.586   1.856
  197fsi     F2 2273   1.532   0.437   1.750
  198fsi     F1 2274   1.922   1.087   1.011
  198fsi     S1 2275   1.837   1.162   1.117
  198fsi      N 2276   1.697   1.148   1.049
  198fsi     O1 2277   1.850   1.085   1.236
  198fsi     O2 2278   1.902   1.291   1.111
  198fsi     S2 2279   1.590   1.036   1.082
  198fsi     O3 2280   1.646   0.911   1.123
  198fsi     O4 2281   1.489   1.027   0.980
  198fsi     F2 2282   1.515   1.088   1.209
  199fsi     F1 2283   1.136   3.067   1.639
  199fsi     S1 2284   1.087   2.966   1.530
  199fsi      N 2285   1.110   2.827   1.601
  199fsi     O1 2286   0.949   3.004   1.510
  199fsi     O2 2287   1.177   2.990   1.421
  199fsi     S2 2288   1.009   2.713   1.635
  199fsi     O3 2289   0.872   2.756   1.644
  199fsi     O4 2290   1.060   2.630   1.740
  199fsi     F2 2291   1.010   2.619   1.512
  200fsi     F1 2292   0.897   1.882   2.477
  200fsi     S1 2293   0.802   1.927   2.361
  200fsi      N 2294   0.827   1.820   2.251
  200fsi     O1 2295   0.670   1.922   2.414
  200fsi     O2 2296   0.854   2.055   2.320
  200fsi     S2 2297   0.772   1.674   2.245
  200fsi     O3 2298   0.747   1.615   2.372
  200fsi     O4 2299   0.841   1.596   2.147
  200fsi     F2 2300   0.631   1.690   2.181
   3.08570   3.08570   3.08570
