L1P1 short trajectory practice
 1150
    1Li+     Li    1   2.964   2.685   4.378  0.0280 -0.2917 -0.4652
    2Li+     Li    2   1.075   3.689   1.045 -0.4178  0.0923 -0.2657
    3Li+     Li    3   1.877   3.057   0.859 -0.8801 -0.5616  0.3564
    4Li+     Li    4   2.751   3.852   3.558  0.0593  0.0433  0.1271
    5Li+     Li    5   4.761   2.987   2.517 -0.2449  0.0195 -0.6760
    6Li+     Li    6   4.177   0.996   2.280 -0.1599  0.1618 -0.5488
    7Li+     Li    7   1.297   0.996   3.701  1.2650  0.4509 -1.3594
    8Li+     Li    8   1.874   2.398   0.630  0.7172  0.3049  0.2153
    9Li+     Li    9   1.355   2.234   0.602 -1.0865  0.5081  0.1018
   10Li+     Li   10   4.424   0.775   1.805 -0.2169 -0.5640  0.1420
   11Li+     Li   11   1.246   4.175   1.632  1.2478  0.1050  0.7931
   12Li+     Li   12   0.805   1.189   3.486  0.3735  0.0367 -0.3652
   13Li+     Li   13   3.574   1.984   3.814  1.1537  0.1176 -0.3929
   14Li+     Li   14   0.187   5.135   0.908 -0.8931 -1.5894  0.2625
   15Li+     Li   15   3.041   3.242   4.598 -0.9286 -1.0248 -0.1477
   16Li+     Li   16   1.071   4.358   0.593 -1.7252 -1.3608 -0.3280
   17Li+     Li   17   0.834   5.062   0.262  1.2266 -0.8307 -1.6498
   18Li+     Li   18   3.321   3.429   4.677  0.1561 -0.2486 -1.1514
   19Li+     Li   19   2.995   3.458   3.741 -0.8552  0.3310 -1.6460
   20Li+     Li   20   3.423   2.565   3.931 -0.3263  0.7384 -0.7182
   21Li+     Li   21   0.554   4.715   0.466  0.3819 -0.4087  0.7325
   22Li+     Li   22   3.125   2.801   4.843 -0.1553  0.7115  0.7016
   23Li+     Li   23   3.416   3.236   4.233  0.6753  0.6185  1.2326
   24Li+     Li   24   0.674   0.063   0.682  0.0331 -0.3796 -0.2428
   25Li+     Li   25   3.111   2.950   3.924  0.7065 -0.8169 -0.4076
   26c3c     N4   26   0.934   0.603   3.063  0.0221 -0.0641 -0.4245
   26c3c     C1   27   1.048   0.522   3.115  0.0156 -0.4839  0.0546
   26c3c     C1   28   0.820   0.518   3.099  0.1989  0.1751 -0.5676
   26c3c     C2   29   1.002   0.480   3.253 -0.4646  0.2191  0.0969
   26c3c     C2   30   0.850   0.462   3.237 -0.3556  0.5418 -0.0809
   26c3c     C1   31   0.933   0.730   3.136  0.3983 -0.5829 -0.1220
   26c3c     C1   32   0.949   0.633   2.917  0.0830 -0.5302 -0.3267
   26c3c     H1   33   1.144   0.572   3.112  0.7317 -1.8787 -1.6018
   26c3c     H1   34   1.061   0.431   3.056  0.0716 -1.0564  0.9486
   26c3c     H1   35   0.722   0.565   3.092  1.2685  2.3623 -1.4561
   26c3c     H1   36   0.817   0.428   3.037  0.3048 -0.9407  1.0344
   26c3c     HC   37   1.029   0.548   3.333  0.1113 -0.2127  0.2762
   26c3c     HC   38   1.050   0.388   3.288 -0.5126  1.4642  3.6215
   26c3c     HC   39   0.792   0.515   3.313 -0.5628 -0.0336  0.1621
   26c3c     HC   40   0.817   0.358   3.239 -0.7089  0.6612  0.7371
   26c3c     H1   41   1.018   0.793   3.108  0.4148 -0.3282  0.5053
   26c3c     H1   42   0.844   0.787   3.108  0.8090  0.2528  0.2405
   26c3c     H1   43   0.928   0.723   3.244  1.3625 -0.9991 -0.0946
   26c3c     H1   44   0.876   0.707   2.884  1.8041  1.3201 -0.0699
   26c3c     H1   45   1.042   0.688   2.910 -0.6288  0.7603  0.1328
   26c3c     C2   46   0.952   0.517   2.815 -0.9213 -0.1204  0.4037
   26c3c     HC   47   0.869   0.448   2.834 -0.6251 -0.7251 -0.4641
   26c3c     HC   48   1.045   0.462   2.824 -0.7510 -0.0364 -0.7692
   26c3c     CT   49   0.941   0.556   2.663 -0.5262 -0.3310  0.3502
   26c3c     HC   50   1.031   0.609   2.632 -0.6329 -0.1172  0.4092
   26c3c     HC   51   0.852   0.615   2.642 -0.7003  0.1093  2.2556
   26c3c     HC   52   0.933   0.465   2.602  0.2650  0.7355 -1.3729
   27c3c     N4   53   3.211   0.441   2.055  0.3723 -0.2622  0.3228
   27c3c     C1   54   3.094   0.389   1.985  0.1315  0.3002  0.3410
   27c3c     C1   55   3.296   0.323   2.066  0.2272 -0.1015 -0.1498
   27c3c     C2   56   3.141   0.286   1.882  0.7203  0.3610 -0.4280
   27c3c     C2   57   3.280   0.240   1.934  0.4313  0.1470  0.4348
   27c3c     C1   58   3.280   0.548   1.978  0.1483 -0.2228 -0.0609
   27c3c     C1   59   3.177   0.503   2.180  0.3311 -0.4438 -0.2394
   27c3c     H1   60   3.042   0.472   1.937  0.1449  0.2281  0.2021
   27c3c     H1   61   3.023   0.345   2.055 -0.2730 -0.7948 -0.7575
   27c3c     H1   62   3.401   0.340   2.092 -0.1717  1.2920  0.6167
   27c3c     H1   63   3.251   0.257   2.139 -1.0604  0.0653 -0.7802
   27c3c     HC   64   3.145   0.330   1.782  1.5189  0.0385 -0.5420
   27c3c     HC   65   3.072   0.202   1.884  1.0282  0.1270  0.5342
   27c3c     HC   66   3.359   0.265   1.863  0.0373 -0.7658 -0.3324
   27c3c     HC   67   3.283   0.131   1.942  0.3565 -0.0071 -1.4687
   27c3c     H1   68   3.232   0.645   1.989 -1.0869 -0.9120  0.8184
   27c3c     H1   69   3.381   0.566   2.012  0.0426  0.0546  0.1054
   27c3c     H1   70   3.285   0.533   1.870  1.5602 -0.0824 -0.0170
   27c3c     H1   71   3.268   0.549   2.219 -0.2390 -0.5060  1.1816
   27c3c     H1   72   3.108   0.585   2.159 -0.0128 -0.7377 -0.2667
   27c3c     C2   73   3.126   0.406   2.290  0.4756  0.0665  0.0449
   27c3c     HC   74   3.202   0.340   2.331 -0.3788 -0.1754  1.2646
   27c3c     HC   75   3.041   0.343   2.264 -0.5251  1.6560 -0.6405
   27c3c     CT   76   3.083   0.498   2.407  0.2896  0.3947 -0.1357
   27c3c     HC   77   3.164   0.564   2.439  0.0365  0.1733  0.9907
   27c3c     HC   78   3.064   0.435   2.494  1.6512 -0.6675 -0.5821
   27c3c     HC   79   2.997   0.560   2.384  0.2527  0.3994  0.0145
   28c3c     N4   80   2.406   0.642   2.653  0.2247  0.2320 -0.3391
   28c3c     C1   81   2.548   0.671   2.621  0.3353  0.5605 -0.3754
   28c3c     C1   82   2.416   0.589   2.792  0.1209  0.3276 -0.0360
   28c3c     C2   83   2.607   0.725   2.752  0.2543  0.5558 -0.3155
   28c3c     C2   84   2.514   0.679   2.866  0.2838 -0.4569 -0.5356
   28c3c     C1   85   2.338   0.772   2.637 -0.0797  0.2087  0.5781
   28c3c     C1   86   2.345   0.545   2.559 -0.0931  0.1660 -0.0101
   28c3c     H1   87   2.564   0.738   2.537  1.4893  0.3398 -0.3292
   28c3c     H1   88   2.602   0.579   2.603 -0.5244 -0.2110  0.8627
   28c3c     H1   89   2.317   0.587   2.836  0.1851 -0.3485  0.0855
   28c3c     H1   90   2.463   0.491   2.791  0.2542  0.3920 -0.7060
   28c3c     HC   91   2.616   0.833   2.747  0.5662  0.5338 -0.2711
   28c3c     HC   92   2.709   0.689   2.763 -0.0549 -0.5685 -1.0545
   28c3c     HC   93   2.466   0.763   2.915  1.4105 -0.3329  0.3806
   28c3c     HC   94   2.569   0.622   2.941  0.6146 -0.1682 -0.5551
   28c3c     H1   95   2.345   0.809   2.535 -0.9156  0.7721  0.7196
   28c3c     H1   96   2.231   0.762   2.658 -0.1546 -0.1270  0.0377
   28c3c     H1   97   2.379   0.850   2.701  0.5181  1.0132 -0.7661
   28c3c     H1   98   2.241   0.523   2.586 -0.3324 -0.5549 -1.4758
   28c3c     H1   99   2.340   0.590   2.460 -0.0624 -1.6794 -0.8750
   28c3c     C2  100   2.416   0.407   2.543 -0.2507 -0.0801 -0.1737
   28c3c     HC  101   2.420   0.348   2.634 -0.2225  0.7015  0.3282
   28c3c     HC  102   2.517   0.421   2.504 -0.7798  0.0768 -1.5189
   28c3c     CT  103   2.340   0.328   2.437  0.0478  0.0871 -0.1121
   28c3c     HC  104   2.337   0.387   2.345 -1.5814  0.0181 -0.1164
   28c3c     HC  105   2.240   0.307   2.474  0.8138 -0.9019  1.4505
   28c3c     HC  106   2.382   0.232   2.410  0.6095  0.4800 -0.6622
   29c3c     N4  107   0.975   1.848   3.736 -0.4956  0.4797 -0.0615
   29c3c     C1  108   0.872   1.793   3.647  0.0938 -0.3778  0.0579
   29c3c     C1  109   0.929   1.985   3.759 -0.5297 -0.1394  0.2596
   29c3c     C2  110   0.740   1.836   3.712  0.0824 -0.2760  0.1807
   29c3c     C2  111   0.777   1.973   3.770 -0.0600  0.1345  0.4134
   29c3c     C1  112   0.975   1.775   3.864 -0.3503  0.1417 -0.6358
   29c3c     C1  113   1.115   1.831   3.679 -0.1046 -0.4735  0.8402
   29c3c     H1  114   0.878   1.686   3.629 -0.1545 -0.2248 -0.9631
   29c3c     H1  115   0.876   1.837   3.548  1.6361 -0.8414 -0.0977
   29c3c     H1  116   0.972   2.028   3.849 -0.1745 -0.8723  0.4422
   29c3c     H1  117   0.954   2.052   3.676 -0.5331 -0.5945 -0.1112
   29c3c     HC  118   0.701   1.768   3.788  0.2093 -0.2727  0.2495
   29c3c     HC  119   0.663   1.855   3.637  1.6438  2.8425 -0.7341
   29c3c     HC  120   0.746   1.991   3.873  0.2428  1.9374  0.2101
   29c3c     HC  121   0.735   2.052   3.708 -0.0887 -1.4196 -1.6173
   29c3c     H1  122   0.978   1.670   3.837  1.2332 -0.0563  0.2395
   29c3c     H1  123   1.060   1.800   3.927 -0.9853  1.1924 -0.1851
   29c3c     H1  124   0.889   1.789   3.929 -0.7918 -1.8930 -0.7422
   29c3c     H1  125   1.185   1.873   3.750 -1.1742  0.8759  1.1228
   29c3c     H1  126   1.142   1.725   3.672  0.8323 -0.1364 -1.0762
   29c3c     C2  127   1.134   1.896   3.541  0.3836 -0.5806  0.3756
   29c3c     HC  128   1.129   2.005   3.551  1.0743 -0.3867 -1.1307
   29c3c     HC  129   1.061   1.863   3.467 -0.5128  1.0841  0.4935
   29c3c     CT  130   1.267   1.853   3.474  0.0561 -0.5075 -0.2386
   29c3c     HC  131   1.347   1.840   3.546 -0.2595 -2.3783 -0.2032
   29c3c     HC  132   1.297   1.924   3.396 -0.6170 -0.5491 -0.5424
   29c3c     HC  133   1.264   1.756   3.424 -0.9352 -0.6291  0.0443
   30c3c     N4  134   0.643   4.276   1.234 -0.1178  0.1372  0.0116
   30c3c     C1  135   0.742   4.174   1.200 -0.0286  0.5234 -0.2396
   30c3c     C1  136   0.580   4.218   1.353 -0.2651 -0.4616 -0.2632
   30c3c     C2  137   0.812   4.133   1.333  0.4767  0.4795 -0.3014
   30c3c     C2  138   0.692   4.147   1.429 -0.0426  0.2323  0.3981
   30c3c     C1  139   0.719   4.400   1.259  0.3893  0.1019 -0.1467
   30c3c     C1  140   0.543   4.310   1.130 -0.3532  0.7351  0.0289
   30c3c     H1  141   0.807   4.209   1.120  0.0553  0.7669 -0.0668
   30c3c     H1  142   0.693   4.084   1.164  0.8357 -0.0635  0.0390
   30c3c     H1  143   0.530   4.291   1.417 -0.2226 -1.2000  0.6108
   30c3c     H1  144   0.507   4.146   1.317 -0.4751 -0.6565  0.5380
   30c3c     HC  145   0.898   4.197   1.356  0.5573 -0.0275  0.7883
   30c3c     HC  146   0.847   4.030   1.337  0.9345  0.6475  0.0674
   30c3c     HC  147   0.716   4.193   1.525 -0.4393  1.8268 -0.2529
   30c3c     HC  148   0.650   4.050   1.458  0.9705  0.1800  1.7839
   30c3c     H1  149   0.770   4.432   1.168  0.0487 -1.0759 -0.7654
   30c3c     H1  150   0.653   4.483   1.284 -0.3479 -0.4160 -0.3498
   30c3c     H1  151   0.793   4.396   1.338  2.4178  3.3686 -1.7679
   30c3c     H1  152   0.467   4.379   1.168  0.8545  1.7507  0.6371
   30c3c     H1  153   0.590   4.371   1.053  0.7883 -0.1736 -0.0089
   30c3c     C2  154   0.469   4.195   1.058  0.1635  0.0574 -0.2024
   30c3c     HC  155   0.463   4.103   1.116  0.1326 -0.3327 -0.8202
   30c3c     HC  156   0.521   4.165   0.967  0.2924  0.3535 -0.2285
   30c3c     CT  157   0.327   4.235   1.022 -0.3613 -0.1095  0.4116
   30c3c     HC  158   0.329   4.314   0.948 -0.2931 -1.5701 -1.1658
   30c3c     HC  159   0.272   4.274   1.108  0.0692 -0.9816  1.0966
   30c3c     HC  160   0.261   4.155   0.989  0.2156 -0.5758  0.3727
   31c3c     N4  161   1.238   2.603   3.642  0.3696  0.0870 -0.1757
   31c3c     C1  162   1.219   2.744   3.623  0.5396  0.0725 -0.5464
   31c3c     C1  163   1.363   2.600   3.720  0.1521 -0.0252  0.1777
   31c3c     C2  164   1.258   2.811   3.760  0.0593  0.1942 -0.2952
   31c3c     C2  165   1.369   2.723   3.812 -0.0456  0.1809 -0.2928
   31c3c     C1  166   1.118   2.555   3.718  0.3180 -0.0013  0.0894
   31c3c     C1  167   1.232   2.529   3.511  0.1120 -0.1736 -0.2325
   31c3c     H1  168   1.121   2.776   3.587  0.8047  1.1540 -0.3257
   31c3c     H1  169   1.294   2.771   3.549  1.3532 -0.1752  0.1790
   31c3c     H1  170   1.377   2.511   3.782 -1.3503  0.1884  0.8451
   31c3c     H1  171   1.455   2.604   3.662  0.9712 -0.2063  1.4293
   31c3c     HC  172   1.178   2.805   3.834 -0.2969 -0.0920 -0.7065
   31c3c     HC  173   1.290   2.913   3.739  0.2400  0.1748 -0.1176
   31c3c     HC  174   1.358   2.700   3.918  0.8156  1.5306  0.1012
   31c3c     HC  175   1.466   2.771   3.800 -0.3872  0.7410 -0.8526
   31c3c     H1  176   1.031   2.542   3.654  0.3088 -0.2406  0.1524
   31c3c     H1  177   1.138   2.457   3.762  1.1660  0.2120  0.1923
   31c3c     H1  178   1.088   2.613   3.805 -0.5246  0.0877 -0.2590
   31c3c     H1  179   1.202   2.426   3.526  0.3524 -0.1852  0.1780
   31c3c     H1  180   1.156   2.581   3.453  0.2615  1.0372  0.6288
   31c3c     C2  181   1.360   2.527   3.427 -0.2161 -0.3226  0.5021
   31c3c     HC  182   1.443   2.484   3.483  0.2676 -0.1753 -0.0960
   31c3c     HC  183   1.388   2.630   3.401  1.1274 -0.7235  0.3060
   31c3c     CT  184   1.337   2.445   3.300  0.0045  0.1035  0.1188
   31c3c     HC  185   1.266   2.494   3.233 -0.8144 -0.3087  0.6808
   31c3c     HC  186   1.302   2.344   3.324  0.7879 -0.2329 -0.1542
   31c3c     HC  187   1.434   2.439   3.251 -0.0092 -0.1856  0.1254
   32c3c     N4  188   4.340   1.774   2.670 -0.5449  0.0933  0.3371
   32c3c     C1  189   4.278   1.719   2.790 -0.0155  0.0637  0.2496
   32c3c     C1  190   4.481   1.737   2.688 -0.6877  0.1121 -0.2084
   32c3c     C2  191   4.351   1.585   2.828  0.0345 -0.4704  0.1220
   32c3c     C2  192   4.490   1.606   2.774 -0.1440  0.1607  0.6246
   32c3c     C1  193   4.282   1.708   2.552 -0.5985  0.9454  0.0244
   32c3c     C1  194   4.317   1.920   2.651 -0.0128  0.6827 -0.4171
   32c3c     H1  195   4.171   1.700   2.782  0.2008 -1.4554  0.9256
   32c3c     H1  196   4.286   1.783   2.879  1.4857  0.1312  0.0868
   32c3c     H1  197   4.527   1.726   2.590 -0.2916 -0.0816 -0.0048
   32c3c     H1  198   4.539   1.814   2.739 -1.3014  0.6141 -0.2599
   32c3c     HC  199   4.305   1.497   2.783 -0.6108 -0.0415 -0.0735
   32c3c     HC  200   4.356   1.571   2.936 -2.0347 -0.6105  0.2206
   32c3c     HC  201   4.524   1.523   2.713  1.2078  0.6928  0.6311
   32c3c     HC  202   4.567   1.615   2.851 -1.2288  0.3055  1.7173
   32c3c     H1  203   4.174   1.720   2.545 -0.6139  0.7393 -0.1041
   32c3c     H1  204   4.327   1.744   2.459  0.8335  0.1295  0.3774
   32c3c     H1  205   4.302   1.600   2.547  0.2092  1.0812  0.1772
   32c3c     H1  206   4.373   1.959   2.566 -1.1503  0.3805 -1.3167
   32c3c     H1  207   4.210   1.940   2.636 -0.3407 -0.6847  0.0705
   32c3c     C2  208   4.363   2.016   2.767  0.0382 -0.1810 -0.0447
   32c3c     HC  209   4.471   2.009   2.777  0.0527  0.3592  0.1465
   32c3c     HC  210   4.323   1.994   2.866 -1.2474  1.1445 -0.2647
   32c3c     CT  211   4.338   2.166   2.729 -0.0478  0.1830  0.2829
   32c3c     HC  212   4.322   2.226   2.818  0.6500 -0.9414  1.1817
   32c3c     HC  213   4.251   2.182   2.665  0.1995  0.5632  0.0451
   32c3c     HC  214   4.426   2.209   2.683 -2.1156  1.9806 -2.1173
   33c3c     N4  215   3.008   4.049   5.092  0.3405 -0.1578 -0.8900
   33c3c     C1  216   2.883   3.993   5.046 -0.0755  0.2623 -0.2347
   33c3c     C1  217   3.092   4.044   4.970 -0.1255 -0.0542 -0.8300
   33c3c     C2  218   2.862   4.063   4.912  0.3104  0.5117 -0.1159
   33c3c     C2  219   3.004   4.083   4.850  0.4766 -0.0230 -1.1238
   33c3c     C1  220   2.983   4.189   5.136 -0.1293  0.1277 -0.5939
   33c3c     C1  221   3.071   3.988   5.206  0.1764 -0.3408 -0.4956
   33c3c     H1  222   2.802   4.020   5.114  0.4354  0.6475  0.2186
   33c3c     H1  223   2.883   3.885   5.028 -0.2703 -0.0727  1.6324
   33c3c     H1  224   3.177   4.111   4.983  0.2357 -0.7258  0.2922
   33c3c     H1  225   3.133   3.945   4.951  1.1487  0.4415 -0.7745
   33c3c     HC  226   2.811   4.158   4.923  0.2981  0.7222 -1.8657
   33c3c     HC  227   2.805   4.002   4.842 -0.7896  0.6466  0.6483
   33c3c     HC  228   3.020   4.187   4.821 -0.5010  0.3070 -0.4785
   33c3c     HC  229   3.029   4.013   4.770  0.5231 -1.7818  0.3718
   33c3c     H1  230   2.919   4.190   5.224  0.0529 -2.1034 -0.3991
   33c3c     H1  231   3.074   4.244   5.157 -0.5242  0.4340  0.3231
   33c3c     H1  232   2.935   4.250   5.060 -1.2179 -0.6327 -0.5325
   33c3c     H1  233   3.161   4.040   5.238  0.0312  0.4066 -1.2781
   33c3c     H1  234   3.001   3.997   5.288  0.1268  0.6635 -0.6502
   33c3c     C2  235   3.108   3.839   5.185  0.5503 -0.2294  0.1859
   33c3c     HC  236   3.179   3.818   5.105 -0.9668 -0.7888 -1.0595
   33c3c     HC  237   3.015   3.786   5.164 -0.2306  0.1643  2.5312
   33c3c     CT  238   3.155   3.775   5.316  0.7515  0.6397  0.5759
   33c3c     HC  239   3.076   3.787   5.391  0.0191  0.1333 -0.1071
   33c3c     HC  240   3.243   3.824   5.357  0.0798  1.3652  1.1817
   33c3c     HC  241   3.174   3.668   5.319  1.0414  0.7217  3.3286
   34c3c     N4  242   3.367   3.189   3.213  0.0086 -0.3200  0.2501
   34c3c     C1  243   3.227   3.172   3.250  0.5509  1.0214  0.6039
   34c3c     C1  244   3.357   3.281   3.099 -0.0886  0.0963 -0.2658
   34c3c     C2  245   3.157   3.308   3.232  0.4215  0.3336  0.0442
   34c3c     C2  246   3.243   3.381   3.126  0.1985 -0.0396  0.4903
   34c3c     C1  247   3.435   3.265   3.318  0.5461 -0.0760 -0.2508
   34c3c     C1  248   3.442   3.065   3.201  0.4885  0.0416  0.9003
   34c3c     H1  249   3.207   3.137   3.352  0.8121  0.8270  0.5860
   34c3c     H1  250   3.174   3.102   3.186  1.7673 -0.6360  1.3530
   34c3c     H1  251   3.447   3.340   3.081 -0.0874  0.4088  0.7481
   34c3c     H1  252   3.330   3.234   3.004 -0.1241  0.0309 -0.2227
   34c3c     HC  253   3.155   3.358   3.329 -1.0640 -2.7860  1.7184
   34c3c     HC  254   3.053   3.294   3.201  0.3601 -1.4278  0.9715
   34c3c     HC  255   3.283   3.474   3.166  0.6195  0.1705 -0.3993
   34c3c     HC  256   3.193   3.411   3.033  0.5912 -0.2323  0.2129
   34c3c     H1  257   3.456   3.206   3.407  3.7071  2.7181  0.9920
   34c3c     H1  258   3.531   3.304   3.284  0.4772  0.7755  0.5124
   34c3c     H1  259   3.372   3.348   3.351  0.8055 -0.2505  0.6955
   34c3c     H1  260   3.547   3.083   3.179  0.3076  0.1004  0.0860
   34c3c     H1  261   3.439   3.016   3.298 -0.4514 -2.1657 -0.2002
   34c3c     C2  262   3.391   2.970   3.097  0.3410 -0.5008  0.9740
   34c3c     HC  263   3.400   3.013   2.997  1.1648  0.4392  1.4532
   34c3c     HC  264   3.286   2.942   3.111  0.4815 -0.9651  1.1182
   34c3c     CT  265   3.469   2.841   3.100 -0.4802  0.0362  0.3194
   34c3c     HC  266   3.443   2.782   3.188  1.5837 -0.7377  0.4355
   34c3c     HC  267   3.577   2.842   3.089 -0.6446 -1.1799 -1.7776
   34c3c     HC  268   3.428   2.784   3.017 -1.5698  0.4134  0.5852
   35c3c     N4  269   4.553   3.873   2.389  0.0626  0.2913 -0.2023
   35c3c     C1  270   4.530   3.999   2.312 -0.0789  0.0910  0.2992
   35c3c     C1  271   4.423   3.807   2.391 -0.7694  0.1724 -0.1093
   35c3c     C2  272   4.417   3.971   2.213 -0.2702  0.7860  0.4641
   35c3c     C2  273   4.358   3.837   2.253  0.3097  0.4823 -0.3574
   35c3c     C1  274   4.645   3.785   2.313 -0.3729  0.2746 -0.4467
   35c3c     C1  275   4.611   3.900   2.522 -0.0675  0.0034 -0.1518
   35c3c     H1  276   4.623   4.034   2.266  0.3442  0.2257  1.2427
   35c3c     H1  277   4.495   4.080   2.376  0.8593  0.5514  0.2481
   35c3c     H1  278   4.425   3.703   2.422 -0.3358  0.5216  1.0353
   35c3c     H1  279   4.359   3.859   2.462 -0.9641  0.1738 -0.2836
   35c3c     HC  280   4.452   3.965   2.110 -0.0330  1.2122  0.5172
   35c3c     HC  281   4.343   4.051   2.210 -0.5603  0.5502  1.2745
   35c3c     HC  282   4.381   3.762   2.178 -0.6251  0.7494 -0.9174
   35c3c     HC  283   4.249   3.835   2.263  0.3556  0.1856  0.1258
   35c3c     H1  284   4.746   3.827   2.309 -0.4056  0.3614 -0.3821
   35c3c     H1  285   4.653   3.683   2.351 -0.9892 -0.0647 -1.2061
   35c3c     H1  286   4.617   3.773   2.208  0.3519 -0.0254 -0.6112
   35c3c     H1  287   4.628   3.804   2.571 -1.1675 -0.3258 -0.3919
   35c3c     H1  288   4.710   3.944   2.511  0.0163 -0.0536  0.3590
   35c3c     C2  289   4.526   3.992   2.614  0.0030  0.1054  0.1768
   35c3c     HC  290   4.431   3.948   2.644  0.6135 -0.8952  0.6441
   35c3c     HC  291   4.515   4.089   2.565  1.4042  0.3348  0.2995
   35c3c     CT  292   4.601   4.019   2.746 -0.5222 -0.0466  0.5986
   35c3c     HC  293   4.709   4.030   2.738 -0.6549  0.4430 -0.7159
   35c3c     HC  294   4.582   3.941   2.819 -0.7469  0.1750  0.7772
   35c3c     HC  295   4.565   4.113   2.788  0.1483  0.7150 -0.5019
   36c3c     N4  296   3.397   3.942   0.405 -0.3539 -0.3175 -0.3939
   36c3c     C1  297   3.273   3.865   0.398 -0.2431 -0.0201  0.4106
   36c3c     C1  298   3.354   4.067   0.470  0.2922 -0.1044  0.2036
   36c3c     C2  299   3.190   3.902   0.518  0.1549  0.8910  0.6147
   36c3c     C2  300   3.253   4.024   0.571  0.1760 -0.1218  0.1384
   36c3c     C1  301   3.485   3.860   0.494  0.0483  0.7289 -0.1427
   36c3c     C1  302   3.459   3.964   0.275 -0.1785  0.3312  0.1878
   36c3c     H1  303   3.287   3.758   0.384  0.0808  0.0487  0.2098
   36c3c     H1  304   3.210   3.896   0.314 -0.4019 -0.7475  0.2638
   36c3c     H1  305   3.430   4.133   0.511  0.2675 -0.6870  1.2002
   36c3c     H1  306   3.303   4.128   0.395 -0.2694 -0.3491  0.3829
   36c3c     HC  307   3.187   3.823   0.593  0.5131  0.3877  0.1075
   36c3c     HC  308   3.090   3.925   0.483  0.4459  0.7255 -0.3587
   36c3c     HC  309   3.291   4.003   0.671 -1.5723  1.1179  1.1053
   36c3c     HC  310   3.178   4.102   0.588 -0.2060 -0.1116 -1.5351
   36c3c     H1  311   3.517   3.767   0.446  0.6274  1.2685 -0.8145
   36c3c     H1  312   3.582   3.907   0.513  0.0039  0.9835 -0.5408
   36c3c     H1  313   3.437   3.833   0.588  0.6894 -0.8066 -0.2249
   36c3c     H1  314   3.558   4.009   0.287 -0.0249 -0.4119  1.8970
   36c3c     H1  315   3.486   3.869   0.229 -0.7180  0.1437  0.2638
   36c3c     C2  316   3.382   4.054   0.174 -0.2024 -0.2125 -0.4406
   36c3c     HC  317   3.393   4.159   0.201 -0.8090 -0.2914  0.1387
   36c3c     HC  318   3.274   4.036   0.170 -0.2426  0.0392 -0.4567
   36c3c     CT  319   3.436   4.035   0.028  0.0697 -0.1733  0.0356
   36c3c     HC  320   3.416   3.938  -0.017  2.0830 -0.5931  0.0036
   36c3c     HC  321   3.545   4.047   0.022 -0.1671  1.9298 -0.5124
   36c3c     HC  322   3.395   4.114  -0.035 -1.1580 -1.2227 -0.4790
   37c3c     N4  323   1.272   4.765   1.131  0.2222  0.0667  0.0847
   37c3c     C1  324   1.206   4.657   1.197 -0.3340 -1.0527 -0.3845
   37c3c     C1  325   1.414   4.741   1.167  0.6378  0.6696 -0.0133
   37c3c     C2  326   1.286   4.533   1.165  0.1155 -1.1791  0.1624
   37c3c     C2  327   1.428   4.586   1.160  0.5702 -0.3565  0.3261
   37c3c     C1  328   1.255   4.764   0.984  0.0607 -0.2243  0.1554
   37c3c     C1  329   1.219   4.893   1.177 -0.3840 -0.2226  0.5988
   37c3c     H1  330   1.099   4.644   1.185 -0.2026 -0.9404 -1.7669
   37c3c     H1  331   1.211   4.667   1.305  0.1065 -1.6226 -0.3528
   37c3c     H1  332   1.482   4.792   1.099  0.0411  1.6932  0.1430
   37c3c     H1  333   1.447   4.770   1.266  0.7643  0.7160 -0.0691
   37c3c     HC  334   1.246   4.503   1.068  1.0482 -1.4238 -0.1489
   37c3c     HC  335   1.273   4.449   1.233  1.6605 -0.4008  1.4244
   37c3c     HC  336   1.473   4.550   1.067  0.6736 -0.1432  0.2926
   37c3c     HC  337   1.491   4.546   1.240  1.3924  1.0625  0.4051
   37c3c     H1  338   1.152   4.751   0.952  0.0499 -1.6242  0.7169
   37c3c     H1  339   1.295   4.852   0.933 -0.9299  0.2698  0.2177
   37c3c     H1  340   1.310   4.683   0.937  0.5974  0.4618 -0.4146
   37c3c     H1  341   1.275   4.974   1.129 -1.4893  1.1797  1.6392
   37c3c     H1  342   1.117   4.911   1.144 -0.2385 -1.0661 -0.3232
   37c3c     C2  343   1.229   4.923   1.329  0.8666 -0.7750  0.1406
   37c3c     HC  344   1.331   4.914   1.368  0.4115  1.1530  1.8303
   37c3c     HC  345   1.167   4.858   1.390  1.4568 -1.3110  0.1780
   37c3c     CT  346   1.184   5.062   1.373  0.4370 -0.6424  0.6410
   37c3c     HC  347   1.185   5.075   1.481 -0.7612  0.8886  0.4860
   37c3c     HC  348   1.079   5.079   1.347  1.0924 -0.4680 -2.0704
   37c3c     HC  349   1.244   5.140   1.326  2.1458 -1.5764  1.2323
   38c3c     N4  350   1.695   3.761   0.892 -0.0320  0.0995 -0.1329
   38c3c     C1  351   1.825   3.690   0.908 -0.5353 -0.4343  0.0590
   38c3c     C1  352   1.698   3.813   0.754  0.3995  0.1517 -0.0181
   38c3c     C2  353   1.928   3.756   0.809  0.8815 -0.3495 -0.1625
   38c3c     C2  354   1.845   3.833   0.703  0.6836 -0.5250  0.4597
   38c3c     C1  355   1.585   3.663   0.905  0.5080  0.2747 -0.0212
   38c3c     C1  356   1.672   3.867   0.986 -0.0213 -0.0172  0.3232
   38c3c     H1  357   1.819   3.583   0.888 -2.1929  0.0716 -2.2705
   38c3c     H1  358   1.862   3.697   1.011  1.5654 -0.8731 -0.6299
   38c3c     H1  359   1.660   3.731   0.693  2.0254 -1.4888  1.1412
   38c3c     H1  360   1.631   3.898   0.739  1.3488  0.6499 -1.4928
   38c3c     HC  361   1.991   3.683   0.758  1.2270 -0.1642 -0.0036
   38c3c     HC  362   1.993   3.830   0.857 -0.0938  0.1956  0.3171
   38c3c     HC  363   1.856   3.795   0.601  0.6252  0.2576  0.1586
   38c3c     HC  364   1.873   3.938   0.712  0.0365 -0.2800 -0.3393
   38c3c     H1  365   1.583   3.620   1.005  0.5374  0.3556  0.0137
   38c3c     H1  366   1.486   3.701   0.881  1.0331  1.0662 -0.9648
   38c3c     H1  367   1.602   3.573   0.845  0.5628  0.0169  0.3772
   38c3c     H1  368   1.568   3.900   0.977 -0.0039  0.2139  0.9696
   38c3c     H1  369   1.673   3.822   1.085  1.0433  0.5720  0.5869
   38c3c     C2  370   1.762   3.990   0.990  0.4854 -0.0654  0.2183
   38c3c     HC  371   1.757   4.040   0.893 -0.5301 -0.4301  0.0821
   38c3c     HC  372   1.867   3.969   1.010  1.3279  3.1253 -0.5769
   38c3c     CT  373   1.703   4.082   1.100  0.0997  0.0239 -0.0478
   38c3c     HC  374   1.600   4.112   1.080  0.0406  0.6967  1.2691
   38c3c     HC  375   1.764   4.171   1.111 -0.7826  0.6778 -0.4631
   38c3c     HC  376   1.709   4.031   1.196 -0.0851  0.2214  0.0666
   39c3c     N4  377   4.288   2.432   2.193  0.0986 -0.4081  0.4486
   39c3c     C1  378   4.305   2.553   2.106  0.5185 -0.3635  0.1976
   39c3c     C1  379   4.251   2.481   2.325 -0.2828  0.2072 -0.2569
   39c3c     C2  380   4.193   2.646   2.155 -0.8654 -0.4688 -0.1711
   39c3c     C2  381   4.191   2.619   2.305 -0.3899 -0.5030 -0.1903
   39c3c     C1  382   4.171   2.363   2.141  0.5072 -0.5995 -0.3938
   39c3c     C1  383   4.397   2.329   2.195  0.9271 -0.4522  0.1208
   39c3c     H1  384   4.300   2.526   2.000 -0.1891 -0.2135  0.1904
   39c3c     H1  385   4.398   2.605   2.129 -0.7436  0.9421  2.4914
   39c3c     H1  386   4.186   2.412   2.379  0.5285  0.7517  1.4601
   39c3c     H1  387   4.339   2.493   2.388 -0.2724  0.3656 -0.3031
   39c3c     HC  388   4.097   2.620   2.110 -1.1958  0.9461 -0.2823
   39c3c     HC  389   4.207   2.752   2.136  0.7740 -0.4292  1.1679
   39c3c     HC  390   4.089   2.634   2.339 -0.5006  0.1115 -0.7706
   39c3c     HC  391   4.254   2.694   2.353 -1.4867  0.2689  0.0595
   39c3c     H1  392   4.169   2.341   2.034  1.0220  0.5169 -0.6463
   39c3c     H1  393   4.156   2.267   2.191  0.0954 -1.3900 -1.9931
   39c3c     H1  394   4.076   2.411   2.163 -0.0120 -0.8562 -2.0482
   39c3c     H1  395   4.375   2.268   2.282  1.0257  0.3285  0.6971
   39c3c     H1  396   4.402   2.271   2.103 -1.3662 -1.6991  0.7365
   39c3c     C2  397   4.533   2.392   2.209  0.2672  0.0379 -0.8183
   39c3c     HC  398   4.521   2.479   2.274  2.6739 -0.2320  0.0573
   39c3c     HC  399   4.567   2.432   2.114 -0.8261  0.4444 -1.0380
   39c3c     CT  400   4.636   2.298   2.277  0.2725 -0.1855  0.0176
   39c3c     HC  401   4.657   2.208   2.221 -1.0477 -0.5658  0.1189
   39c3c     HC  402   4.609   2.275   2.380 -1.1101  0.2313 -0.2359
   39c3c     HC  403   4.729   2.355   2.282 -0.1801  0.4330  1.6396
   40c3c     N4  404   0.456   0.254   0.030 -0.3218  0.3618 -0.0126
   40c3c     C1  405   0.432   0.398   0.013 -0.3186  0.2743 -0.6916
   40c3c     C1  406   0.424   0.191  -0.099  0.0106 -0.6363  0.1554
   40c3c     C2  407   0.312   0.401  -0.074  0.7027 -0.2753 -0.4466
   40c3c     C2  408   0.315   0.277  -0.162  0.4741 -0.3655 -0.4328
   40c3c     C1  409   0.601   0.241   0.053 -0.6130  0.1793 -0.1235
   40c3c     C1  410   0.382   0.195   0.143 -0.3353  0.3999  0.2313
   40c3c     H1  411   0.510   0.451  -0.041 -1.0327  0.6731 -1.3371
   40c3c     H1  412   0.419   0.442   0.111  1.5571  1.6332 -1.0256
   40c3c     H1  413   0.513   0.184  -0.163  0.5344 -1.0812  0.9323
   40c3c     H1  414   0.390   0.088  -0.087 -0.9053 -0.4550 -0.8550
   40c3c     HC  415   0.316   0.492  -0.134  1.6866 -1.1083 -1.6702
   40c3c     HC  416   0.217   0.402  -0.021 -0.5560 -1.3664 -2.5991
   40c3c     HC  417   0.343   0.317  -0.260 -0.5196 -0.8616 -0.9224
   40c3c     HC  418   0.222   0.221  -0.169  0.2391  0.1710 -1.8738
   40c3c     H1  419   0.630   0.303   0.138 -1.3881  0.5587 -0.1337
   40c3c     H1  420   0.632   0.137   0.060 -0.0391  0.3765  0.4503
   40c3c     H1  421   0.661   0.283  -0.028 -0.1772 -0.6202 -0.2165
   40c3c     H1  422   0.413   0.092   0.164 -1.5620  0.1518  0.8989
   40c3c     H1  423   0.412   0.250   0.232 -0.0365  1.4325 -0.5018
   40c3c     C2  424   0.229   0.197   0.147 -0.5239 -0.0677 -0.3998
   40c3c     HC  425   0.190   0.159   0.053  0.7542 -2.1382 -0.1333
   40c3c     HC  426   0.198   0.300   0.161 -0.7986 -0.0824 -0.8965
   40c3c     CT  427   0.163   0.104   0.255  0.5983 -0.2734 -0.5316
   40c3c     HC  428   0.213   0.107   0.352 -0.4924  0.6163  0.0193
   40c3c     HC  429   0.160  -0.001   0.228 -0.2965 -0.3989  0.0443
   40c3c     HC  430   0.056   0.124   0.267  0.3163 -1.5278 -0.8892
   41c3c     N4  431   3.987   1.610   1.978  0.0545  0.2856  0.2674
   41c3c     C1  432   3.992   1.702   2.090  0.0409  0.1604  0.1487
   41c3c     C1  433   4.050   1.689   1.868  0.1980  0.2214  0.0310
   41c3c     C2  434   4.127   1.775   2.081  0.1819  0.8522  0.3849
   41c3c     C2  435   4.168   1.762   1.930  0.8646 -0.5208  0.3240
   41c3c     C1  436   4.056   1.480   2.008 -0.3412  0.4426  0.6261
   41c3c     C1  437   3.848   1.563   1.943  0.3708  0.1008  0.3576
   41c3c     H1  438   3.975   1.648   2.184 -0.7776  1.3884  0.7279
   41c3c     H1  439   3.911   1.775   2.092  0.4752  0.6973 -1.5530
   41c3c     H1  440   4.075   1.628   1.781 -0.6473 -0.3495  0.1768
   41c3c     H1  441   3.976   1.759   1.830 -0.8113 -0.4757  0.6531
   41c3c     HC  442   4.200   1.725   2.145  0.4931  1.5155  0.5518
   41c3c     HC  443   4.119   1.880   2.107  0.2326  1.2021 -1.0071
   41c3c     HC  444   4.258   1.700   1.928  1.9453  1.0359 -0.3118
   41c3c     HC  445   4.195   1.858   1.885  0.2131 -0.0013  1.0224
   41c3c     H1  446   4.025   1.435   2.102  0.1774 -2.1665 -0.4144
   41c3c     H1  447   4.049   1.402   1.933 -0.7608  0.9717  0.1097
   41c3c     H1  448   4.161   1.509   2.013 -0.0403 -0.7459  1.3598
   41c3c     H1  449   3.856   1.482   1.870  0.6823  0.0788  0.4145
   41c3c     H1  450   3.817   1.510   2.034  0.5678  1.3181  1.1365
   41c3c     C2  451   3.746   1.665   1.893  0.3646  0.1602  0.1127
   41c3c     HC  452   3.768   1.709   1.796 -0.6055 -1.2479 -0.7859
   41c3c     HC  453   3.740   1.749   1.962  1.0221 -0.5498  1.0433
   41c3c     CT  454   3.607   1.602   1.883  0.8191 -0.1882  0.3963
   41c3c     HC  455   3.611   1.517   1.814  1.0641 -0.6321  0.9574
   41c3c     HC  456   3.530   1.665   1.840  0.7602 -0.9805 -0.7102
   41c3c     HC  457   3.578   1.566   1.982  1.1099 -1.0052  0.1904
   42c3c     N4  458   1.432   1.462   4.410 -0.1733 -0.1544  0.0576
   42c3c     C1  459   1.358   1.375   4.317 -0.4167  0.2643  0.2542
   42c3c     C1  460   1.546   1.514   4.330 -0.8183  0.2641  0.2987
   42c3c     C2  461   1.369   1.443   4.179 -0.5355 -0.0900  0.0283
   42c3c     C2  462   1.485   1.537   4.190 -0.1187 -0.2137 -0.1163
   42c3c     C1  463   1.345   1.572   4.451 -0.4148 -0.7034 -0.1122
   42c3c     C1  464   1.477   1.394   4.532 -0.2755 -0.1647  0.2842
   42c3c     H1  465   1.258   1.356   4.355 -0.4752  0.6220  0.2753
   42c3c     H1  466   1.405   1.278   4.298 -1.3215 -0.0296 -0.5423
   42c3c     H1  467   1.595   1.604   4.366  0.2795 -0.0354 -0.4181
   42c3c     H1  468   1.622   1.437   4.324 -0.9493  0.1860 -0.4522
   42c3c     HC  469   1.282   1.502   4.150 -0.9068 -0.1186  1.0366
   42c3c     HC  470   1.387   1.369   4.102  0.0954 -0.7978  0.8431
   42c3c     HC  471   1.447   1.638   4.176  0.3971  0.1064  0.7793
   42c3c     HC  472   1.559   1.514   4.114 -0.3332 -0.7188 -0.1755
   42c3c     H1  473   1.266   1.537   4.517  0.1702 -1.5807  0.1350
   42c3c     H1  474   1.397   1.655   4.500 -0.0302  0.3391 -2.2280
   42c3c     H1  475   1.293   1.619   4.368 -1.8242  0.0222  1.1684
   42c3c     H1  476   1.529   1.466   4.595 -0.1771  0.8789 -0.9827
   42c3c     H1  477   1.390   1.365   4.590 -0.3223  1.0925  0.8568
   42c3c     C2  478   1.560   1.265   4.519 -0.3818 -0.5779  0.0894
   42c3c     HC  479   1.657   1.288   4.475 -0.1962 -0.5938  0.4822
   42c3c     HC  480   1.510   1.189   4.459 -1.2259 -0.1686  0.2752
   42c3c     CT  481   1.574   1.198   4.657  0.0134 -0.2406 -0.0402
   42c3c     HC  482   1.476   1.162   4.690  0.1257 -0.0847  0.4671
   42c3c     HC  483   1.617   1.257   4.737 -1.5919 -0.5470  1.0693
   42c3c     HC  484   1.625   1.102   4.650 -1.0405 -0.8213  0.0932
   43c3c     N4  485   1.558   3.576   1.570  0.2254 -0.6660 -0.1615
   43c3c     C1  486   1.634   3.454   1.590  0.2085  0.1010  0.0511
   43c3c     C1  487   1.541   3.586   1.427 -0.6238  0.1696 -0.3673
   43c3c     C2  488   1.575   3.348   1.490 -0.3489 -0.0792 -0.7471
   43c3c     C2  489   1.507   3.439   1.389 -0.6126 -0.1300  0.1239
   43c3c     C1  490   1.424   3.554   1.635 -0.0141  0.0504  0.4229
   43c3c     C1  491   1.619   3.690   1.641 -0.0313  0.2123 -0.1976
   43c3c     H1  492   1.616   3.425   1.693  0.1957 -0.4510 -0.1050
   43c3c     H1  493   1.742   3.466   1.577  0.3931 -2.6750 -1.5122
   43c3c     H1  494   1.459   3.653   1.402 -0.4881  1.0062  1.3943
   43c3c     H1  495   1.632   3.615   1.375  0.5125  1.7683  2.4088
   43c3c     HC  496   1.495   3.288   1.535 -0.7565 -0.0895 -1.4879
   43c3c     HC  497   1.649   3.281   1.446  0.3132 -0.0485  0.3040
   43c3c     HC  498   1.399   3.429   1.398 -0.7474  1.4385  0.3873
   43c3c     HC  499   1.540   3.417   1.288  1.2481 -2.2471  1.1519
   43c3c     H1  500   1.424   3.550   1.744  0.1002 -0.6168  0.3983
   43c3c     H1  501   1.356   3.635   1.606  2.5071  2.5283  1.2543
   43c3c     H1  502   1.370   3.462   1.609 -0.0097 -0.5119  2.3343
   43c3c     H1  503   1.557   3.779   1.640 -1.4746 -0.7731  0.5031
   43c3c     H1  504   1.637   3.668   1.746 -1.0568  1.5124  0.2645
   43c3c     C2  505   1.756   3.740   1.584 -0.3682  0.2305  0.0223
   43c3c     HC  506   1.733   3.793   1.492 -0.3635  0.4981  0.1740
   43c3c     HC  507   1.824   3.660   1.556 -1.5264 -0.7072 -0.1436
   43c3c     CT  508   1.818   3.845   1.684 -0.2697 -0.0082  0.4992
   43c3c     HC  509   1.787   3.948   1.669 -1.1258  0.1545  3.1392
   43c3c     HC  510   1.925   3.851   1.666 -0.3443  1.0566  0.3949
   43c3c     HC  511   1.806   3.819   1.789 -0.4453 -0.9425  0.2534
   44c3c     N4  512   1.909   1.985   5.098 -0.1810 -0.5029 -0.2118
   44c3c     C1  513   1.990   1.875   5.159  0.1333 -0.1229 -0.2330
   44c3c     C1  514   1.969   2.107   5.145  0.6003 -0.0691 -0.6574
   44c3c     C2  515   2.136   1.927   5.152  0.0183  0.4529 -0.4474
   44c3c     C2  516   2.121   2.079   5.148  0.4311  0.1034 -1.2855
   44c3c     C1  517   1.925   1.970   4.955 -0.3328 -0.2390 -0.1666
   44c3c     C1  518   1.761   1.978   5.123  0.2437 -0.1200 -0.7952
   44c3c     H1  519   1.974   1.776   5.116  0.8722 -0.1532 -0.4368
   44c3c     H1  520   1.971   1.861   5.265  0.4753  0.6854 -0.0591
   44c3c     H1  521   1.942   2.193   5.083 -0.5137  0.0677  0.0082
   44c3c     H1  522   1.932   2.137   5.243 -1.3950 -0.5288 -1.2462
   44c3c     HC  523   2.182   1.886   5.062  0.3083 -0.9416  0.3210
   44c3c     HC  524   2.204   1.889   5.229  0.3785  0.7819 -0.6044
   44c3c     HC  525   2.169   2.124   5.061  0.1477  1.0506 -0.9565
   44c3c     HC  526   2.171   2.129   5.230 -0.3159  1.0234 -1.3809
   44c3c     H1  527   1.885   1.874   4.920 -0.4795 -0.5468  0.8174
   44c3c     H1  528   1.877   2.053   4.904  0.2927 -0.0520 -0.4522
   44c3c     H1  529   2.027   1.976   4.917  0.0001  1.3222  0.9485
   44c3c     H1  530   1.726   2.068   5.071 -1.1328 -0.5745 -0.6757
   44c3c     H1  531   1.713   1.893   5.074  0.2894 -0.0913 -0.8893
   44c3c     C2  532   1.716   1.983   5.271 -0.1011 -0.4692 -0.2026
   44c3c     HC  533   1.743   2.077   5.321 -1.0056 -0.0601 -0.4767
   44c3c     HC  534   1.766   1.908   5.331 -1.1163 -0.8454  0.1765
   44c3c     CT  535   1.565   1.977   5.281  0.0091  0.0929 -1.1899
   44c3c     HC  536   1.520   1.891   5.232  0.3927 -0.4045 -0.6787
   44c3c     HC  537   1.517   2.062   5.234  0.5265 -0.4470 -2.7023
   44c3c     HC  538   1.528   1.971   5.384 -0.8296  0.3664 -1.4702
   45c3c     N4  539   1.675   2.618   1.290 -0.6727  0.0974 -0.3164
   45c3c     C1  540   1.599   2.567   1.403  0.1076  0.3471 -0.8251
   45c3c     C1  541   1.707   2.495   1.211 -0.7734  0.2427  0.1942
   45c3c     C2  542   1.527   2.437   1.349 -0.2419 -0.3439  0.6339
   45c3c     C2  543   1.589   2.403   1.212 -0.5403 -0.0234 -0.0284
   45c3c     C1  544   1.593   2.720   1.212  0.0171  0.3407 -0.2147
   45c3c     C1  545   1.798   2.695   1.324 -1.0207 -0.3367  0.2229
   45c3c     H1  546   1.520   2.627   1.449  0.0361 -0.1895 -0.2394
   45c3c     H1  547   1.667   2.529   1.480 -0.1740 -0.6182 -1.0435
   45c3c     H1  548   1.749   2.519   1.113  0.8171 -2.1887  0.2705
   45c3c     H1  549   1.789   2.439   1.254  0.0156  0.1422 -1.4321
   45c3c     HC  550   1.421   2.459   1.334 -0.1553 -0.6974 -0.6065
   45c3c     HC  551   1.531   2.352   1.417 -1.2407 -0.0272  1.1013
   45c3c     HC  552   1.525   2.426   1.127  0.4332 -0.1151 -0.7907
   45c3c     HC  553   1.618   2.298   1.209  2.2169  0.6566  0.9870
   45c3c     H1  554   1.565   2.801   1.280 -0.7539  0.5066 -0.7224
   45c3c     H1  555   1.642   2.776   1.132  1.0589 -0.7174 -0.3473
   45c3c     H1  556   1.507   2.670   1.168  1.4899 -0.8388 -1.8115
   45c3c     H1  557   1.840   2.742   1.235 -0.4669  0.4739  0.8972
   45c3c     H1  558   1.759   2.776   1.386 -0.1624  0.3860 -0.1695
   45c3c     C2  559   1.917   2.623   1.390  0.1177  0.5037 -0.0387
   45c3c     HC  560   1.964   2.551   1.323 -0.1321  1.6007 -1.4141
   45c3c     HC  561   1.893   2.571   1.483  0.1839  0.3722 -0.0945
   45c3c     CT  562   2.023   2.727   1.428  0.3172 -0.2336 -0.3118
   45c3c     HC  563   2.068   2.765   1.336  0.2654 -0.5814 -0.4808
   45c3c     HC  564   2.106   2.680   1.481 -0.2674 -0.9562 -0.0486
   45c3c     HC  565   1.992   2.812   1.489 -0.9830  0.2916 -1.6688
   46c3c     N4  566   1.193   2.866   0.587  0.6314  0.1862 -0.0683
   46c3c     C1  567   1.231   2.942   0.708 -0.4395 -0.0606 -0.3911
   46c3c     C1  568   1.156   2.960   0.487 -0.1080 -0.1354 -1.2263
   46c3c     C2  569   1.294   3.072   0.656  0.3945 -0.1524 -0.7760
   46c3c     C2  570   1.236   3.083   0.515 -0.1208  0.1136 -1.1325
   46c3c     C1  571   1.322   2.803   0.539  0.1911 -0.1842  0.3870
   46c3c     C1  572   1.092   2.761   0.615  0.0911  0.1315 -0.1510
   46c3c     H1  573   1.292   2.892   0.784 -1.5770 -0.5564  0.2146
   46c3c     H1  574   1.146   2.978   0.766 -0.1822 -1.8775  1.1555
   46c3c     H1  575   1.179   2.926   0.386 -1.0614 -0.0105 -1.4901
   46c3c     H1  576   1.050   2.985   0.491 -0.0041  0.3405 -1.3709
   46c3c     HC  577   1.402   3.065   0.663  0.2545 -2.9170 -0.9716
   46c3c     HC  578   1.267   3.154   0.722  2.0841  0.0663 -0.3287
   46c3c     HC  579   1.315   3.090   0.440  1.5151 -0.4767  0.5156
   46c3c     HC  580   1.176   3.174   0.505  0.1463  0.3796 -0.3083
   46c3c     H1  581   1.348   2.720   0.604  1.7296 -0.2741 -0.3199
   46c3c     H1  582   1.305   2.760   0.440  0.0858 -0.5046  0.5456
   46c3c     H1  583   1.408   2.871   0.535  0.4210 -0.4898  0.0716
   46c3c     H1  584   1.066   2.717   0.519  2.2070 -0.3424 -0.5361
   46c3c     H1  585   1.136   2.678   0.672  1.2555  0.4792 -0.5293
   46c3c     C2  586   0.956   2.798   0.690 -0.2384  0.1247 -0.3173
   46c3c     HC  587   0.897   2.864   0.626 -0.2820  0.2786 -0.1190
   46c3c     HC  588   0.982   2.852   0.781 -0.8189 -0.8805  0.4622
   46c3c     CT  589   0.864   2.685   0.745 -0.2125 -0.0409 -0.5633
   46c3c     HC  590   0.798   2.717   0.825  0.5875 -0.5656  0.3228
   46c3c     HC  591   0.928   2.604   0.781  0.7364  0.2493 -1.5617
   46c3c     HC  592   0.800   2.640   0.669  1.5904 -2.0577 -0.9435
   47c3c     N4  593   1.613   1.070   3.078  0.4277  0.1614 -0.1352
   47c3c     C1  594   1.561   1.099   2.943 -0.0824  0.2505 -0.2359
   47c3c     C1  595   1.764   1.073   3.062  0.1167 -0.3333 -0.0580
   47c3c     C2  596   1.656   1.203   2.889  0.0540 -0.1486 -0.1187
   47c3c     C2  597   1.783   1.192   2.968  0.1385 -0.2732 -0.5642
   47c3c     C1  598   1.562   1.177   3.173 -0.0032 -0.1303  0.6907
   47c3c     C1  599   1.552   0.945   3.121 -0.2265 -0.1783 -0.4820
   47c3c     H1  600   1.455   1.126   2.947  0.0142  0.7257 -0.9081
   47c3c     H1  601   1.571   1.014   2.876 -1.5281  0.4990 -0.7943
   47c3c     H1  602   1.822   1.082   3.153  0.4112 -0.5964 -0.2173
   47c3c     H1  603   1.788   0.981   3.008 -0.1327  0.6763 -1.9181
   47c3c     HC  604   1.616   1.303   2.905  1.2712  0.5646 -1.4050
   47c3c     HC  605   1.670   1.193   2.782 -0.6011  1.2376 -0.3467
   47c3c     HC  606   1.793   1.289   3.017  0.7106 -0.3578 -0.5145
   47c3c     HC  607   1.872   1.186   2.906  0.3623 -0.1014 -0.2612
   47c3c     H1  608   1.453   1.182   3.172  0.0603  1.4379 -0.8752
   47c3c     H1  609   1.601   1.162   3.273 -1.7101 -0.5523  1.3043
   47c3c     H1  610   1.589   1.277   3.138  0.0145 -0.1830  0.5520
   47c3c     H1  611   1.571   0.930   3.227  0.1670 -0.4984 -0.5968
   47c3c     H1  612   1.444   0.948   3.101 -0.1953 -0.3597 -0.6872
   47c3c     C2  613   1.600   0.811   3.049  0.5704 -0.0757 -0.0414
   47c3c     HC  614   1.703   0.789   3.080  0.6134 -0.4337 -0.4324
   47c3c     HC  615   1.594   0.813   2.941  0.3871 -1.3260 -0.0691
   47c3c     CT  616   1.518   0.686   3.096  0.9048 -0.6639 -0.1130
   47c3c     HC  617   1.412   0.698   3.073  1.0827 -1.0792 -1.1977
   47c3c     HC  618   1.532   0.675   3.203 -0.2987  0.5567  0.1953
   47c3c     HC  619   1.556   0.594   3.051  1.0106 -0.4101 -0.5463
   48c3c     N4  620   3.676   1.403   4.376 -0.2429  0.1065  0.1550
   48c3c     C1  621   3.617   1.350   4.500 -0.1343  0.0866  0.2863
   48c3c     C1  622   3.608   1.328   4.271  0.2435 -0.2262  0.2393
   48c3c     C2  623   3.469   1.320   4.465 -0.2285  0.2664  0.1106
   48c3c     C2  624   3.463   1.318   4.310 -0.4637 -0.1268 -0.4732
   48c3c     C1  625   3.647   1.545   4.369 -0.2566 -0.2075  0.1865
   48c3c     C1  626   3.822   1.389   4.359  0.1552  0.0965  0.5088
   48c3c     H1  627   3.626   1.412   4.589 -3.0704 -0.7147  1.1864
   48c3c     H1  628   3.663   1.254   4.524 -0.2585  0.1373  0.7327
   48c3c     H1  629   3.625   1.366   4.171  0.3324 -1.3105 -0.1580
   48c3c     H1  630   3.640   1.224   4.266 -1.0732 -0.6881  1.1541
   48c3c     HC  631   3.410   1.403   4.504 -0.1973  0.1361  0.4378
   48c3c     HC  632   3.447   1.220   4.503 -0.7431  0.3250 -0.0335
   48c3c     HC  633   3.411   1.408   4.276 -0.2241 -0.0576 -0.6603
   48c3c     HC  634   3.406   1.233   4.273 -1.5007  1.0216 -1.5978
   48c3c     H1  635   3.698   1.592   4.453 -0.0430  3.6017 -1.9814
   48c3c     H1  636   3.689   1.591   4.280 -1.4623  0.1986 -0.1806
   48c3c     H1  637   3.542   1.570   4.381  0.2188  2.0061 -0.0208
   48c3c     H1  638   3.848   1.441   4.267  0.4155 -0.4703  0.2602
   48c3c     H1  639   3.878   1.432   4.442  0.2445  1.8585 -0.4544
   48c3c     C2  640   3.882   1.250   4.339  0.5566  0.1319 -0.2135
   48c3c     HC  641   3.841   1.203   4.249  1.0050  0.2863 -0.5000
   48c3c     HC  642   3.866   1.187   4.427  1.6405  0.8899  0.5464
   48c3c     CT  643   4.034   1.261   4.309  0.0858  0.9022 -0.0653
   48c3c     HC  644   4.091   1.309   4.388  0.8893 -0.3065  0.1030
   48c3c     HC  645   4.053   1.313   4.214 -1.7523  1.5036 -0.1175
   48c3c     HC  646   4.076   1.161   4.299  1.0313  1.3037 -0.1291
   49c3c     N4  647   4.708   1.344   2.174  0.0761  0.0321  0.1514
   49c3c     C1  648   4.845   1.290   2.148  0.1733  0.2971 -0.4617
   49c3c     C1  649   4.715   1.482   2.124  0.1437  0.5489 -0.1081
   49c3c     C2  650   4.874   1.343   2.004 -0.0145  0.3996 -0.0375
   49c3c     C2  651   4.795   1.471   1.992  0.0377  0.0662 -0.4891
   49c3c     C1  652   4.603   1.274   2.102  0.0886  0.3637 -0.5048
   49c3c     C1  653   4.676   1.347   2.315 -0.4921 -0.1666  0.3552
   49c3c     H1  654   4.858   1.182   2.163  0.9584  0.6739  1.8154
   49c3c     H1  655   4.919   1.343   2.207 -0.7615  1.3100 -0.1780
   49c3c     H1  656   4.613   1.518   2.108  0.3832  1.5006  0.4936
   49c3c     H1  657   4.762   1.556   2.188  1.3461  0.1162 -0.4896
   49c3c     HC  658   4.837   1.269   1.933  0.7540  1.0142 -1.0936
   49c3c     HC  659   4.981   1.353   1.987  0.1292  1.1077  1.2855
   49c3c     HC  660   4.727   1.458   1.907  0.2602 -0.1102 -0.6424
   49c3c     HC  661   4.862   1.557   1.983  0.0106  0.2143  0.6851
   49c3c     H1  662   4.614   1.166   2.117 -2.4679 -0.1263 -1.8503
   49c3c     H1  663   4.504   1.304   2.134  0.3455 -0.6375  1.2680
   49c3c     H1  664   4.606   1.287   1.993 -0.3404 -0.1201 -0.5739
   49c3c     H1  665   4.580   1.397   2.329  0.5651  2.2588 -0.8482
   49c3c     H1  666   4.669   1.242   2.345 -0.6669  0.2524  1.8029
   49c3c     C2  667   4.782   1.403   2.411 -0.2443 -0.4952 -0.0320
   49c3c     HC  668   4.836   1.489   2.371  1.1350 -0.6884  1.3926
   49c3c     HC  669   4.863   1.332   2.429 -0.4820 -0.6625  0.3625
   49c3c     CT  670   4.722   1.454   2.541 -0.4508 -0.5261  0.1006
   49c3c     HC  671   4.672   1.370   2.589  0.2013 -0.6052  0.6363
   49c3c     HC  672   4.644   1.527   2.517 -0.8894 -0.6933  1.0355
   49c3c     HC  673   4.796   1.502   2.605 -0.0014  0.5601 -1.1894
   50c3c     N4  674   2.624   3.545   4.387  0.3392  0.7087 -0.2466
   50c3c     C1  675   2.560   3.654   4.311  0.0940 -0.1243 -1.2380
   50c3c     C1  676   2.761   3.560   4.349  0.0388 -0.1240 -0.2972
   50c3c     C2  677   2.653   3.776   4.333  0.0444  0.2344 -0.0480
   50c3c     C2  678   2.789   3.712   4.345  0.2179  0.3027  0.2180
   50c3c     C1  679   2.615   3.553   4.534  0.5806  0.4496 -0.8168
   50c3c     C1  680   2.579   3.408   4.357  0.0258 -0.0247 -0.2107
   50c3c     H1  681   2.460   3.676   4.349 -0.1823  1.0105 -2.5859
   50c3c     H1  682   2.558   3.640   4.203  3.4227  0.8662 -1.4986
   50c3c     H1  683   2.829   3.509   4.417 -0.6095  0.6463  0.9541
   50c3c     H1  684   2.771   3.526   4.246  0.5287  0.9451 -0.6159
   50c3c     HC  685   2.629   3.827   4.427 -1.2179 -1.6644  0.6988
   50c3c     HC  686   2.653   3.854   4.257  0.3914  0.8693  0.5961
   50c3c     HC  687   2.840   3.739   4.437 -0.2291  0.5093  0.4040
   50c3c     HC  688   2.849   3.736   4.257 -1.1327  0.6262 -0.6233
   50c3c     H1  689   2.514   3.547   4.575  2.0006 -0.1668  2.7882
   50c3c     H1  690   2.662   3.473   4.590 -0.6828 -0.8595 -1.5689
   50c3c     H1  691   2.659   3.647   4.569 -0.9106  0.7444  0.3258
   50c3c     H1  692   2.644   3.334   4.403  0.2095  1.4703  2.0665
   50c3c     H1  693   2.479   3.396   4.399 -0.2148  0.4320 -0.6346
   50c3c     C2  694   2.567   3.356   4.213  0.0602  0.1470 -0.1036
   50c3c     HC  695   2.662   3.371   4.161  0.5146 -1.8441  0.1357
   50c3c     HC  696   2.486   3.412   4.165  1.0220  0.1160 -1.7946
   50c3c     CT  697   2.523   3.209   4.193 -0.2821 -0.5419  0.5322
   50c3c     HC  698   2.487   3.188   4.092 -0.0714  0.8553  0.1595
   50c3c     HC  699   2.443   3.178   4.260 -0.4564  0.6932  0.9038
   50c3c     HC  700   2.606   3.144   4.219  1.1724  1.1288  0.1346
   51fsi    FSI  701   4.806   3.413   2.440 -0.1221  0.0415  0.0739
   51fsi    SBT  702   4.735   3.326   2.551 -0.3057 -0.2093 -0.4478
   51fsi    NBT  703   4.581   3.337   2.519  0.0796  0.2403 -0.3969
   51fsi    OBT  704   4.788   3.192   2.535 -0.2642 -0.0069 -0.7673
   51fsi    OBT  705   4.775   3.396   2.671  0.6086 -0.7722  0.3821
   51fsi    SBT  706   4.496   3.250   2.426  0.1976  0.0199  0.2869
   51fsi    OBT  707   4.569   3.186   2.322  0.2208 -0.4564 -0.1409
   51fsi    OBT  708   4.379   3.320   2.387  0.2687 -0.0328  0.2544
   51fsi    FSI  709   4.436   3.128   2.517  0.2476 -0.0695 -0.0043
   52fsi    FSI  710   0.419   1.410   3.562 -0.4819  0.8127 -0.0507
   52fsi    SBT  711   0.506   1.283   3.588 -0.2779  0.0495  0.5139
   52fsi    NBT  712   0.527   1.287   3.744 -0.2274  0.7650  0.4456
   52fsi    OBT  713   0.413   1.183   3.550 -0.4691  0.0443  0.5397
   52fsi    OBT  714   0.622   1.292   3.497  0.1571 -0.0117 -0.0163
   52fsi    SBT  715   0.656   1.291   3.833 -0.0041  0.1469  0.0465
   52fsi    OBT  716   0.642   1.376   3.948  0.0741 -0.3205  0.7053
   52fsi    OBT  717   0.771   1.289   3.747 -0.3469  0.0499 -0.1334
   52fsi    FSI  718   0.656   1.149   3.903 -0.1540 -0.5300 -0.2096
   53fsi    FSI  719   1.565   3.082   1.178 -0.0889 -0.5440 -0.4786
   53fsi    SBT  720   1.717   3.084   1.192 -0.3014 -0.4076  0.0504
   53fsi    NBT  721   1.751   3.235   1.198 -0.3254  0.1464 -0.1230
   53fsi    OBT  722   1.735   3.029   1.325  0.3984 -0.1220  0.3348
   53fsi    OBT  723   1.764   3.007   1.080  0.2354 -0.1958 -0.1623
   53fsi    SBT  724   1.832   3.315   1.090 -0.8678  0.5175 -0.1417
   53fsi    OBT  725   1.912   3.231   1.005 -0.1521 -0.0098  0.0713
   53fsi    OBT  726   1.893   3.432   1.145 -0.4532 -0.3154 -0.1252
   53fsi    FSI  727   1.726   3.374   0.992  0.6793 -0.1592 -0.5930
   54fsi    FSI  728   3.393   1.709   3.822 -0.0788 -0.5138 -0.1685
   54fsi    SBT  729   3.498   1.718   3.938  0.0557  0.3737 -0.3258
   54fsi    NBT  730   3.617   1.659   3.858 -0.1358  0.2881  0.4908
   54fsi    OBT  731   3.511   1.860   3.967 -0.1086  0.4878  0.3929
   54fsi    OBT  732   3.441   1.625   4.027 -0.1441  0.2529  0.2063
   54fsi    SBT  733   3.762   1.728   3.836  0.3031 -0.0544 -0.4337
   54fsi    OBT  734   3.759   1.864   3.791  0.0287  0.3029 -0.7576
   54fsi    OBT  735   3.864   1.637   3.783  0.4672 -0.2500  0.5473
   54fsi    FSI  736   3.806   1.738   3.982 -0.1575  0.1798 -0.1155
   55fsi    FSI  737   2.765   3.211   3.546  0.1191 -0.1037  0.5888
   55fsi    SBT  738   2.897   3.195   3.624  0.8762  0.1366 -0.0354
   55fsi    NBT  739   2.866   3.278   3.757  0.1407 -0.9021 -0.7838
   55fsi    OBT  740   2.898   3.055   3.641 -0.4893  0.0685  1.1130
   55fsi    OBT  741   2.991   3.264   3.538 -1.2000  0.4256 -0.1701
   55fsi    SBT  742   2.865   3.218   3.907 -0.0417 -0.4871  0.3542
   55fsi    OBT  743   2.918   3.315   3.997 -0.2322  0.1044  1.1413
   55fsi    OBT  744   2.917   3.084   3.919  0.5560 -0.5721  0.2665
   55fsi    FSI  745   2.711   3.196   3.947 -0.2512 -0.8534 -0.2834
   56fsi    FSI  746   1.950   1.667   4.617 -0.1845  0.3230 -0.0899
   56fsi    SBT  747   1.799   1.624   4.630 -0.2462 -0.1785 -0.3001
   56fsi    NBT  748   1.710   1.740   4.574 -0.1403  0.4883  0.0067
   56fsi    OBT  749   1.784   1.505   4.550 -0.1638 -0.1194 -0.2090
   56fsi    OBT  750   1.784   1.607   4.770 -0.3258 -0.3632 -0.1413
   56fsi    SBT  751   1.606   1.838   4.650 -0.0805  0.0683  0.1286
   56fsi    OBT  752   1.548   1.927   4.550  0.2352 -0.2879 -0.5070
   56fsi    OBT  753   1.662   1.897   4.768 -0.6693  0.4485  0.1651
   56fsi    FSI  754   1.484   1.748   4.698  0.0464 -0.4945 -0.2370
   57fsi    FSI  755   3.938   1.318   2.303 -0.5855  0.5451 -0.3545
   57fsi    SBT  756   4.003   1.310   2.445 -0.5284  0.1130 -0.1879
   57fsi    NBT  757   4.149   1.369   2.434  0.0858 -0.4106  0.4922
   57fsi    OBT  758   3.921   1.398   2.533  0.2812  0.4319  0.3374
   57fsi    OBT  759   4.005   1.165   2.460  0.3183 -0.5445 -0.3712
   57fsi    SBT  760   4.281   1.309   2.375  0.1827  0.1455  0.2316
   57fsi    OBT  761   4.257   1.186   2.306  0.6879 -0.2389 -0.2625
   57fsi    OBT  762   4.390   1.320   2.471 -0.0769  0.4010  0.0654
   57fsi    FSI  763   4.312   1.415   2.257 -0.4087 -0.3398 -0.0640
   58fsi    FSI  764   4.677   0.789   1.535 -0.0020  0.0142  0.4154
   58fsi    SBT  765   4.707   0.739   1.681 -0.5060 -0.0715 -0.0266
   58fsi    NBT  766   4.746   0.876   1.759  0.2499  0.1594  0.5330
   58fsi    OBT  767   4.587   0.680   1.723 -0.3879  0.2064  0.3121
   58fsi    OBT  768   4.822   0.649   1.669  0.9544  0.6897  0.4000
   58fsi    SBT  769   4.670   0.947   1.872  0.5678 -0.5463 -0.3052
   58fsi    OBT  770   4.765   1.012   1.957  0.1016  0.2056  0.3947
   58fsi    OBT  771   4.562   0.871   1.937  0.2638  0.3724  0.2596
   58fsi    FSI  772   4.594   1.070   1.802 -0.1734  0.4458  0.2394
   59fsi    FSI  773   0.966   4.568   0.208 -0.8619  0.6104 -0.2271
   59fsi    SBT  774   0.919   4.546   0.357 -0.3848 -0.0980  0.2773
   59fsi    NBT  775   0.995   4.649   0.452 -1.0674  1.0239  0.6538
   59fsi    OBT  776   0.776   4.578   0.344 -0.3531  0.8175 -0.3468
   59fsi    OBT  777   0.958   4.418   0.404 -0.0073 -0.1974  0.4271
   59fsi    SBT  778   0.962   4.803   0.477  0.1921 -0.2124  0.1190
   59fsi    OBT  779   0.908   4.865   0.360  0.6124  0.3079  1.3557
   59fsi    OBT  780   1.069   4.881   0.538  0.1908 -0.2050  0.3327
   59fsi    FSI  781   0.849   4.804   0.577 -0.6623 -0.0451  0.3113
   60fsi    FSI  782   3.805   2.314   3.896 -0.6057 -0.2021 -0.3121
   60fsi    SBT  783   3.643   2.303   3.874  0.0143  0.0870 -0.4795
   60fsi    NBT  784   3.621   2.341   3.724 -0.7023 -0.2759  0.2021
   60fsi    OBT  785   3.607   2.167   3.895 -0.5347  0.5990 -0.0387
   60fsi    OBT  786   3.587   2.402   3.963  0.7447 -0.5206 -0.0887
   60fsi    SBT  787   3.583   2.482   3.663  0.0459  0.3241  0.0488
   60fsi    OBT  788   3.626   2.501   3.525 -0.0633  0.8081 -0.7850
   60fsi    OBT  789   3.574   2.591   3.764 -0.4729  0.2826  0.4928
   60fsi    FSI  790   3.435   2.447   3.639 -0.7053  0.8724  0.0615
   61fsi    FSI  791   2.834   3.628   4.894 -0.9412  0.4066  0.0932
   61fsi    SBT  792   2.896   3.663   4.758 -0.3273  0.1365  0.2447
   61fsi    NBT  793   3.036   3.720   4.792 -0.0226 -0.4699 -0.5143
   61fsi    OBT  794   2.896   3.546   4.676 -0.9185  0.0912  0.2175
   61fsi    OBT  795   2.804   3.761   4.708 -0.6415 -0.7124  0.1466
   61fsi    SBT  796   3.154   3.633   4.852 -0.1970  0.2234  0.2488
   61fsi    OBT  797   3.270   3.708   4.887 -0.4466 -0.1849  0.7053
   61fsi    OBT  798   3.170   3.501   4.785  0.1638 -0.4432 -0.5523
   61fsi    FSI  799   3.080   3.597   4.985 -0.7878  0.4203  0.3406
   62fsi    FSI  800   3.656   3.150   4.627  0.2583 -0.4103  0.4082
   62fsi    SBT  801   3.519   3.200   4.568 -0.3628 -0.3524 -0.2485
   62fsi    NBT  802   3.440   3.078   4.606  1.1876 -0.6121 -0.3821
   62fsi    OBT  803   3.494   3.322   4.635 -0.8282 -0.6055 -0.2864
   62fsi    OBT  804   3.533   3.203   4.432  0.1790 -0.5352  0.6274
   62fsi    SBT  805   3.307   3.077   4.700  0.4210  0.1513  0.3613
   62fsi    OBT  806   3.237   2.952   4.712 -0.5246 -0.3236  0.3100
   62fsi    OBT  807   3.233   3.198   4.677  0.3284 -0.2925  0.2459
   62fsi    FSI  808   3.377   3.107   4.842 -0.1309 -0.1851 -0.4910
   63fsi    FSI  809   1.057   3.887   1.887 -0.2815  0.3603 -0.5505
   63fsi    SBT  810   1.174   3.891   1.782 -0.1824 -0.0786  0.3310
   63fsi    NBT  811   1.094   3.847   1.659 -0.6996  0.1500  0.6442
   63fsi    OBT  812   1.218   4.028   1.789 -0.2898  0.0517 -0.0859
   63fsi    OBT  813   1.264   3.790   1.837 -0.5468 -0.8039 -0.3657
   63fsi    SBT  814   1.010   3.944   1.570  0.3140  0.0082 -0.2754
   63fsi    OBT  815   1.036   4.083   1.597 -0.0536  0.3203  0.1628
   63fsi    OBT  816   0.874   3.896   1.564 -0.4177 -0.3618 -0.1649
   63fsi    FSI  817   1.068   3.920   1.428  0.3218 -0.0826 -0.0891
   64fsi    FSI  818   2.712   0.187   2.318  0.1115  0.2172  0.0312
   64fsi    SBT  819   2.659   0.243   2.178  0.3296  0.2197  0.2964
   64fsi    NBT  820   2.608   0.381   2.230 -0.3452  0.0968  0.2675
   64fsi    OBT  821   2.778   0.251   2.097  0.1573  0.7126  0.2686
   64fsi    OBT  822   2.555   0.156   2.133  0.3190  0.2598 -0.0550
   64fsi    SBT  823   2.682   0.518   2.220 -0.0893 -0.0950 -0.0445
   64fsi    OBT  824   2.821   0.516   2.188 -0.2836  0.0435  0.3897
   64fsi    OBT  825   2.644   0.620   2.316  0.1200 -0.0452 -0.0792
   64fsi    FSI  826   2.618   0.575   2.086 -0.0608  0.2359  0.2209
   65fsi    FSI  827   1.246   2.260   4.136 -0.1105 -0.1732  0.6342
   65fsi    SBT  828   1.196   2.191   4.001  0.0469  0.1409 -0.3163
   65fsi    NBT  829   1.306   2.227   3.898 -0.0725  0.6999  0.2372
   65fsi    OBT  830   1.193   2.049   4.037 -0.1719  0.2007  0.3210
   65fsi    OBT  831   1.073   2.258   3.980  0.2928 -0.7390  0.4268
   65fsi    SBT  832   1.288   2.219   3.742 -0.1383  0.2078 -0.2506
   65fsi    OBT  833   1.388   2.290   3.666 -0.3000 -0.0265 -0.1202
   65fsi    OBT  834   1.153   2.229   3.689  0.0936  0.1214 -0.1107
   65fsi    FSI  835   1.330   2.069   3.706  0.3263  0.5420  0.6280
   66fsi    FSI  836   3.631   0.606   1.591  0.1217  0.5964 -0.0802
   66fsi    SBT  837   3.514   0.576   1.691  0.1349  0.0781  0.0166
   66fsi    NBT  838   3.519   0.695   1.794  0.2225  0.1008  0.3681
   66fsi    OBT  839   3.400   0.582   1.602  0.2053 -0.1011  0.2687
   66fsi    OBT  840   3.539   0.448   1.752  0.4958  0.7460  0.4091
   66fsi    SBT  841   3.608   0.714   1.923 -0.1187  0.0400  0.2496
   66fsi    OBT  842   3.682   0.601   1.972 -0.3078  0.0572  0.2212
   66fsi    OBT  843   3.545   0.796   2.021 -0.0542  0.3402 -0.0022
   66fsi    FSI  844   3.724   0.808   1.860 -0.3486  0.4291  0.0035
   67fsi    FSI  845   0.987   1.103   2.953 -0.0384 -0.2778  0.2395
   67fsi    SBT  846   1.091   1.028   2.859  0.2766 -0.0622  0.3916
   67fsi    NBT  847   1.000   0.924   2.784  0.1203  0.1645  0.2810
   67fsi    OBT  848   1.146   1.129   2.774  0.5664 -0.2694  0.0965
   67fsi    OBT  849   1.182   0.966   2.950 -0.0218 -0.1763  0.9638
   67fsi    SBT  850   0.878   0.962   2.694 -0.1304 -0.0678  0.2761
   67fsi    OBT  851   0.861   1.103   2.688 -0.2381 -0.2560  0.2463
   67fsi    OBT  852   0.761   0.881   2.714  0.0155 -0.3458  1.0538
   67fsi    FSI  853   0.925   0.928   2.550 -0.1006 -0.5046  0.2659
   68fsi    FSI  854   0.507   4.444   0.820  0.0729  0.6820  0.0785
   68fsi    SBT  855   0.648   4.477   0.754 -0.4070  0.1043  0.2927
   68fsi    NBT  856   0.746   4.516   0.869 -0.0274  0.4793  0.0668
   68fsi    OBT  857   0.680   4.347   0.691 -0.8596 -0.0589  0.5878
   68fsi    OBT  858   0.622   4.589   0.664 -0.0387 -0.3617  0.3545
   68fsi    SBT  859   0.891   4.576   0.852 -0.1613  0.2537  0.5878
   68fsi    OBT  860   0.963   4.537   0.733  0.0941  0.6456  0.1739
   68fsi    OBT  861   0.957   4.563   0.979  0.7833 -0.3154 -0.1756
   68fsi    FSI  862   0.869   4.731   0.835 -0.5502  0.3949  0.4564
   69fsi    FSI  863   3.119   2.911   4.401  0.0235 -0.2808  0.7376
   69fsi    SBT  864   3.109   3.045   4.316  0.2079  0.1105  0.5758
   69fsi    NBT  865   3.261   3.065   4.259  0.1060 -0.4874 -0.6701
   69fsi    OBT  866   3.022   3.004   4.211  0.1578 -0.0933  0.3774
   69fsi    OBT  867   3.080   3.144   4.411  0.1400  0.0242  0.1193
   69fsi    SBT  868   3.346   2.960   4.173  0.4830 -0.9043 -0.0417
   69fsi    OBT  869   3.464   3.014   4.124  0.0847  0.1357  0.1575
   69fsi    OBT  870   3.273   2.882   4.082 -0.0219  0.0805  1.2295
   69fsi    FSI  871   3.397   2.848   4.273 -0.2212  0.6198  0.7143
   70fsi    FSI  872   4.580   1.888   2.128 -0.5602  0.2339  0.7538
   70fsi    SBT  873   4.491   1.858   2.253 -0.3180 -0.1488 -0.0691
   70fsi    NBT  874   4.561   1.937   2.366 -0.1449 -0.3355 -0.1303
   70fsi    OBT  875   4.365   1.916   2.219 -0.0811  0.1976 -0.0725
   70fsi    OBT  876   4.501   1.716   2.264  0.0437 -0.0506  0.1269
   70fsi    SBT  877   4.707   1.920   2.427 -0.0965  0.0330 -0.4876
   70fsi    OBT  878   4.772   1.796   2.391 -0.2789  0.4497  0.3587
   70fsi    OBT  879   4.715   1.977   2.558 -0.6977 -0.1551  0.2081
   70fsi    FSI  880   4.793   2.022   2.344 -0.6376 -0.0190 -1.1252
   71fsi    FSI  881   1.135   4.239   0.942 -0.0801  0.3461  0.1949
   71fsi    SBT  882   1.109   4.188   0.797  0.1724  0.4166  0.4104
   71fsi    NBT  883   1.104   4.028   0.804 -0.5208  0.0781  0.4373
   71fsi    OBT  884   0.986   4.249   0.764 -0.2216 -0.7424 -0.7956
   71fsi    OBT  885   1.222   4.233   0.724  0.9144 -0.8718  0.4823
   71fsi    SBT  886   0.978   3.929   0.836  0.2170 -0.2464  0.2636
   71fsi    OBT  887   0.873   3.992   0.910  0.0430  0.7273 -0.4940
   71fsi    OBT  888   1.007   3.792   0.871  0.6368 -1.6213  0.3848
   71fsi    FSI  889   0.912   3.923   0.698  0.3556  0.1690 -0.0293
   72fsi    FSI  890   1.363   0.882   4.106 -0.6591  0.0845  0.2040
   72fsi    SBT  891   1.335   1.015   4.035  0.2980  0.2833 -0.1161
   72fsi    NBT  892   1.470   1.079   4.007  0.1606  0.5354 -0.5287
   72fsi    OBT  893   1.267   0.977   3.917 -0.9697  0.5090 -0.3050
   72fsi    OBT  894   1.263   1.092   4.132 -0.9592  1.2291 -0.2530
   72fsi    SBT  895   1.567   1.079   3.884 -0.0488  0.1435 -0.0231
   72fsi    OBT  896   1.512   1.033   3.753  0.1714  0.0992  0.2037
   72fsi    OBT  897   1.704   1.038   3.908  0.1987  0.3199  0.4937
   72fsi    FSI  898   1.585   1.225   3.856 -0.3624 -0.6940  0.0438
   73fsi    FSI  899   3.704   0.843   4.648 -0.0124 -0.0311  0.3315
   73fsi    SBT  900   3.573   0.909   4.590  0.1021  0.0536 -0.1473
   73fsi    NBT  901   3.625   0.963   4.451 -0.5422  0.0699 -0.0410
   73fsi    OBT  902   3.475   0.801   4.590  0.2620 -0.0019 -0.3188
   73fsi    OBT  903   3.548   1.015   4.682  0.4953 -0.1474 -0.0488
   73fsi    SBT  904   3.606   0.889   4.315  0.0655  0.0763  0.1464
   73fsi    OBT  905   3.614   0.746   4.322 -0.1403 -0.2067 -0.6402
   73fsi    OBT  906   3.669   0.955   4.202  0.0409  0.6084  0.4235
   73fsi    FSI  907   3.451   0.916   4.302  0.6218  0.4157  0.4301
   74fsi    FSI  908   3.304   2.470   4.295 -0.1860  0.6145 -0.1789
   74fsi    SBT  909   3.229   2.546   4.174 -0.2790  0.1832  0.0807
   74fsi    NBT  910   3.144   2.430   4.106  0.1789  0.3584 -0.3389
   74fsi    OBT  911   3.134   2.636   4.242  0.1068  0.6933 -0.0365
   74fsi    OBT  912   3.342   2.605   4.106  0.5903  0.0391 -0.7008
   74fsi    SBT  913   3.191   2.374   3.975  0.0276  0.0012 -0.2717
   74fsi    OBT  914   3.290   2.265   3.982 -0.4810  0.5297  0.0309
   74fsi    OBT  915   3.223   2.482   3.884  1.0927  0.3154  0.2095
   74fsi    FSI  916   3.062   2.304   3.924  0.0231  0.1470 -0.4283
   75fsi    FSI  917   0.973   2.349   0.420  0.2747  0.6620 -0.2061
   75fsi    SBT  918   1.124   2.354   0.445 -0.1157  0.0608 -0.1410
   75fsi    NBT  919   1.141   2.406   0.596 -0.6919  0.2462 -0.5553
   75fsi    OBT  920   1.162   2.216   0.430 -0.7697  0.1826 -0.3329
   75fsi    OBT  921   1.180   2.449   0.355  0.3552  0.5817 -0.0820
   75fsi    SBT  922   1.094   2.344   0.727  0.1284  0.3502  0.2165
   75fsi    OBT  923   1.191   2.249   0.776  0.3547 -0.2017  0.1683
   75fsi    OBT  924   0.954   2.319   0.738 -0.1360 -0.6040  0.3348
   75fsi    FSI  925   1.103   2.461   0.831 -0.0613 -0.3754 -0.2287
   76fsi    FSI  926   1.786   2.010   0.531 -1.0200 -0.4710  0.2141
   76fsi    SBT  927   1.827   2.119   0.424  0.2611  0.2970  0.0018
   76fsi    NBT  928   1.693   2.190   0.382 -0.1303  0.3035  0.0111
   76fsi    OBT  929   1.915   2.207   0.495 -0.5892  0.0132 -0.8204
   76fsi    OBT  930   1.883   2.044   0.317  0.1272  0.5685 -0.6163
   76fsi    SBT  931   1.629   2.337   0.409  0.4577  0.5654 -0.0007
   76fsi    OBT  932   1.719   2.433   0.458 -0.2932  0.1811  0.1972
   76fsi    OBT  933   1.499   2.330   0.465  0.3371  0.6072 -0.5553
   76fsi    FSI  934   1.606   2.388   0.262  0.5823  0.8266 -0.5349
   77fsi    FSI  935   3.232   4.362   0.308  0.1800  0.5076  0.2282
   77fsi    SBT  936   3.095   4.351   0.228 -0.1373  0.0355  0.4970
   77fsi    NBT  937   2.991   4.299   0.338 -0.2844  0.3884 -0.2476
   77fsi    OBT  938   3.075   4.488   0.194  0.3672 -0.0023 -0.1104
   77fsi    OBT  939   3.126   4.261   0.121 -0.4279  0.1688  0.4153
   77fsi    SBT  940   2.925   4.159   0.365 -0.2266  0.1186  0.1099
   77fsi    OBT  941   2.925   4.132   0.505 -0.1800  0.2825 -0.3446
   77fsi    OBT  942   2.966   4.053   0.276  0.2999  0.0517  0.1158
   77fsi    FSI  943   2.775   4.189   0.328 -0.0888  0.3073 -0.2574
   78fsi    FSI  944   3.155   3.651   4.437  0.4227  0.1389 -0.5941
   78fsi    SBT  945   3.226   3.515   4.388 -0.0389  0.1961  0.0365
   78fsi    NBT  946   3.184   3.488   4.235 -0.1989 -0.1484  0.5695
   78fsi    OBT  947   3.368   3.531   4.421 -0.3759 -0.1378 -0.6204
   78fsi    OBT  948   3.158   3.420   4.479  0.7568 -0.1800  0.6901
   78fsi    SBT  949   3.268   3.487   4.099 -0.2086  0.3259  0.3437
   78fsi    OBT  950   3.342   3.369   4.075  0.4331  0.1061 -0.3012
   78fsi    OBT  951   3.344   3.606   4.072  0.2622  0.2150 -0.2024
   78fsi    FSI  952   3.165   3.499   3.982  0.7779 -0.0089 -0.2447
   79fsi    FSI  953   1.781   3.241   0.480  0.4769  0.4287  0.1587
   79fsi    SBT  954   1.749   3.248   0.636 -0.1476  0.2797 -0.2618
   79fsi    NBT  955   1.596   3.281   0.643 -0.4818 -0.4483  0.3812
   79fsi    OBT  956   1.778   3.118   0.691 -0.1104 -0.1769 -0.1682
   79fsi    OBT  957   1.840   3.356   0.672 -0.1217  0.7564 -0.5572
   79fsi    SBT  958   1.514   3.408   0.603 -0.6513 -0.5061  0.1070
   79fsi    OBT  959   1.583   3.532   0.602 -0.4806  0.0248 -0.4722
   79fsi    OBT  960   1.381   3.412   0.655 -0.1005 -0.5236  0.1838
   79fsi    FSI  961   1.496   3.385   0.445 -0.5068 -0.1086 -0.2975
   80fsi    FSI  962   0.286   0.259   0.773 -0.4853  0.2269  0.5611
   80fsi    SBT  963   0.334   0.151   0.858  0.1663  0.1312  0.1623
   80fsi    NBT  964   0.437   0.073   0.769 -0.8778  0.4564 -0.6320
   80fsi    OBT  965   0.402   0.219   0.967  0.5269  0.9249 -0.5594
   80fsi    OBT  966   0.213   0.082   0.902  1.1546  0.3450 -0.2272
   80fsi    SBT  967   0.426  -0.061   0.684  0.6490 -0.7444 -0.4178
   80fsi    OBT  968   0.319  -0.147   0.737 -0.1157 -0.4240 -0.6052
   80fsi    OBT  969   0.559  -0.112   0.663  0.6027 -0.3502  0.1476
   80fsi    FSI  970   0.380  -0.007   0.549  0.7129  0.2501 -0.6327
   81fsi    FSI  971   1.617   2.680   0.675 -0.5032  0.0171 -0.4497
   81fsi    SBT  972   1.698   2.723   0.807 -0.1489  0.1512 -0.3483
   81fsi    NBT  973   1.842   2.660   0.764  0.3437 -0.0876 -0.4498
   81fsi    OBT  974   1.693   2.865   0.812  0.8664  0.6113  0.1857
   81fsi    OBT  975   1.630   2.652   0.907 -0.5092  0.1979 -0.8808
   81fsi    SBT  976   1.939   2.706   0.644  0.2216  0.2433  0.2906
   81fsi    OBT  977   2.010   2.595   0.591 -0.1838 -0.3878 -0.2259
   81fsi    OBT  978   2.010   2.828   0.671 -0.0437  0.0443  0.4287
   81fsi    FSI  979   1.839   2.754   0.528 -0.0819  0.1730  0.3584
   82fsi    FSI  980   0.283   4.724   1.053 -0.1024 -0.1850 -0.4186
   82fsi    SBT  981   0.293   4.823   0.918 -0.5502  0.9247 -0.5419
   82fsi    NBT  982   0.315   4.704   0.813 -0.9542 -0.6213 -0.5989
   82fsi    OBT  983   0.164   4.885   0.922  0.0214  0.0479  0.6419
   82fsi    OBT  984   0.413   4.903   0.937  0.0195  0.5338 -0.1137
   82fsi    SBT  985   0.267   4.695   0.664 -0.8049 -0.4630 -0.0307
   82fsi    OBT  986   0.369   4.667   0.561  0.2183 -0.8715  0.8154
   82fsi    OBT  987   0.177   4.803   0.640  0.0542  0.5299 -0.3823
   82fsi    FSI  988   0.181   4.563   0.653 -0.7312 -0.3162  0.2622
   83fsi    FSI  989   2.741   3.556   3.719  0.2372  0.5200 -0.0902
   83fsi    SBT  990   2.616   3.657   3.716 -0.0376  0.0981  0.1442
   83fsi    NBT  991   2.675   3.790   3.783 -0.4008 -0.5518 -0.5038
   83fsi    OBT  992   2.587   3.674   3.578  0.1813 -0.1777 -0.3480
   83fsi    OBT  993   2.509   3.594   3.790 -0.7306 -0.2805 -0.5165
   83fsi    SBT  994   2.723   3.819   3.922  0.5479 -0.8137 -0.2414
   83fsi    OBT  995   2.748   3.961   3.944 -0.2107 -0.8676 -0.1248
   83fsi    OBT  996   2.814   3.717   3.978  0.0474 -0.4079 -0.1414
   83fsi    FSI  997   2.585   3.812   4.003 -0.0997  0.0460 -0.3575
   84fsi    FSI  998   0.291   4.992   5.252  0.2638 -0.5763  0.8339
   84fsi    SBT  999   0.421   5.020   5.335  0.2034  0.4500  0.8867
   84fsi    NBT 1000   0.467   4.883   5.387  0.3087 -0.7550 -0.0566
   84fsi    OBT 1001   0.507   5.077   5.243 -0.4349 -0.5488  0.4679
   84fsi    OBT 1002   0.383   5.110   5.442 -0.3593  0.6289  0.2366
   84fsi    SBT 1003   0.592   4.864   5.472  0.2341 -0.2704 -0.4818
   84fsi    OBT 1004   0.565   4.754   5.559  0.5998 -0.3323  0.2023
   84fsi    OBT 1005   0.662   4.981   5.514  0.2960 -0.4216  0.0747
   84fsi    FSI 1006   0.675   4.790   5.367 -0.0407 -0.8985  0.5926
   85fsi    FSI 1007   1.254   4.594   1.753  0.4117 -0.8316  0.6424
   85fsi    SBT 1008   1.229   4.508   1.628 -0.4149  0.3815  0.5216
   85fsi    NBT 1009   1.375   4.504   1.556  0.0703  0.3562 -0.4386
   85fsi    OBT 1010   1.195   4.376   1.674  0.8959 -0.1097  0.5343
   85fsi    OBT 1011   1.129   4.586   1.563  0.2418 -0.0313 -0.2926
   85fsi    SBT 1012   1.496   4.405   1.598  0.0325  0.4013  0.3482
   85fsi    OBT 1013   1.610   4.434   1.513  0.5143 -0.6090  0.6828
   85fsi    OBT 1014   1.457   4.267   1.624  0.0727  0.5836 -0.6479
   85fsi    FSI 1015   1.540   4.455   1.739  0.1994 -0.0066  0.3813
   86fsi    FSI 1016   2.070   0.610   3.101 -0.2442 -0.6115 -0.1331
   86fsi    SBT 1017   2.079   0.718   2.990  0.0927 -0.2834  0.0972
   86fsi    NBT 1018   2.051   0.639   2.859 -0.1336 -0.1970  0.2597
   86fsi    OBT 1019   1.977   0.811   3.028  0.6163 -0.3769  0.3152
   86fsi    OBT 1020   2.216   0.767   2.998  0.2379 -0.4018  0.0513
   86fsi    SBT 1021   1.911   0.617   2.794 -0.0797 -0.0757  0.2544
   86fsi    OBT 1022   1.798   0.625   2.883  0.4700  0.2757  0.3871
   86fsi    OBT 1023   1.914   0.510   2.699 -0.7781  0.0967  0.0817
   86fsi    FSI 1024   1.898   0.744   2.700 -0.4219 -0.1248 -0.2465
   87fsi    FSI 1025   0.943   0.129   0.363  0.9044 -0.5548  0.2487
   87fsi    SBT 1026   0.800   0.070   0.389  0.4149  0.0650 -0.3899
   87fsi    NBT 1027   0.697   0.178   0.361  0.1625 -0.5561 -0.4996
   87fsi    OBT 1028   0.787  -0.026   0.285  0.6937  0.6259 -0.6052
   87fsi    OBT 1029   0.804   0.026   0.526 -0.1895 -0.1714 -0.5992
   87fsi    SBT 1030   0.647   0.296   0.446  0.0995 -0.8137 -0.0712
   87fsi    OBT 1031   0.717   0.323   0.569 -0.2050 -0.6172 -0.4643
   87fsi    OBT 1032   0.508   0.309   0.439  0.3218  0.6766  0.1955
   87fsi    FSI 1033   0.701   0.412   0.358  0.4533 -0.8688  0.2444
   88fsi    FSI 1034   2.893   2.976   4.562 -0.3240 -0.0015 -0.4123
   88fsi    SBT 1035   2.812   3.092   4.625 -0.4115 -0.8146 -0.2624
   88fsi    NBT 1036   2.911   3.157   4.732 -1.5676 -1.3098  0.1400
   88fsi    OBT 1037   2.806   3.197   4.535 -0.2834  0.4922 -0.1315
   88fsi    OBT 1038   2.693   3.033   4.677  0.0187  0.6340 -0.0369
   88fsi    SBT 1039   2.954   3.100   4.876 -0.5205  0.0492 -0.4831
   88fsi    OBT 1040   3.052   3.170   4.946  0.3407 -1.0254  0.6357
   88fsi    OBT 1041   2.962   2.956   4.877 -0.1492  0.2913 -0.3012
   88fsi    FSI 1042   2.823   3.134   4.965  0.2201  0.1748 -0.0753
   89fsi    FSI 1043   1.369   3.394   1.062 -0.0153 -0.7813  0.2856
   89fsi    SBT 1044   1.214   3.385   1.044  0.0295  0.2570 -0.1699
   89fsi    NBT 1045   1.156   3.371   1.194  0.1049  0.5335 -0.5692
   89fsi    OBT 1046   1.182   3.511   0.983  0.0594  0.5994  0.0056
   89fsi    OBT 1047   1.196   3.271   0.960  0.2225 -0.1471 -0.0458
   89fsi    SBT 1048   1.066   3.474   1.275  0.2807 -0.1763  0.1075
   89fsi    OBT 1049   0.968   3.533   1.190  0.2161 -0.3901  0.4605
   89fsi    OBT 1050   1.138   3.559   1.364 -0.0549  0.3693 -0.1869
   89fsi    FSI 1051   0.974   3.387   1.374 -0.2003 -0.1896 -0.2096
   90fsi    FSI 1052   4.094   1.108   1.815 -0.7026 -1.2457 -0.2039
   90fsi    SBT 1053   4.191   1.094   1.940 -0.6431 -0.7391 -0.0346
   90fsi    NBT 1054   4.243   0.951   1.913  0.0902 -0.2425  0.3008
   90fsi    OBT 1055   4.279   1.203   1.919 -0.0852 -0.4982  0.2581
   90fsi    OBT 1056   4.103   1.108   2.056  0.3875  0.9280 -0.9079
   90fsi    SBT 1057   4.205   0.816   1.992 -0.0372 -0.0393 -0.4954
   90fsi    OBT 1058   4.220   0.841   2.131  0.6198 -0.0895  0.9872
   90fsi    OBT 1059   4.276   0.706   1.941  0.6503 -0.2983 -0.6303
   90fsi    FSI 1060   4.061   0.792   1.965 -0.1568  0.2783  0.1352
   91fsi    FSI 1061   1.223   1.172   3.287  0.1374  0.1326  0.4281
   91fsi    SBT 1062   1.135   1.195   3.415  0.1851 -0.4815  0.1680
   91fsi    NBT 1063   1.139   1.357   3.415  0.3907 -0.0073  1.2582
   91fsi    OBT 1064   1.005   1.134   3.392 -0.3342  0.1759  0.8380
   91fsi    OBT 1065   1.208   1.151   3.529  0.5604 -0.7488  0.3123
   91fsi    SBT 1066   1.016   1.452   3.411 -0.1422  0.4347 -0.0076
   91fsi    OBT 1067   1.046   1.578   3.477  0.4575  0.1819 -0.3258
   91fsi    OBT 1068   0.885   1.393   3.440  0.8377 -0.2334  0.7047
   91fsi    FSI 1069   1.004   1.507   3.268  0.1086  0.0719 -0.0236
   92fsi    FSI 1070   3.568   3.424   0.918 -0.0183 -0.0053 -0.0962
   92fsi    SBT 1071   3.527   3.569   0.863  0.0644 -0.0202  0.0372
   92fsi    NBT 1072   3.375   3.547   0.838  0.2322 -0.0662 -0.1803
   92fsi    OBT 1073   3.549   3.654   0.977  0.2994 -0.0557 -0.2531
   92fsi    OBT 1074   3.611   3.578   0.747 -0.0955  0.2994 -0.0210
   92fsi    SBT 1075   3.285   3.529   0.711 -0.1040 -0.0537  0.1024
   92fsi    OBT 1076   3.348   3.560   0.586 -0.3452 -0.0417 -0.0155
   92fsi    OBT 1077   3.150   3.576   0.726 -0.2083 -0.3776  0.1659
   92fsi    FSI 1078   3.264   3.374   0.704  0.5430 -0.0232 -0.0701
   93fsi    FSI 1079   3.868   2.258   2.068  0.6027 -0.2261 -0.1758
   93fsi    SBT 1080   3.873   2.105   2.115  0.1176 -0.0217 -0.0921
   93fsi    NBT 1081   3.973   2.107   2.236 -0.0392 -0.1397  0.5663
   93fsi    OBT 1082   3.739   2.074   2.161  0.3768  0.2517 -0.4987
   93fsi    OBT 1083   3.920   2.035   1.998  0.0200  0.0773  0.2911
   93fsi    SBT 1084   3.958   2.173   2.374  0.1781  0.0231  0.0175
   93fsi    OBT 1085   3.889   2.298   2.375  0.1503 -0.0333  0.1187
   93fsi    OBT 1086   4.077   2.159   2.452 -0.0584  0.3364  0.0196
   93fsi    FSI 1087   3.860   2.075   2.445  0.0421 -0.1179 -0.4252
   94fsi    FSI 1088   1.010   0.688   3.746 -0.0282  0.6630 -0.3941
   94fsi    SBT 1089   1.011   0.755   3.603 -0.1556 -0.1906 -0.3831
   94fsi    NBT 1090   1.123   0.681   3.516  0.1953 -0.1017 -0.1090
   94fsi    OBT 1091   0.877   0.746   3.547  0.0044 -0.4942  0.3482
   94fsi    OBT 1092   1.056   0.887   3.639 -0.3122 -0.0885 -0.2861
   94fsi    SBT 1093   1.257   0.752   3.460 -0.1263 -0.0130  0.4524
   94fsi    OBT 1094   1.312   0.845   3.553 -0.6369  0.3373  0.5321
   94fsi    OBT 1095   1.260   0.781   3.322  0.4889 -0.2909  0.0203
   94fsi    FSI 1096   1.361   0.635   3.470  0.4551  0.5131  0.1606
   95fsi    FSI 1097   1.515   4.137   1.320 -0.1193 -0.1260  0.0021
   95fsi    SBT 1098   1.409   4.037   1.380  0.6257  0.9744 -0.0334
   95fsi    NBT 1099   1.377   3.940   1.262  1.0135 -0.5075 -0.2460
   95fsi    OBT 1100   1.486   3.983   1.492 -0.4496  0.8522  0.2293
   95fsi    OBT 1101   1.299   4.122   1.428  0.4832  1.1216  0.3743
   95fsi    SBT 1102   1.265   3.948   1.160  0.2397 -0.2924 -0.1996
   95fsi    OBT 1103   1.187   4.069   1.176 -0.0261  0.5536 -1.0695
   95fsi    OBT 1104   1.196   3.825   1.146 -0.6124 -0.7452  0.3673
   95fsi    FSI 1105   1.341   3.977   1.025  0.2089 -0.3409 -0.0101
   96fsi    FSI 1106   3.336   2.419   4.839  0.1199  0.1190  0.4366
   96fsi    SBT 1107   3.317   2.564   4.771  0.0228 -0.2674 -0.4290
   96fsi    NBT 1108   3.213   2.519   4.663 -0.1162  0.3730  0.5546
   96fsi    OBT 1109   3.273   2.643   4.882 -0.4974 -0.6843 -0.6496
   96fsi    OBT 1110   3.451   2.574   4.707  0.6137 -0.3135 -0.1582
   96fsi    SBT 1111   3.064   2.551   4.659 -0.6625  0.0012  0.8301
   96fsi    OBT 1112   3.037   2.550   4.519 -0.7182 -0.4259 -0.4372
   96fsi    OBT 1113   3.014   2.663   4.738  0.7290  0.1126  0.5973
   96fsi    FSI 1114   2.983   2.431   4.722 -0.2702 -0.6601 -0.3368
   97fsi    FSI 1115   3.127   3.610   3.435  0.2006 -0.2846 -1.2440
   97fsi    SBT 1116   2.986   3.651   3.497  0.0639 -0.8525 -0.3489
   97fsi    NBT 1117   2.947   3.794   3.442  0.2019 -0.0028 -0.2923
   97fsi    OBT 1118   2.895   3.551   3.444 -0.5930  0.2434  0.1586
   97fsi    OBT 1119   2.991   3.652   3.639 -0.3635 -0.0575  0.4572
   97fsi    SBT 1120   2.967   3.950   3.486 -0.2000  0.2726  0.1379
   97fsi    OBT 1121   3.013   3.961   3.623 -0.5234  0.4554  0.4940
   97fsi    OBT 1122   2.853   4.028   3.454  0.0271  0.1276  0.2079
   97fsi    FSI 1123   3.084   4.015   3.398  0.3942 -1.1238 -0.0458
   98fsi    FSI 1124   4.489   2.886   2.280  0.4656 -0.0755  0.2969
   98fsi    SBT 1125   4.641   2.837   2.276  0.6585  0.1677 -0.2269
   98fsi    NBT 1126   4.677   2.822   2.433  0.3500  0.7554  0.2134
   98fsi    OBT 1127   4.624   2.707   2.216  0.9066  0.3318 -1.1586
   98fsi    OBT 1128   4.709   2.945   2.208  0.0299  0.2453  0.2015
   98fsi    SBT 1129   4.677   2.702   2.532 -0.5759  0.4478 -0.2917
   98fsi    OBT 1130   4.778   2.727   2.631  0.3551 -0.7173  0.6244
   98fsi    OBT 1131   4.668   2.575   2.465 -0.4515  0.3258 -0.2624
   98fsi    FSI 1132   4.541   2.716   2.609  0.0569 -0.8842  0.4034
   99fsi    FSI 1133   1.589   1.966   0.883 -0.2790  0.3806 -0.1332
   99fsi    SBT 1134   1.552   2.115   0.824 -0.6332 -0.4006 -0.2463
   99fsi    NBT 1135   1.692   2.172   0.786 -0.3965 -0.8768  0.4463
   99fsi    OBT 1136   1.466   2.092   0.715  0.2456  0.4765 -0.4693
   99fsi    OBT 1137   1.497   2.195   0.937 -0.5303  0.2350 -0.3824
   99fsi    SBT 1138   1.802   2.219   0.890  0.9167 -0.4158  0.1101
   99fsi    OBT 1139   1.775   2.215   1.033  0.9813  0.4422 -0.5145
   99fsi    OBT 1140   1.862   2.338   0.848  0.1599 -0.6476 -0.3481
   99fsi    FSI 1141   1.918   2.112   0.861  0.2944  0.7116 -0.3671
  100fsi    FSI 1142   3.406   3.271   3.799  0.0943  0.4183  0.1597
  100fsi    SBT 1143   3.252   3.205   3.781  0.3338  0.3269 -0.0756
  100fsi    NBT 1144   3.262   3.116   3.655  0.1723  0.0375 -0.5586
  100fsi    OBT 1145   3.233   3.134   3.907  0.1464 -0.8747 -0.6095
  100fsi    OBT 1146   3.167   3.323   3.757 -0.3059  0.0331  0.3745
  100fsi    SBT 1147   3.230   2.960   3.631 -0.1801 -0.1415  0.0344
  100fsi    OBT 1148   3.171   2.948   3.502  0.6955 -0.1295  0.1853
  100fsi    OBT 1149   3.175   2.880   3.740 -0.0337  0.4202 -0.1074
  100fsi    FSI 1150   3.371   2.896   3.609  0.2346 -0.4612  0.2615
   5.28770   5.28770   5.28770
