L1P1 short trajectory practice
 1150
    1Li+     Li    1   2.565   0.340   4.532
    2Li+     Li    2   0.173   0.973   1.047
    3Li+     Li    3   2.475   3.139   0.928
    4Li+     Li    4   2.806   3.430   4.634
    5Li+     Li    5   1.261   0.601   1.672
    6Li+     Li    6   4.332   0.806   1.231
    7Li+     Li    7   1.954   0.961   5.029
    8Li+     Li    8   2.649   1.945   0.545
    9Li+     Li    9   3.086   2.233   2.437
   10Li+     Li   10   0.707   1.010   1.940
   11Li+     Li   11   2.247   4.392   0.551
   12Li+     Li   12   1.996   1.966   2.947
   13Li+     Li   13   4.273   2.082   3.731
   14Li+     Li   14   3.414   3.666   0.848
   15Li+     Li   15   4.691   2.091   4.318
   16Li+     Li   16   0.467   5.066   4.497
   17Li+     Li   17   1.901   2.491   2.888
   18Li+     Li   18   3.009   3.095   4.505
   19Li+     Li   19   2.567   4.120   3.892
   20Li+     Li   20   2.582   1.200   4.640
   21Li+     Li   21   0.518   2.953   2.756
   22Li+     Li   22   2.735   4.996   3.987
   23Li+     Li   23   4.000   2.579   3.288
   24Li+     Li   24   0.139   2.781   1.901
   25Li+     Li   25   2.680   2.520   3.167
   26c3c     N4   26   1.070   1.131   3.174
   26c3c     C1   27   1.100   1.276   3.168
   26c3c     C1   28   1.151   1.069   3.281
   26c3c     C2   29   1.216   1.304   3.264
   26c3c     C2   30   1.248   1.174   3.335
   26c3c     C1   31   0.928   1.114   3.208
   26c3c     C1   32   1.096   1.066   3.044
   26c3c     H1   33   1.015   1.337   3.197
   26c3c     H1   34   1.125   1.310   3.068
   26c3c     H1   35   1.090   1.030   3.363
   26c3c     H1   36   1.205   0.980   3.248
   26c3c     HC   37   1.187   1.381   3.337
   26c3c     HC   38   1.304   1.341   3.211
   26c3c     HC   39   1.235   1.185   3.443
   26c3c     HC   40   1.351   1.145   3.317
   26c3c     H1   41   0.862   1.160   3.135
   26c3c     H1   42   0.900   1.009   3.217
   26c3c     H1   43   0.906   1.160   3.305
   26c3c     H1   44   1.068   0.961   3.051
   26c3c     H1   45   1.031   1.109   2.968
   26c3c     C2   46   1.243   1.076   2.996
   26c3c     HC   47   1.312   1.030   3.067
   26c3c     HC   48   1.276   1.180   2.987
   26c3c     CT   49   1.265   1.009   2.861
   26c3c     HC   50   1.203   1.054   2.784
   26c3c     HC   51   1.240   0.903   2.867
   26c3c     HC   52   1.369   1.017   2.831
   27c3c     N4   53   2.089   0.553   1.516
   27c3c     C1   54   2.097   0.425   1.444
   27c3c     C1   55   2.117   0.531   1.658
   27c3c     C2   56   2.115   0.313   1.548
   27c3c     C2   57   2.128   0.381   1.683
   27c3c     C1   58   2.192   0.643   1.462
   27c3c     C1   59   1.957   0.617   1.498
   27c3c     H1   60   2.179   0.421   1.373
   27c3c     H1   61   2.009   0.404   1.382
   27c3c     H1   62   2.209   0.579   1.693
   27c3c     H1   63   2.040   0.574   1.723
   27c3c     HC   64   2.205   0.256   1.525
   27c3c     HC   65   2.030   0.245   1.547
   27c3c     HC   66   2.224   0.357   1.729
   27c3c     HC   67   2.050   0.347   1.751
   27c3c     H1   68   2.180   0.662   1.356
   27c3c     H1   69   2.194   0.739   1.514
   27c3c     H1   70   2.292   0.599   1.475
   27c3c     H1   71   1.956   0.714   1.548
   27c3c     H1   72   1.941   0.638   1.392
   27c3c     C2   73   1.838   0.532   1.551
   27c3c     HC   74   1.848   0.511   1.658
   27c3c     HC   75   1.833   0.435   1.503
   27c3c     CT   76   1.704   0.602   1.530
   27c3c     HC   77   1.686   0.619   1.424
   27c3c     HC   78   1.701   0.698   1.582
   27c3c     HC   79   1.623   0.539   1.569
   28c3c     N4   80   2.024   1.270   2.322
   28c3c     C1   81   2.009   1.404   2.382
   28c3c     C1   82   2.120   1.277   2.210
   28c3c     C2   83   2.086   1.504   2.296
   28c3c     C2   84   2.156   1.424   2.187
   28c3c     C1   85   2.078   1.179   2.424
   28c3c     C1   86   1.894   1.218   2.276
   28c3c     H1   87   2.047   1.408   2.484
   28c3c     H1   88   1.905   1.435   2.392
   28c3c     H1   89   2.211   1.220   2.229
   28c3c     H1   90   2.082   1.232   2.118
   28c3c     HC   91   2.159   1.558   2.356
   28c3c     HC   92   2.019   1.578   2.251
   28c3c     HC   93   2.264   1.437   2.194
   28c3c     HC   94   2.124   1.458   2.089
   28c3c     H1   95   2.013   1.170   2.511
   28c3c     H1   96   2.094   1.078   2.385
   28c3c     H1   97   2.175   1.214   2.460
   28c3c     H1   98   1.907   1.117   2.237
   28c3c     H1   99   1.827   1.207   2.361
   28c3c     C2  100   1.825   1.305   2.167
   28c3c     HC  101   1.887   1.315   2.078
   28c3c     HC  102   1.807   1.407   2.202
   28c3c     CT  103   1.691   1.247   2.124
   28c3c     HC  104   1.621   1.241   2.208
   28c3c     HC  105   1.704   1.147   2.082
   28c3c     HC  106   1.646   1.310   2.047
   29c3c     N4  107   0.577   2.759   3.718
   29c3c     C1  108   0.695   2.688   3.666
   29c3c     C1  109   0.497   2.666   3.800
   29c3c     C2  110   0.683   2.540   3.703
   29c3c     C2  111   0.557   2.526   3.788
   29c3c     C1  112   0.624   2.868   3.805
   29c3c     C1  113   0.496   2.815   3.608
   29c3c     H1  114   0.789   2.726   3.707
   29c3c     H1  115   0.709   2.699   3.558
   29c3c     H1  116   0.495   2.694   3.906
   29c3c     H1  117   0.391   2.664   3.774
   29c3c     HC  118   0.770   2.508   3.759
   29c3c     HC  119   0.675   2.478   3.614
   29c3c     HC  120   0.582   2.487   3.886
   29c3c     HC  121   0.487   2.457   3.741
   29c3c     H1  122   0.686   2.939   3.752
   29c3c     H1  123   0.541   2.923   3.850
   29c3c     H1  124   0.683   2.829   3.887
   29c3c     H1  125   0.413   2.872   3.650
   29c3c     H1  126   0.556   2.888   3.554
   29c3c     C2  127   0.440   2.710   3.509
   29c3c     HC  128   0.377   2.637   3.560
   29c3c     HC  129   0.520   2.653   3.462
   29c3c     CT  130   0.358   2.774   3.398
   29c3c     HC  131   0.418   2.844   3.340
   29c3c     HC  132   0.272   2.827   3.439
   29c3c     HC  133   0.320   2.697   3.330
   30c3c     N4  134   0.429   4.968   1.710
   30c3c     C1  135   0.503   4.945   1.835
   30c3c     C1  136   0.384   4.838   1.655
   30c3c     C2  137   0.521   4.794   1.853
   30c3c     C2  138   0.445   4.727   1.740
   30c3c     C1  139   0.310   5.048   1.742
   30c3c     C1  140   0.511   5.041   1.612
   30c3c     H1  141   0.453   4.986   1.923
   30c3c     H1  142   0.601   4.994   1.837
   30c3c     H1  143   0.275   4.828   1.655
   30c3c     H1  144   0.410   4.825   1.550
   30c3c     HC  145   0.480   4.763   1.950
   30c3c     HC  146   0.626   4.766   1.851
   30c3c     HC  147   0.367   4.662   1.779
   30c3c     HC  148   0.513   4.666   1.680
   30c3c     H1  149   0.335   5.145   1.785
   30c3c     H1  150   0.248   5.067   1.654
   30c3c     H1  151   0.246   4.997   1.814
   30c3c     H1  152   0.452   5.062   1.523
   30c3c     H1  153   0.538   5.138   1.652
   30c3c     C2  154   0.641   4.967   1.570
   30c3c     HC  155   0.619   4.870   1.525
   30c3c     HC  156   0.705   4.946   1.655
   30c3c     CT  157   0.722   5.047   1.468
   30c3c     HC  158   0.753   5.143   1.510
   30c3c     HC  159   0.664   5.064   1.378
   30c3c     HC  160   0.812   4.991   1.441
   31c3c     N4  161   0.738   3.432   4.760
   31c3c     C1  162   0.601   3.487   4.760
   31c3c     C1  163   0.835   3.544   4.756
   31c3c     C2  164   0.610   3.638   4.740
   31c3c     C2  165   0.757   3.674   4.738
   31c3c     C1  166   0.758   3.358   4.885
   31c3c     C1  167   0.759   3.341   4.646
   31c3c     H1  168   0.547   3.466   4.852
   31c3c     H1  169   0.537   3.442   4.683
   31c3c     H1  170   0.895   3.551   4.847
   31c3c     H1  171   0.910   3.533   4.678
   31c3c     HC  172   0.559   3.690   4.821
   31c3c     HC  173   0.562   3.668   4.646
   31c3c     HC  174   0.781   3.744   4.818
   31c3c     HC  175   0.784   3.722   4.643
   31c3c     H1  176   0.688   3.275   4.894
   31c3c     H1  177   0.858   3.316   4.892
   31c3c     H1  178   0.743   3.422   4.971
   31c3c     H1  179   0.858   3.297   4.651
   31c3c     H1  180   0.690   3.257   4.653
   31c3c     C2  181   0.741   3.407   4.507
   31c3c     HC  182   0.810   3.491   4.492
   31c3c     HC  183   0.641   3.450   4.495
   31c3c     CT  184   0.763   3.309   4.393
   31c3c     HC  185   0.692   3.226   4.398
   31c3c     HC  186   0.864   3.268   4.396
   31c3c     HC  187   0.750   3.358   4.297
   32c3c     N4  188   0.697   1.804   2.427
   32c3c     C1  189   0.558   1.824   2.472
   32c3c     C1  190   0.753   1.934   2.382
   32c3c     C2  191   0.518   1.968   2.441
   32c3c     C2  192   0.640   2.037   2.384
   32c3c     C1  193   0.777   1.757   2.541
   32c3c     C1  194   0.704   1.704   2.319
   32c3c     H1  195   0.545   1.805   2.579
   32c3c     H1  196   0.488   1.754   2.426
   32c3c     H1  197   0.835   1.969   2.445
   32c3c     H1  198   0.798   1.929   2.283
   32c3c     HC  199   0.484   2.018   2.532
   32c3c     HC  200   0.435   1.971   2.369
   32c3c     HC  201   0.668   2.122   2.447
   32c3c     HC  202   0.620   2.075   2.284
   32c3c     H1  203   0.739   1.662   2.580
   32c3c     H1  204   0.881   1.742   2.514
   32c3c     H1  205   0.774   1.828   2.623
   32c3c     H1  206   0.808   1.687   2.290
   32c3c     H1  207   0.667   1.608   2.355
   32c3c     C2  208   0.624   1.743   2.192
   32c3c     HC  209   0.658   1.837   2.149
   32c3c     HC  210   0.518   1.757   2.213
   32c3c     CT  211   0.634   1.637   2.084
   32c3c     HC  212   0.595   1.542   2.119
   32c3c     HC  213   0.738   1.622   2.053
   32c3c     HC  214   0.577   1.668   1.997
   33c3c     N4  215   3.831   3.010   0.569
   33c3c     C1  216   3.915   2.945   0.671
   33c3c     C1  217   3.916   3.092   0.480
   33c3c     C2  218   4.057   2.999   0.658
   33c3c     C2  219   4.057   3.093   0.537
   33c3c     C1  220   3.767   2.905   0.487
   33c3c     C1  221   3.725   3.092   0.632
   33c3c     H1  222   3.918   2.836   0.661
   33c3c     H1  223   3.878   2.959   0.773
   33c3c     H1  224   3.918   3.056   0.378
   33c3c     H1  225   3.879   3.195   0.469
   33c3c     HC  226   4.128   2.918   0.643
   33c3c     HC  227   4.087   3.053   0.747
   33c3c     HC  228   4.128   3.058   0.462
   33c3c     HC  229   4.087   3.193   0.567
   33c3c     H1  230   3.705   2.839   0.546
   33c3c     H1  231   3.705   2.947   0.408
   33c3c     H1  232   3.843   2.843   0.439
   33c3c     H1  233   3.661   3.134   0.554
   33c3c     H1  234   3.660   3.027   0.691
   33c3c     C2  235   3.778   3.207   0.721
   33c3c     HC  236   3.842   3.275   0.665
   33c3c     HC  237   3.841   3.169   0.802
   33c3c     CT  238   3.665   3.288   0.784
   33c3c     HC  239   3.603   3.225   0.847
   33c3c     HC  240   3.603   3.333   0.707
   33c3c     HC  241   3.707   3.367   0.846
   34c3c     N4  242   1.782   4.362   4.133
   34c3c     C1  243   1.907   4.284   4.141
   34c3c     C1  244   1.667   4.271   4.144
   34c3c     C2  245   1.871   4.136   4.142
   34c3c     C2  246   1.719   4.128   4.144
   34c3c     C1  247   1.779   4.456   4.246
   34c3c     C1  248   1.776   4.439   4.007
   34c3c     H1  249   1.966   4.307   4.230
   34c3c     H1  250   1.976   4.305   4.059
   34c3c     H1  251   1.608   4.288   4.235
   34c3c     H1  252   1.593   4.284   4.065
   34c3c     HC  253   1.913   4.087   4.230
   34c3c     HC  254   1.910   4.085   4.054
   34c3c     HC  255   1.685   4.075   4.234
   34c3c     HC  256   1.683   4.073   4.058
   34c3c     H1  257   1.863   4.525   4.245
   34c3c     H1  258   1.688   4.516   4.247
   34c3c     H1  259   1.783   4.402   4.341
   34c3c     H1  260   1.686   4.500   4.006
   34c3c     H1  261   1.859   4.510   4.003
   34c3c     C2  262   1.779   4.352   3.879
   34c3c     HC  263   1.696   4.282   3.876
   34c3c     HC  264   1.869   4.291   3.873
   34c3c     CT  265   1.773   4.437   3.752
   34c3c     HC  266   1.858   4.505   3.746
   34c3c     HC  267   1.681   4.495   3.749
   34c3c     HC  268   1.775   4.372   3.664
   35c3c     N4  269   3.914   3.569   2.622
   35c3c     C1  270   4.043   3.640   2.614
   35c3c     C1  271   3.803   3.666   2.618
   35c3c     C2  272   4.015   3.790   2.621
   35c3c     C2  273   3.863   3.807   2.624
   35c3c     C1  274   3.903   3.481   2.504
   35c3c     C1  275   3.907   3.486   2.744
   35c3c     H1  276   4.099   3.618   2.523
   35c3c     H1  277   4.113   3.611   2.692
   35c3c     H1  278   3.742   3.658   2.529
   35c3c     H1  279   3.732   3.653   2.699
   35c3c     HC  280   4.057   3.841   2.534
   35c3c     HC  281   4.059   3.834   2.710
   35c3c     HC  282   3.830   3.866   2.539
   35c3c     HC  283   3.832   3.859   2.714
   35c3c     H1  284   3.984   3.408   2.500
   35c3c     H1  285   3.809   3.427   2.503
   35c3c     H1  286   3.908   3.539   2.412
   35c3c     H1  287   3.814   3.430   2.744
   35c3c     H1  288   3.987   3.411   2.741
   35c3c     C2  289   3.918   3.566   2.876
   35c3c     HC  290   3.838   3.640   2.885
   35c3c     HC  291   4.011   3.622   2.882
   35c3c     CT  292   3.910   3.476   2.998
   35c3c     HC  293   3.991   3.403   2.998
   35c3c     HC  294   3.815   3.422   3.001
   35c3c     HC  295   3.918   3.535   3.089
   36c3c     N4  296   3.100   3.910   1.116
   36c3c     C1  297   3.234   3.972   1.110
   36c3c     C1  298   2.996   4.014   1.108
   36c3c     C2  299   3.216   4.124   1.114
   36c3c     C2  300   3.066   4.151   1.112
   36c3c     C1  301   3.085   3.821   1.000
   36c3c     C1  302   3.085   3.830   1.240
   36c3c     H1  303   3.290   3.947   1.020
   36c3c     H1  304   3.300   3.942   1.191
   36c3c     H1  305   2.936   4.008   1.017
   36c3c     H1  306   2.922   4.008   1.188
   36c3c     HC  307   3.263   4.170   1.027
   36c3c     HC  308   3.261   4.167   1.203
   36c3c     HC  309   3.039   4.210   1.025
   36c3c     HC  310   3.037   4.207   1.201
   36c3c     H1  311   3.160   3.742   1.000
   36c3c     H1  312   2.987   3.774   0.998
   36c3c     H1  313   3.096   3.877   0.907
   36c3c     H1  314   2.988   3.780   1.239
   36c3c     H1  315   3.159   3.750   1.241
   36c3c     C2  316   3.098   3.912   1.371
   36c3c     HC  317   3.024   3.991   1.376
   36c3c     HC  318   3.195   3.961   1.378
   36c3c     CT  319   3.082   3.824   1.494
   36c3c     HC  320   3.158   3.746   1.498
   36c3c     HC  321   2.983   3.777   1.496
   36c3c     HC  322   3.091   3.885   1.584
   37c3c     N4  323   0.522   4.004   2.229
   37c3c     C1  324   0.388   3.957   2.189
   37c3c     C1  325   0.607   3.888   2.264
   37c3c     C2  326   0.381   3.806   2.214
   37c3c     C2  327   0.519   3.763   2.261
   37c3c     C1  328   0.584   4.073   2.115
   37c3c     C1  329   0.513   4.098   2.342
   37c3c     H1  330   0.366   3.977   2.084
   37c3c     H1  331   0.307   4.008   2.241
   37c3c     H1  332   0.691   3.875   2.196
   37c3c     H1  333   0.655   3.898   2.361
   37c3c     HC  334   0.354   3.754   2.122
   37c3c     HC  335   0.306   3.783   2.289
   37c3c     HC  336   0.561   3.689   2.193
   37c3c     HC  337   0.513   3.717   2.360
   37c3c     H1  338   0.525   4.159   2.082
   37c3c     H1  339   0.684   4.109   2.137
   37c3c     H1  340   0.592   4.006   2.029
   37c3c     H1  341   0.612   4.136   2.367
   37c3c     H1  342   0.456   4.186   2.313
   37c3c     C2  343   0.450   4.038   2.471
   37c3c     HC  344   0.506   3.952   2.507
   37c3c     HC  345   0.349   4.002   2.453
   37c3c     CT  346   0.443   4.140   2.584
   37c3c     HC  347   0.382   4.226   2.556
   37c3c     HC  348   0.542   4.175   2.611
   37c3c     HC  349   0.398   4.095   2.673
   38c3c     N4  350   2.595   4.081   0.656
   38c3c     C1  351   2.613   3.956   0.732
   38c3c     C1  352   2.543   4.186   0.747
   38c3c     C2  353   2.556   3.976   0.872
   38c3c     C2  354   2.512   4.122   0.882
   38c3c     C1  355   2.726   4.125   0.606
   38c3c     C1  356   2.504   4.060   0.542
   38c3c     H1  357   2.718   3.926   0.740
   38c3c     H1  358   2.567   3.870   0.685
   38c3c     H1  359   2.614   4.268   0.762
   38c3c     H1  360   2.455   4.236   0.708
   38c3c     HC  361   2.632   3.955   0.948
   38c3c     HC  362   2.472   3.910   0.890
   38c3c     HC  363   2.565   4.173   0.961
   38c3c     HC  364   2.405   4.127   0.904
   38c3c     H1  365   2.771   4.051   0.540
   38c3c     H1  366   2.720   4.218   0.551
   38c3c     H1  367   2.796   4.142   0.688
   38c3c     H1  368   2.498   4.152   0.483
   38c3c     H1  369   2.548   3.986   0.475
   38c3c     C2  370   2.361   4.014   0.581
   38c3c     HC  371   2.312   4.085   0.647
   38c3c     HC  372   2.363   3.920   0.636
   38c3c     CT  373   2.272   3.994   0.459
   38c3c     HC  374   2.313   3.918   0.393
   38c3c     HC  375   2.261   4.086   0.402
   38c3c     HC  376   2.172   3.962   0.490
   39c3c     N4  377   3.471   2.287   2.671
   39c3c     C1  378   3.471   2.433   2.650
   39c3c     C1  379   3.348   2.247   2.742
   39c3c     C2  380   3.350   2.492   2.723
   39c3c     C2  381   3.272   2.374   2.781
   39c3c     C1  382   3.475   2.221   2.540
   39c3c     C1  383   3.590   2.245   2.748
   39c3c     H1  384   3.467   2.461   2.545
   39c3c     H1  385   3.562   2.481   2.684
   39c3c     H1  386   3.284   2.182   2.682
   39c3c     H1  387   3.367   2.186   2.830
   39c3c     HC  388   3.288   2.549   2.654
   39c3c     HC  389   3.381   2.559   2.803
   39c3c     HC  390   3.171   2.373   2.741
   39c3c     HC  391   3.265   2.384   2.890
   39c3c     H1  392   3.564   2.247   2.483
   39c3c     H1  393   3.474   2.112   2.549
   39c3c     H1  394   3.389   2.249   2.479
   39c3c     H1  395   3.592   2.137   2.757
   39c3c     H1  396   3.680   2.269   2.691
   39c3c     C2  397   3.601   2.308   2.889
   39c3c     HC  398   3.515   2.283   2.951
   39c3c     HC  399   3.604   2.417   2.885
   39c3c     CT  400   3.726   2.261   2.963
   39c3c     HC  401   3.816   2.288   2.908
   39c3c     HC  402   3.725   2.152   2.974
   39c3c     HC  403   3.730   2.306   3.062
   40c3c     N4  404   4.564   1.729   0.448
   40c3c     C1  405   4.572   1.876   0.440
   40c3c     C1  406   4.422   1.688   0.460
   40c3c     C2  407   4.432   1.932   0.464
   40c3c     C2  408   4.338   1.814   0.477
   40c3c     C1  409   4.617   1.673   0.323
   40c3c     C1  410   4.644   1.678   0.561
   40c3c     H1  411   4.608   1.911   0.343
   40c3c     H1  412   4.642   1.919   0.510
   40c3c     H1  413   4.387   1.632   0.374
   40c3c     H1  414   4.405   1.619   0.543
   40c3c     HC  415   4.402   1.996   0.380
   40c3c     HC  416   4.429   1.993   0.554
   40c3c     HC  417   4.261   1.817   0.400
   40c3c     HC  418   4.288   1.815   0.574
   40c3c     H1  419   4.721   1.701   0.306
   40c3c     H1  420   4.612   1.564   0.321
   40c3c     H1  421   4.560   1.708   0.237
   40c3c     H1  422   4.641   1.569   0.561
   40c3c     H1  423   4.748   1.704   0.546
   40c3c     C2  424   4.598   1.729   0.700
   40c3c     HC  425   4.494   1.702   0.721
   40c3c     HC  426   4.602   1.838   0.706
   40c3c     CT  427   4.684   1.673   0.813
   40c3c     HC  428   4.788   1.703   0.801
   40c3c     HC  429   4.678   1.564   0.816
   40c3c     HC  430   4.649   1.711   0.909
   41c3c     N4  431   3.232   1.287   2.475
   41c3c     C1  432   3.324   1.237   2.579
   41c3c     C1  433   3.262   1.430   2.448
   41c3c     C2  434   3.404   1.355   2.633
   41c3c     C2  435   3.365   1.476   2.551
   41c3c     C1  436   3.257   1.212   2.351
   41c3c     C1  437   3.091   1.269   2.515
   41c3c     H1  438   3.393   1.161   2.543
   41c3c     H1  439   3.273   1.186   2.661
   41c3c     H1  440   3.301   1.447   2.348
   41c3c     H1  441   3.173   1.493   2.453
   41c3c     HC  442   3.511   1.335   2.624
   41c3c     HC  443   3.383   1.371   2.739
   41c3c     HC  444   3.453   1.517   2.500
   41c3c     HC  445   3.324   1.554   2.616
   41c3c     H1  446   3.240   1.105   2.364
   41c3c     H1  447   3.194   1.245   2.269
   41c3c     H1  448   3.361   1.223   2.319
   41c3c     H1  449   3.026   1.300   2.434
   41c3c     H1  450   3.072   1.163   2.528
   41c3c     C2  451   3.052   1.344   2.645
   41c3c     HC  452   3.068   1.451   2.636
   41c3c     HC  453   3.112   1.312   2.730
   41c3c     CT  454   2.905   1.322   2.681
   41c3c     HC  455   2.885   1.216   2.697
   41c3c     HC  456   2.839   1.358   2.602
   41c3c     HC  457   2.881   1.375   2.773
   42c3c     N4  458   1.298   1.116   4.573
   42c3c     C1  459   1.291   1.183   4.704
   42c3c     C1  460   1.437   1.076   4.546
   42c3c     C2  461   1.434   1.201   4.756
   42c3c     C2  462   1.526   1.133   4.656
   42c3c     C1  463   1.215   0.995   4.579
   42c3c     C1  464   1.247   1.204   4.466
   42c3c     H1  465   1.233   1.128   4.778
   42c3c     H1  466   1.240   1.280   4.700
   42c3c     H1  467   1.450   0.968   4.541
   42c3c     H1  468   1.473   1.108   4.448
   42c3c     HC  469   1.444   1.156   4.854
   42c3c     HC  470   1.459   1.307   4.765
   42c3c     HC  471   1.583   1.054   4.703
   42c3c     HC  472   1.597   1.205   4.615
   42c3c     H1  473   1.111   1.017   4.600
   42c3c     H1  474   1.218   0.939   4.485
   42c3c     H1  475   1.250   0.927   4.657
   42c3c     H1  476   1.247   1.151   4.372
   42c3c     H1  477   1.142   1.228   4.485
   42c3c     C2  478   1.326   1.337   4.449
   42c3c     HC  479   1.431   1.319   4.427
   42c3c     HC  480   1.325   1.397   4.541
   42c3c     CT  481   1.268   1.423   4.338
   42c3c     HC  482   1.165   1.451   4.359
   42c3c     HC  483   1.272   1.371   4.242
   42c3c     HC  484   1.326   1.515   4.329
   43c3c     N4  485   1.438   3.225   1.523
   43c3c     C1  486   1.562   3.220   1.603
   43c3c     C1  487   1.457   3.150   1.397
   43c3c     C2  488   1.670   3.153   1.519
   43c3c     C2  489   1.604   3.108   1.389
   43c3c     C1  490   1.331   3.159   1.599
   43c3c     C1  491   1.398   3.364   1.495
   43c3c     H1  492   1.550   3.166   1.697
   43c3c     H1  493   1.595   3.319   1.635
   43c3c     H1  494   1.394   3.061   1.390
   43c3c     H1  495   1.429   3.207   1.308
   43c3c     HC  496   1.712   3.067   1.572
   43c3c     HC  497   1.752   3.222   1.498
   43c3c     HC  498   1.612   3.000   1.377
   43c3c     HC  499   1.653   3.155   1.304
   43c3c     H1  500   1.313   3.209   1.695
   43c3c     H1  501   1.237   3.158   1.544
   43c3c     H1  502   1.357   3.056   1.622
   43c3c     H1  503   1.304   3.365   1.440
   43c3c     H1  504   1.378   3.416   1.588
   43c3c     C2  505   1.503   3.445   1.414
   43c3c     HC  506   1.523   3.399   1.317
   43c3c     HC  507   1.599   3.450   1.465
   43c3c     CT  508   1.456   3.588   1.388
   43c3c     HC  509   1.440   3.641   1.482
   43c3c     HC  510   1.364   3.589   1.331
   43c3c     HC  511   1.532   3.642   1.331
   44c3c     N4  512   1.467   0.861   0.881
   44c3c     C1  513   1.466   0.982   0.796
   44c3c     C1  514   1.351   0.776   0.847
   44c3c     C2  515   1.336   0.983   0.715
   44c3c     C2  516   1.263   0.853   0.748
   44c3c     C1  517   1.589   0.785   0.852
   44c3c     C1  518   1.466   0.897   1.024
   44c3c     H1  519   1.550   0.986   0.727
   44c3c     H1  520   1.476   1.075   0.853
   44c3c     H1  521   1.379   0.681   0.803
   44c3c     H1  522   1.292   0.747   0.934
   44c3c     HC  523   1.358   0.988   0.609
   44c3c     HC  524   1.274   1.068   0.741
   44c3c     HC  525   1.248   0.794   0.657
   44c3c     HC  526   1.165   0.874   0.790
   44c3c     H1  527   1.680   0.843   0.872
   44c3c     H1  528   1.596   0.693   0.909
   44c3c     H1  529   1.594   0.757   0.747
   44c3c     H1  530   1.473   0.807   1.084
   44c3c     H1  531   1.556   0.955   1.047
   44c3c     C2  532   1.341   0.978   1.069
   44c3c     HC  533   1.249   0.924   1.049
   44c3c     HC  534   1.332   1.072   1.013
   44c3c     CT  535   1.345   1.013   1.217
   44c3c     HC  536   1.433   1.073   1.241
   44c3c     HC  537   1.348   0.922   1.278
   44c3c     HC  538   1.256   1.070   1.245
   45c3c     N4  539   1.370   2.384   1.085
   45c3c     C1  540   1.507   2.328   1.076
   45c3c     C1  541   1.378   2.526   1.124
   45c3c     C2  542   1.605   2.434   1.125
   45c3c     C2  543   1.524   2.559   1.155
   45c3c     C1  544   1.307   2.377   0.953
   45c3c     C1  545   1.289   2.307   1.182
   45c3c     H1  546   1.534   2.300   0.974
   45c3c     H1  547   1.520   2.235   1.131
   45c3c     H1  548   1.343   2.594   1.046
   45c3c     H1  549   1.314   2.552   1.209
   45c3c     HC  550   1.679   2.455   1.047
   45c3c     HC  551   1.658   2.400   1.213
   45c3c     HC  552   1.558   2.642   1.094
   45c3c     HC  553   1.536   2.588   1.260
   45c3c     H1  554   1.302   2.274   0.915
   45c3c     H1  555   1.207   2.418   0.952
   45c3c     H1  556   1.365   2.433   0.879
   45c3c     H1  557   1.188   2.347   1.182
   45c3c     H1  558   1.281   2.204   1.147
   45c3c     C2  559   1.345   2.307   1.326
   45c3c     HC  560   1.353   2.409   1.366
   45c3c     HC  561   1.446   2.266   1.331
   45c3c     CT  562   1.257   2.227   1.422
   45c3c     HC  563   1.251   2.123   1.391
   45c3c     HC  564   1.156   2.268   1.426
   45c3c     HC  565   1.299   2.230   1.522
   46c3c     N4  566   1.033   1.758   0.956
   46c3c     C1  567   0.937   1.651   0.926
   46c3c     C1  568   1.008   1.874   0.867
   46c3c     C2  569   0.857   1.692   0.802
   46c3c     C2  570   0.901   1.833   0.766
   46c3c     C1  571   1.012   1.802   1.095
   46c3c     C1  572   1.172   1.710   0.942
   46c3c     H1  573   0.868   1.631   1.008
   46c3c     H1  574   0.984   1.554   0.909
   46c3c     H1  575   0.974   1.962   0.921
   46c3c     H1  576   1.097   1.909   0.816
   46c3c     HC  577   0.750   1.691   0.824
   46c3c     HC  578   0.874   1.624   0.719
   46c3c     HC  579   0.817   1.902   0.769
   46c3c     HC  580   0.941   1.835   0.664
   46c3c     H1  581   1.027   1.721   1.166
   46c3c     H1  582   1.079   1.883   1.123
   46c3c     H1  583   0.910   1.838   1.109
   46c3c     H1  584   1.241   1.790   0.970
   46c3c     H1  585   1.190   1.630   1.013
   46c3c     C2  586   1.208   1.661   0.800
   46c3c     HC  587   1.196   1.740   0.725
   46c3c     HC  588   1.144   1.580   0.767
   46c3c     CT  589   1.352   1.612   0.791
   46c3c     HC  590   1.370   1.529   0.859
   46c3c     HC  591   1.422   1.692   0.816
   46c3c     HC  592   1.375   1.579   0.690
   47c3c     N4  593   1.399   1.793   2.776
   47c3c     C1  594   1.398   1.647   2.757
   47c3c     C1  595   1.511   1.852   2.700
   47c3c     C2  596   1.524   1.608   2.679
   47c3c     C2  597   1.595   1.737   2.643
   47c3c     C1  598   1.274   1.848   2.722
   47c3c     C1  599   1.409   1.828   2.919
   47c3c     H1  600   1.310   1.611   2.704
   47c3c     H1  601   1.394   1.592   2.851
   47c3c     H1  602   1.478   1.916   2.618
   47c3c     H1  603   1.574   1.918   2.760
   47c3c     HC  604   1.496   1.553   2.589
   47c3c     HC  605   1.589   1.544   2.738
   47c3c     HC  606   1.603   1.747   2.534
   47c3c     HC  607   1.696   1.737   2.684
   47c3c     H1  608   1.187   1.807   2.773
   47c3c     H1  609   1.269   1.956   2.731
   47c3c     H1  610   1.263   1.824   2.617
   47c3c     H1  611   1.403   1.936   2.932
   47c3c     H1  612   1.322   1.789   2.973
   47c3c     C2  613   1.538   1.776   2.989
   47c3c     HC  614   1.628   1.815   2.941
   47c3c     HC  615   1.546   1.668   2.984
   47c3c     CT  616   1.543   1.816   3.136
   47c3c     HC  617   1.458   1.774   3.191
   47c3c     HC  618   1.541   1.924   3.148
   47c3c     HC  619   1.634   1.778   3.183
   48c3c     N4  620   2.819   0.822   4.325
   48c3c     C1  621   2.706   0.730   4.302
   48c3c     C1  622   2.767   0.956   4.358
   48c3c     C2  623   2.577   0.811   4.304
   48c3c     C2  624   2.615   0.954   4.339
   48c3c     C1  625   2.897   0.772   4.440
   48c3c     C1  626   2.908   0.827   4.208
   48c3c     H1  627   2.701   0.650   4.377
   48c3c     H1  628   2.715   0.675   4.208
   48c3c     H1  629   2.793   0.987   4.459
   48c3c     H1  630   2.812   1.034   4.296
   48c3c     HC  631   2.507   0.771   4.378
   48c3c     HC  632   2.527   0.808   4.207
   48c3c     HC  633   2.565   0.985   4.431
   48c3c     HC  634   2.585   1.022   4.259
   48c3c     H1  635   2.937   0.673   4.423
   48c3c     H1  636   2.982   0.837   4.463
   48c3c     H1  637   2.835   0.767   4.530
   48c3c     H1  638   2.994   0.890   4.228
   48c3c     H1  639   2.951   0.728   4.189
   48c3c     C2  640   2.839   0.877   4.078
   48c3c     HC  641   2.798   0.977   4.090
   48c3c     HC  642   2.754   0.814   4.050
   48c3c     CT  643   2.935   0.880   3.960
   48c3c     HC  644   2.974   0.781   3.939
   48c3c     HC  645   3.019   0.947   3.980
   48c3c     HC  646   2.884   0.916   3.871
   49c3c     N4  647   0.359   1.009   2.293
   49c3c     C1  648   0.441   1.126   2.256
   49c3c     C1  649   0.355   0.997   2.441
   49c3c     C2  650   0.505   1.182   2.383
   49c3c     C2  651   0.451   1.100   2.500
   49c3c     C1  652   0.223   1.031   2.245
   49c3c     C1  653   0.412   0.886   2.232
   49c3c     H1  654   0.383   1.204   2.208
   49c3c     H1  655   0.518   1.103   2.182
   49c3c     H1  656   0.255   1.013   2.481
   49c3c     H1  657   0.380   0.897   2.477
   49c3c     HC  658   0.479   1.287   2.395
   49c3c     HC  659   0.614   1.174   2.379
   49c3c     HC  660   0.398   1.165   2.570
   49c3c     HC  661   0.532   1.052   2.554
   49c3c     H1  662   0.218   1.043   2.136
   49c3c     H1  663   0.156   0.949   2.271
   49c3c     H1  664   0.180   1.121   2.288
   49c3c     H1  665   0.347   0.802   2.257
   49c3c     H1  666   0.408   0.894   2.124
   49c3c     C2  667   0.557   0.850   2.276
   49c3c     HC  668   0.564   0.836   2.383
   49c3c     HC  669   0.627   0.930   2.252
   49c3c     CT  670   0.607   0.722   2.209
   49c3c     HC  671   0.607   0.731   2.100
   49c3c     HC  672   0.544   0.637   2.236
   49c3c     HC  673   0.709   0.699   2.242
   50c3c     N4  674   4.195   3.651   4.218
   50c3c     C1  675   4.055   3.636   4.175
   50c3c     C1  676   4.264   3.521   4.207
   50c3c     C2  677   4.028   3.488   4.149
   50c3c     C2  678   4.160   3.415   4.169
   50c3c     C1  679   4.261   3.747   4.128
   50c3c     C1  680   4.203   3.703   4.356
   50c3c     H1  681   4.032   3.692   4.084
   50c3c     H1  682   3.983   3.676   4.247
   50c3c     H1  683   4.343   3.522   4.131
   50c3c     H1  684   4.317   3.493   4.298
   50c3c     HC  685   3.992   3.473   4.048
   50c3c     HC  686   3.953   3.449   4.218
   50c3c     HC  687   4.190   3.364   4.078
   50c3c     HC  688   4.151   3.341   4.248
   50c3c     H1  689   4.213   3.845   4.130
   50c3c     H1  690   4.366   3.761   4.153
   50c3c     H1  691   4.257   3.712   4.025
   50c3c     H1  692   4.307   3.719   4.384
   50c3c     H1  693   4.156   3.801   4.361
   50c3c     C2  694   4.136   3.611   4.462
   50c3c     HC  695   4.181   3.512   4.464
   50c3c     HC  696   4.030   3.595   4.441
   50c3c     CT  697   4.147   3.669   4.603
   50c3c     HC  698   4.097   3.766   4.609
   50c3c     HC  699   4.251   3.681   4.633
   50c3c     HC  700   4.099   3.602   4.675
   51fsi    FSI  701   4.344   3.213   2.826
   51fsi    SBT  702   4.363   3.134   2.692
   51fsi    NBT  703   4.338   3.245   2.585
   51fsi    OBT  704   4.498   3.083   2.698
   51fsi    OBT  705   4.256   3.038   2.690
   51fsi    SBT  706   4.440   3.348   2.526
   51fsi    OBT  707   4.556   3.373   2.609
   51fsi    OBT  708   4.374   3.461   2.468
   51fsi    FSI  709   4.498   3.270   2.402
   52fsi    FSI  710   2.577   3.022   2.613
   52fsi    SBT  711   2.621   3.168   2.652
   52fsi    NBT  712   2.758   3.182   2.577
   52fsi    OBT  713   2.514   3.250   2.601
   52fsi    OBT  714   2.635   3.160   2.795
   52fsi    SBT  715   2.782   3.220   2.426
   52fsi    OBT  716   2.669   3.197   2.340
   52fsi    OBT  717   2.910   3.174   2.379
   52fsi    FSI  718   2.797   3.377   2.431
   53fsi    FSI  719   1.684   2.785   0.299
   53fsi    SBT  720   1.764   2.652   0.276
   53fsi    NBT  721   1.899   2.678   0.353
   53fsi    OBT  722   1.681   2.550   0.335
   53fsi    OBT  723   1.782   2.648   0.133
   53fsi    SBT  724   1.928   2.659   0.506
   53fsi    OBT  725   1.812   2.661   0.592
   53fsi    OBT  726   2.042   2.736   0.550
   53fsi    FSI  727   1.980   2.511   0.513
   54fsi    FSI  728   3.524   1.141   3.967
   54fsi    SBT  729   3.392   1.143   4.051
   54fsi    NBT  730   3.350   0.992   4.052
   54fsi    OBT  731   3.432   1.194   4.180
   54fsi    OBT  732   3.301   1.224   3.975
   54fsi    SBT  733   3.413   0.876   4.137
   54fsi    OBT  734   3.541   0.906   4.195
   54fsi    OBT  735   3.395   0.748   4.075
   54fsi    FSI  736   3.315   0.873   4.261
   55fsi    FSI  737   2.302   3.958   4.321
   55fsi    SBT  738   2.435   4.016   4.260
   55fsi    NBT  739   2.518   3.887   4.227
   55fsi    OBT  740   2.394   4.090   4.143
   55fsi    OBT  741   2.492   4.092   4.367
   55fsi    SBT  742   2.505   3.794   4.102
   55fsi    OBT  743   2.381   3.806   4.030
   55fsi    OBT  744   2.558   3.662   4.124
   55fsi    FSI  745   2.610   3.858   4.002
   56fsi    FSI  746   1.523   1.812   4.162
   56fsi    SBT  747   1.559   1.922   4.269
   56fsi    NBT  748   1.446   1.902   4.375
   56fsi    OBT  749   1.691   1.885   4.314
   56fsi    OBT  750   1.547   2.045   4.196
   56fsi    SBT  751   1.440   1.798   4.493
   56fsi    OBT  752   1.527   1.683   4.478
   56fsi    OBT  753   1.306   1.770   4.537
   56fsi    FSI  754   1.502   1.878   4.612
   57fsi    FSI  755   4.104   1.174   2.755
   57fsi    SBT  756   3.958   1.227   2.781
   57fsi    NBT  757   3.941   1.202   2.935
   57fsi    OBT  758   3.963   1.365   2.743
   57fsi    OBT  759   3.877   1.140   2.700
   57fsi    SBT  760   3.985   1.296   3.053
   57fsi    OBT  761   4.091   1.388   3.021
   57fsi    OBT  762   3.998   1.225   3.178
   57fsi    FSI  763   3.860   1.389   3.076
   58fsi    FSI  764   4.908   0.752   1.530
   58fsi    SBT  765   4.812   0.628   1.542
   58fsi    NBT  766   4.677   0.685   1.487
   58fsi    OBT  767   4.875   0.529   1.459
   58fsi    OBT  768   4.810   0.603   1.684
   58fsi    SBT  769   4.630   0.693   1.337
   58fsi    OBT  770   4.737   0.697   1.241
   58fsi    OBT  771   4.523   0.787   1.317
   58fsi    FSI  772   4.561   0.555   1.313
   59fsi    FSI  773   0.755   4.814   4.458
   59fsi    SBT  774   0.747   4.674   4.530
   59fsi    NBT  775   0.608   4.685   4.604
   59fsi    OBT  776   0.751   4.579   4.423
   59fsi    OBT  777   0.858   4.678   4.621
   59fsi    SBT  778   0.466   4.655   4.545
   59fsi    OBT  779   0.457   4.667   4.402
   59fsi    OBT  780   0.363   4.722   4.621
   59fsi    FSI  781   0.443   4.502   4.576
   60fsi    FSI  782   3.569   1.462   4.446
   60fsi    SBT  783   3.580   1.568   4.561
   60fsi    NBT  784   3.540   1.486   4.688
   60fsi    OBT  785   3.719   1.607   4.558
   60fsi    OBT  786   3.482   1.667   4.526
   60fsi    SBT  787   3.633   1.397   4.778
   60fsi    OBT  788   3.755   1.353   4.716
   60fsi    OBT  789   3.559   1.299   4.853
   60fsi    FSI  790   3.681   1.498   4.889
   61fsi    FSI  791   3.507   3.664   4.963
   61fsi    SBT  792   3.656   3.612   4.965
   61fsi    NBT  793   3.637   3.456   4.963
   61fsi    OBT  794   3.715   3.667   4.846
   61fsi    OBT  795   3.706   3.659   5.091
   61fsi    SBT  796   3.613   3.363   4.839
   61fsi    OBT  797   3.560   3.430   4.723
   61fsi    OBT  798   3.552   3.238   4.875
   61fsi    FSI  799   3.760   3.322   4.797
   62fsi    FSI  800   3.459   3.370   3.175
   62fsi    SBT  801   3.416   3.497   3.258
   62fsi    NBT  802   3.489   3.612   3.180
   62fsi    OBT  803   3.272   3.497   3.248
   62fsi    OBT  804   3.472   3.470   3.387
   62fsi    SBT  805   3.441   3.686   3.050
   62fsi    OBT  806   3.344   3.612   2.972
   62fsi    OBT  807   3.550   3.745   2.977
   62fsi    FSI  808   3.361   3.809   3.106
   63fsi    FSI  809   1.304   4.216   1.010
   63fsi    SBT  810   1.256   4.190   0.862
   63fsi    NBT  811   1.339   4.063   0.821
   63fsi    OBT  812   1.114   4.168   0.875
   63fsi    OBT  813   1.298   4.308   0.792
   63fsi    SBT  814   1.308   3.913   0.855
   63fsi    OBT  815   1.218   3.897   0.967
   63fsi    OBT  816   1.425   3.830   0.851
   63fsi    FSI  817   1.224   3.866   0.730
   64fsi    FSI  818   2.042   0.459   2.130
   64fsi    SBT  819   2.010   0.600   2.067
   64fsi    NBT  820   2.039   0.700   2.185
   64fsi    OBT  821   2.101   0.612   1.957
   64fsi    OBT  822   1.870   0.592   2.035
   64fsi    SBT  823   2.179   0.758   2.227
   64fsi    OBT  824   2.293   0.683   2.182
   64fsi    OBT  825   2.179   0.806   2.363
   64fsi    FSI  826   2.187   0.891   2.144
   65fsi    FSI  827   0.727   2.548   4.317
   65fsi    SBT  828   0.667   2.676   4.249
   65fsi    NBT  829   0.549   2.618   4.162
   65fsi    OBT  830   0.625   2.761   4.357
   65fsi    OBT  831   0.774   2.725   4.166
   65fsi    SBT  832   0.404   2.583   4.208
   65fsi    OBT  833   0.386   2.562   4.349
   65fsi    OBT  834   0.340   2.490   4.118
   65fsi    FSI  835   0.326   2.717   4.180
   66fsi    FSI  836   3.263   4.698   1.224
   66fsi    SBT  837   3.112   4.683   1.269
   66fsi    NBT  838   3.078   4.826   1.325
   66fsi    OBT  839   3.043   4.646   1.148
   66fsi    OBT  840   3.118   4.583   1.372
   66fsi    SBT  841   3.042   4.956   1.244
   66fsi    OBT  842   3.089   4.957   1.108
   66fsi    OBT  843   3.062   5.077   1.320
   66fsi    FSI  844   2.885   4.946   1.232
   67fsi    FSI  845   0.854   0.411   3.274
   67fsi    SBT  846   0.776   0.532   3.338
   67fsi    NBT  847   0.881   0.591   3.439
   67fsi    OBT  848   0.747   0.619   3.226
   67fsi    OBT  849   0.664   0.470   3.403
   67fsi    SBT  850   0.997   0.693   3.411
   67fsi    OBT  851   1.037   0.705   3.273
   67fsi    OBT  852   1.102   0.688   3.509
   67fsi    FSI  853   0.927   0.831   3.440
   68fsi    FSI  854   0.988   4.085   3.658
   68fsi    SBT  855   0.857   4.012   3.705
   68fsi    NBT  856   0.896   3.961   3.849
   68fsi    OBT  857   0.756   4.114   3.703
   68fsi    OBT  858   0.842   3.904   3.610
   68fsi    SBT  859   0.893   4.041   3.984
   68fsi    OBT  860   0.895   4.184   3.969
   68fsi    OBT  861   0.981   3.984   4.083
   68fsi    FSI  862   0.750   4.009   4.039
   69fsi    FSI  863   3.320   4.603   2.961
   69fsi    SBT  864   3.390   4.514   2.851
   69fsi    NBT  865   3.486   4.617   2.781
   69fsi    OBT  866   3.457   4.411   2.925
   69fsi    OBT  867   3.281   4.474   2.766
   69fsi    SBT  868   3.629   4.663   2.827
   69fsi    OBT  869   3.658   4.640   2.966
   69fsi    OBT  870   3.667   4.790   2.772
   69fsi    FSI  871   3.723   4.561   2.752
   70fsi    FSI  872   0.270   1.192   1.746
   70fsi    SBT  873   0.423   1.165   1.777
   70fsi    NBT  874   0.492   1.300   1.738
   70fsi    OBT  875   0.430   1.134   1.917
   70fsi    OBT  876   0.459   1.058   1.688
   70fsi    SBT  877   0.504   1.430   1.824
   70fsi    OBT  878   0.411   1.439   1.933
   70fsi    OBT  879   0.528   1.548   1.746
   70fsi    FSI  880   0.642   1.405   1.896
   71fsi    FSI  881   2.856   4.674   0.644
   71fsi    SBT  882   2.765   4.802   0.642
   71fsi    NBT  883   2.694   4.797   0.782
   71fsi    OBT  884   2.856   4.912   0.623
   71fsi    OBT  885   2.672   4.774   0.535
   71fsi    SBT  886   2.757   4.839   0.920
   71fsi    OBT  887   2.900   4.845   0.917
   71fsi    OBT  888   2.693   4.774   1.031
   71fsi    FSI  889   2.712   4.990   0.934
   72fsi    FSI  890   1.745   1.075   4.319
   72fsi    SBT  891   1.821   0.989   4.426
   72fsi    NBT  892   1.714   0.883   4.469
   72fsi    OBT  893   1.935   0.935   4.357
   72fsi    OBT  894   1.849   1.082   4.533
   72fsi    SBT  895   1.676   0.749   4.396
   72fsi    OBT  896   1.713   0.743   4.258
   72fsi    OBT  897   1.544   0.705   4.432
   72fsi    FSI  898   1.770   0.644   4.467
   73fsi    FSI  899   3.156   0.621   4.612
   73fsi    SBT  900   3.185   0.469   4.579
   73fsi    NBT  901   3.165   0.464   4.424
   73fsi    OBT  902   3.320   0.448   4.625
   73fsi    OBT  903   3.079   0.400   4.648
   73fsi    SBT  904   3.267   0.508   4.312
   73fsi    OBT  905   3.369   0.597   4.359
   73fsi    OBT  906   3.196   0.541   4.191
   73fsi    FSI  907   3.342   0.374   4.278
   74fsi    FSI  908   3.692   2.209   4.557
   74fsi    SBT  909   3.843   2.186   4.596
   74fsi    NBT  910   3.834   2.083   4.714
   74fsi    OBT  911   3.905   2.137   4.476
   74fsi    OBT  912   3.885   2.316   4.641
   74fsi    SBT  913   3.810   1.928   4.701
   74fsi    OBT  914   3.757   1.891   4.573
   74fsi    OBT  915   3.750   1.872   4.819
   74fsi    FSI  916   3.956   1.871   4.702
   75fsi    FSI  917   1.612   1.785   1.545
   75fsi    SBT  918   1.703   1.896   1.480
   75fsi    NBT  919   1.777   1.956   1.605
   75fsi    OBT  920   1.787   1.823   1.389
   75fsi    OBT  921   1.607   1.987   1.423
   75fsi    SBT  922   1.905   1.902   1.677
   75fsi    OBT  923   1.931   1.762   1.656
   75fsi    OBT  924   1.915   1.949   1.813
   75fsi    FSI  925   2.022   1.976   1.603
   76fsi    FSI  926   1.435   2.140   0.561
   76fsi    SBT  927   1.546   2.249   0.586
   76fsi    NBT  928   1.678   2.165   0.568
   76fsi    OBT  929   1.520   2.348   0.486
   76fsi    OBT  930   1.523   2.286   0.723
   76fsi    SBT  931   1.752   2.128   0.435
   76fsi    OBT  932   1.671   2.135   0.316
   76fsi    OBT  933   1.834   2.011   0.450
   76fsi    FSI  934   1.857   2.244   0.418
   77fsi    FSI  935   3.775   4.366   0.559
   77fsi    SBT  936   3.630   4.363   0.620
   77fsi    NBT  937   3.586   4.513   0.613
   77fsi    OBT  938   3.557   4.274   0.534
   77fsi    OBT  939   3.652   4.317   0.755
   77fsi    SBT  940   3.526   4.591   0.490
   77fsi    OBT  941   3.549   4.528   0.362
   77fsi    OBT  942   3.546   4.733   0.498
   77fsi    FSI  943   3.371   4.574   0.512
   78fsi    FSI  944   4.466   2.894   3.041
   78fsi    SBT  945   4.323   2.862   2.984
   78fsi    NBT  946   4.261   2.768   3.094
   78fsi    OBT  947   4.257   2.989   2.978
   78fsi    OBT  948   4.350   2.791   2.862
   78fsi    SBT  949   4.183   2.814   3.222
   78fsi    OBT  950   4.220   2.942   3.275
   78fsi    OBT  951   4.167   2.706   3.315
   78fsi    FSI  952   4.037   2.834   3.169
   79fsi    FSI  953   2.362   3.640   0.635
   79fsi    SBT  954   2.436   3.509   0.585
   79fsi    NBT  955   2.580   3.563   0.554
   79fsi    OBT  956   2.429   3.419   0.698
   79fsi    OBT  957   2.363   3.473   0.467
   79fsi    SBT  958   2.700   3.582   0.653
   79fsi    OBT  959   2.662   3.595   0.791
   79fsi    OBT  960   2.798   3.675   0.604
   79fsi    FSI  961   2.774   3.443   0.646
   80fsi    FSI  962   4.540   4.829   0.523
   80fsi    SBT  963   4.424   4.809   0.627
   80fsi    NBT  964   4.441   4.658   0.667
   80fsi    OBT  965   4.454   4.904   0.731
   80fsi    OBT  966   4.306   4.833   0.549
   80fsi    SBT  967   4.540   4.597   0.773
   80fsi    OBT  968   4.653   4.680   0.806
   80fsi    OBT  969   4.567   4.458   0.749
   80fsi    FSI  970   4.453   4.595   0.905
   81fsi    FSI  971   1.307   3.449   0.845
   81fsi    SBT  972   1.263   3.464   0.996
   81fsi    NBT  973   1.146   3.360   1.008
   81fsi    OBT  974   1.380   3.429   1.072
   81fsi    OBT  975   1.216   3.598   1.005
   81fsi    SBT  976   1.155   3.207   1.039
   81fsi    OBT  977   1.282   3.146   1.012
   81fsi    OBT  978   1.037   3.135   0.999
   81fsi    FSI  979   1.146   3.204   1.197
   82fsi    FSI  980   4.481   4.262   1.129
   82fsi    SBT  981   4.514   4.314   1.274
   82fsi    NBT  982   4.372   4.345   1.333
   82fsi    OBT  983   4.583   4.204   1.336
   82fsi    OBT  984   4.591   4.433   1.250
   82fsi    SBT  985   4.270   4.243   1.394
   82fsi    OBT  986   4.296   4.107   1.357
   82fsi    OBT  987   4.134   4.290   1.387
   82fsi    FSI  988   4.304   4.249   1.548
   83fsi    FSI  989   1.952   3.292   4.422
   83fsi    SBT  990   2.018   3.432   4.454
   83fsi    NBT  991   1.978   3.518   4.329
   83fsi    OBT  992   1.956   3.472   4.578
   83fsi    OBT  993   2.159   3.402   4.458
   83fsi    SBT  994   1.842   3.593   4.303
   83fsi    OBT  995   1.731   3.546   4.381
   83fsi    OBT  996   1.819   3.618   4.163
   83fsi    FSI  997   1.871   3.737   4.361
   84fsi    FSI  998   1.258   4.518   2.591
   84fsi    SBT  999   1.394   4.542   2.516
   84fsi    NBT 1000   1.461   4.400   2.522
   84fsi    OBT 1001   1.353   4.587   2.386
   84fsi    OBT 1002   1.460   4.639   2.600
   84fsi    SBT 1003   1.437   4.278   2.426
   84fsi    OBT 1004   1.312   4.280   2.355
   84fsi    OBT 1005   1.474   4.153   2.487
   84fsi    FSI 1006   1.547   4.298   2.315
   85fsi    FSI 1007   1.681   4.532   1.767
   85fsi    SBT 1008   1.547   4.611   1.739
   85fsi    NBT 1009   1.449   4.551   1.845
   85fsi    OBT 1010   1.581   4.749   1.759
   85fsi    OBT 1011   1.512   4.571   1.605
   85fsi    SBT 1012   1.435   4.590   1.997
   85fsi    OBT 1013   1.549   4.658   2.052
   85fsi    OBT 1014   1.376   4.484   2.074
   85fsi    FSI 1015   1.323   4.700   1.994
   86fsi    FSI 1016   2.765   0.532   3.194
   86fsi    SBT 1017   2.631   0.612   3.177
   86fsi    NBT 1018   2.675   0.761   3.199
   86fsi    OBT 1019   2.587   0.583   3.043
   86fsi    OBT 1020   2.548   0.564   3.284
   86fsi    SBT 1021   2.740   0.859   3.094
   86fsi    OBT 1022   2.800   0.796   2.980
   86fsi    OBT 1023   2.812   0.967   3.156
   86fsi    FSI 1024   2.614   0.932   3.034
   87fsi    FSI 1025   5.050   0.576   4.970
   87fsi    SBT 1026   5.069   0.705   4.881
   87fsi    NBT 1027   4.921   0.742   4.844
   87fsi    OBT 1028   5.135   0.798   4.968
   87fsi    OBT 1029   5.144   0.656   4.769
   87fsi    SBT 1030   4.817   0.824   4.930
   87fsi    OBT 1031   4.847   0.830   5.071
   87fsi    OBT 1032   4.681   0.797   4.893
   87fsi    FSI 1033   4.840   0.971   4.880
   88fsi    FSI 1034   3.765   3.631   4.021
   88fsi    SBT 1035   3.626   3.558   4.006
   88fsi    NBT 1036   3.582   3.601   3.862
   88fsi    OBT 1037   3.658   3.419   4.022
   88fsi    OBT 1038   3.546   3.619   4.109
   88fsi    SBT 1039   3.627   3.538   3.725
   88fsi    OBT 1040   3.747   3.458   3.732
   88fsi    OBT 1041   3.617   3.632   3.617
   88fsi    FSI 1042   3.513   3.434   3.696
   89fsi    FSI 1043   0.640   2.329   4.936
   89fsi    SBT 1044   0.561   2.210   4.869
   89fsi    NBT 1045   0.424   2.277   4.830
   89fsi    OBT 1046   0.644   2.171   4.758
   89fsi    OBT 1047   0.547   2.115   4.976
   89fsi    SBT 1048   0.393   2.365   4.704
   89fsi    OBT 1049   0.509   2.423   4.642
   89fsi    OBT 1050   0.279   2.450   4.724
   89fsi    FSI 1051   0.342   2.259   4.599
   90fsi    FSI 1052   3.839   1.250   1.867
   90fsi    SBT 1053   3.925   1.122   1.898
   90fsi    NBT 1054   3.816   1.010   1.909
   90fsi    OBT 1055   4.013   1.110   1.785
   90fsi    OBT 1056   3.985   1.154   2.025
   90fsi    SBT 1057   3.749   0.928   1.792
   90fsi    OBT 1058   3.759   0.990   1.663
   90fsi    OBT 1059   3.621   0.874   1.829
   90fsi    FSI 1060   3.842   0.801   1.781
   91fsi    FSI 1061   1.124   2.266   4.069
   91fsi    SBT 1062   1.055   2.266   3.927
   91fsi    NBT 1063   1.030   2.419   3.899
   91fsi    OBT 1064   1.152   2.206   3.839
   91fsi    OBT 1065   0.933   2.194   3.947
   91fsi    SBT 1066   1.131   2.526   3.845
   91fsi    OBT 1067   1.270   2.491   3.857
   91fsi    OBT 1068   1.093   2.660   3.877
   91fsi    FSI 1069   1.105   2.519   3.690
   92fsi    FSI 1070   4.082   3.905   1.324
   92fsi    SBT 1071   4.011   3.903   1.464
   92fsi    NBT 1072   4.030   3.754   1.510
   92fsi    OBT 1073   4.081   3.999   1.545
   92fsi    OBT 1074   3.873   3.932   1.432
   92fsi    SBT 1075   4.156   3.691   1.580
   92fsi    OBT 1076   4.280   3.759   1.556
   92fsi    OBT 1077   4.157   3.548   1.568
   92fsi    FSI 1078   4.127   3.715   1.733
   93fsi    FSI 1079   3.431   1.065   3.041
   93fsi    SBT 1080   3.504   1.199   3.081
   93fsi    NBT 1081   3.403   1.309   3.032
   93fsi    OBT 1082   3.519   1.190   3.224
   93fsi    OBT 1083   3.623   1.197   3.000
   93fsi    SBT 1084   3.277   1.363   3.108
   93fsi    OBT 1085   3.220   1.275   3.205
   93fsi    OBT 1086   3.185   1.429   3.018
   93fsi    FSI 1087   3.335   1.483   3.193
   94fsi    FSI 1088   1.840   1.687   3.969
   94fsi    SBT 1089   1.702   1.672   3.895
   94fsi    NBT 1090   1.659   1.822   3.874
   94fsi    OBT 1091   1.734   1.603   3.773
   94fsi    OBT 1092   1.621   1.600   3.989
   94fsi    SBT 1093   1.700   1.920   3.759
   94fsi    OBT 1094   1.819   1.882   3.686
   94fsi    OBT 1095   1.688   2.059   3.794
   94fsi    FSI 1096   1.585   1.899   3.654
   95fsi    FSI 1097   1.969   4.454   0.986
   95fsi    SBT 1098   1.975   4.607   0.950
   95fsi    NBT 1099   1.843   4.664   1.015
   95fsi    OBT 1100   2.097   4.653   1.011
   95fsi    OBT 1101   1.971   4.606   0.806
   95fsi    SBT 1102   1.819   4.702   1.166
   95fsi    OBT 1103   1.913   4.644   1.259
   95fsi    OBT 1104   1.680   4.699   1.202
   95fsi    FSI 1105   1.854   4.856   1.168
   96fsi    FSI 1106   3.845   1.194   3.513
   96fsi    SBT 1107   3.839   1.298   3.631
   96fsi    NBT 1108   3.696   1.362   3.615
   96fsi    OBT 1109   3.857   1.219   3.750
   96fsi    OBT 1110   3.944   1.391   3.600
   96fsi    SBT 1111   3.559   1.303   3.663
   96fsi    OBT 1112   3.559   1.161   3.685
   96fsi    OBT 1113   3.446   1.360   3.594
   96fsi    FSI 1114   3.546   1.366   3.807
   97fsi    FSI 1115   1.347   3.662   3.370
   97fsi    SBT 1116   1.417   3.780   3.448
   97fsi    NBT 1117   1.536   3.707   3.519
   97fsi    OBT 1118   1.455   3.873   3.345
   97fsi    OBT 1119   1.315   3.823   3.541
   97fsi    SBT 1120   1.677   3.672   3.460
   97fsi    OBT 1121   1.683   3.668   3.316
   97fsi    OBT 1122   1.742   3.565   3.531
   97fsi    FSI 1123   1.763   3.799   3.498
   98fsi    FSI 1124   4.003   2.038   2.509
   98fsi    SBT 1125   3.858   1.978   2.509
   98fsi    NBT 1126   3.884   1.823   2.506
   98fsi    OBT 1127   3.798   2.027   2.630
   98fsi    OBT 1128   3.801   2.026   2.386
   98fsi    SBT 1129   3.926   1.730   2.625
   98fsi    OBT 1130   3.972   1.801   2.742
   98fsi    OBT 1131   4.002   1.618   2.580
   98fsi    FSI 1132   3.787   1.668   2.669
   99fsi    FSI 1133   2.606   1.469   0.817
   99fsi    SBT 1134   2.450   1.478   0.794
   99fsi    NBT 1135   2.393   1.403   0.920
   99fsi    OBT 1136   2.423   1.619   0.789
   99fsi    OBT 1137   2.430   1.404   0.672
   99fsi    SBT 1138   2.370   1.461   1.064
   99fsi    OBT 1139   2.444   1.580   1.094
   99fsi    OBT 1140   2.368   1.358   1.165
   99fsi    FSI 1141   2.220   1.509   1.059
  100fsi    FSI 1142   2.849   4.763   3.899
  100fsi    SBT 1143   2.798   4.712   3.759
  100fsi    NBT 1144   2.722   4.839   3.707
  100fsi    OBT 1145   2.919   4.679   3.687
  100fsi    OBT 1146   2.710   4.604   3.794
  100fsi    SBT 1147   2.780   4.963   3.632
  100fsi    OBT 1148   2.920   4.987   3.659
  100fsi    OBT 1149   2.692   5.076   3.645
  100fsi    FSI 1150   2.773   4.924   3.480
   5.28770   5.28770   5.28770
