L1P1 short trajectory practice
 1150
    1Li+     Li    1   0.472   2.518   0.814 -0.6012 -1.7042  0.4063
    2Li+     Li    2   0.602   3.099   0.917 -0.5743 -0.0705 -0.7418
    3Li+     Li    3   1.940   1.880   0.023 -0.5963  0.0155 -0.4155
    4Li+     Li    4   2.043   2.386   4.973 -0.2680 -0.5223 -0.6265
    5Li+     Li    5   0.238   2.492   1.625 -0.8481  0.0196  1.2110
    6Li+     Li    6   1.182   2.671   0.959 -0.0387  0.1292  0.2514
    7Li+     Li    7   0.144   2.576   1.172 -0.3302 -0.3389  0.2749
    8Li+     Li    8   0.936   2.621   0.577  0.1085  0.6238 -0.1085
    9Li+     Li    9   1.435   2.449   0.349  0.1030 -0.1662 -0.9808
   10Li+     Li   10   1.135   2.204   1.062 -0.5650 -0.0902  0.0789
   11Li+     Li   11   1.492   3.116   0.746  0.5840  0.1209  0.9629
   12Li+     Li   12   1.641   1.878   0.996  0.0879  0.0157  0.0247
   13Li+     Li   13   0.165   2.443   0.635 -0.9867 -0.1945  0.1430
   14Li+     Li   14   1.992   1.550   0.561 -0.4417  0.7813  1.0660
   15Li+     Li   15   1.856   3.363   4.891 -0.2285  0.8266  0.1191
   16Li+     Li   16   0.630   2.179   0.970 -0.0181 -0.2688  0.6476
   17Li+     Li   17   1.590   1.789   0.340 -1.4913  0.2816 -1.0429
   18Li+     Li   18   2.208   3.147   5.085  0.1058 -0.5516 -0.0925
   19Li+     Li   19   1.973   2.641   0.241  0.9102  0.3817  0.0520
   20Li+     Li   20   1.972   3.143   0.324 -0.4765  0.0071  0.1728
   21Li+     Li   21   1.013   1.903   0.612 -0.4605 -0.1958 -0.2223
   22Li+     Li   22   2.017   2.843   4.712 -0.2563 -0.0863 -0.1894
   23Li+     Li   23   1.257   2.410   2.722 -0.3148  0.6501 -0.4258
   24Li+     Li   24   1.603   2.471   2.209  0.7666 -0.8085 -0.8994
   25Li+     Li   25   0.537   2.075   1.513 -0.9620  0.6430  0.7899
   26c3c     N4   26   0.679   2.257   0.163  0.3917  0.0030  0.3068
   26c3c     C1   27   0.674   2.164   0.041  1.6490 -0.6251  0.5684
   26c3c     C1   28   0.705   2.387   0.096 -0.0287  0.2414  0.0057
   26c3c     C2   29   0.593   2.239  -0.064 -0.0212  0.8513 -0.1972
   26c3c     C2   30   0.616   2.382  -0.030 -0.4283 -0.9870 -0.5008
   26c3c     C1   31   0.555   2.263   0.241  0.2446  0.5822 -0.0684
   26c3c     C1   32   0.785   2.215   0.255  0.1284  0.5066  0.1452
   26c3c     H1   33   0.626   2.068   0.064 -1.3839  0.7711  0.2595
   26c3c     H1   34   0.772   2.151  -0.004  1.1220  0.5309 -0.9514
   26c3c     H1   35   0.672   2.464   0.166  0.4346 -0.7260  1.3269
   26c3c     H1   36   0.806   2.394   0.056 -0.2146 -3.9318 -1.4510
   26c3c     HC   37   0.486   2.222  -0.053  0.1816 -0.7512 -0.6187
   26c3c     HC   38   0.622   2.213  -0.165  1.1465  2.7416 -0.3747
   26c3c     HC   39   0.519   2.422  -0.000 -0.4549 -0.5384 -1.1892
   26c3c     HC   40   0.654   2.437  -0.116 -0.1847  1.9425  1.4086
   26c3c     H1   41   0.527   2.166   0.283 -2.2467  1.7252  0.9845
   26c3c     H1   42   0.565   2.322   0.332  1.4196  1.2045 -0.5893
   26c3c     H1   43   0.465   2.297   0.190 -0.2820 -2.4874 -1.3070
   26c3c     H1   44   0.799   2.300   0.321 -1.6313  0.9574 -0.0230
   26c3c     H1   45   0.759   2.131   0.318 -2.5955  0.8435 -0.4387
   26c3c     C2   46   0.929   2.183   0.198 -0.3629 -0.0941 -0.0611
   26c3c     HC   47   0.948   2.266   0.130 -1.7190 -0.9711 -1.5363
   26c3c     HC   48   0.925   2.090   0.143  1.1382 -0.8585  1.0769
   26c3c     CT   49   1.034   2.182   0.308  0.3099  0.8987 -0.6060
   26c3c     HC   50   1.075   2.280   0.332 -0.3046  1.0516 -0.1552
   26c3c     HC   51   1.115   2.128   0.260 -0.4135  1.9163 -3.0426
   26c3c     HC   52   1.006   2.121   0.394 -1.9411 -0.6880 -2.4331
   27c3c     N4   53   1.090   3.424   0.829 -0.4736 -0.2720 -0.2795
   27c3c     C1   54   1.010   3.304   0.869 -0.0954 -0.6111  0.0645
   27c3c     C1   55   1.014   3.537   0.885  0.1785  0.0417  0.5404
   27c3c     C2   56   0.954   3.334   1.004 -0.2548  0.6370 -0.3983
   27c3c     C2   57   0.966   3.482   1.023  0.2301  0.3605  0.4998
   27c3c     C1   58   1.223   3.417   0.894 -0.6435 -0.2564 -0.1355
   27c3c     C1   59   1.120   3.436   0.686 -0.2583 -0.8615 -0.5799
   27c3c     H1   60   1.068   3.212   0.866 -0.5919 -0.9327  0.2274
   27c3c     H1   61   0.932   3.288   0.794 -0.0164  0.5477 -0.2799
   27c3c     H1   62   1.071   3.629   0.896  0.7316 -0.4439  1.9537
   27c3c     H1   63   0.924   3.557   0.827  0.2958 -2.2085 -0.4533
   27c3c     HC   64   1.011   3.296   1.089  0.6769  1.0915 -0.8054
   27c3c     HC   65   0.851   3.299   1.004  0.2949 -1.0502 -1.1035
   27c3c     HC   66   1.031   3.499   1.109  0.2004 -2.4484  1.1220
   27c3c     HC   67   0.871   3.531   1.040 -0.3142 -0.4491 -0.1717
   27c3c     H1   68   1.270   3.319   0.881  0.2998 -0.1223  2.0382
   27c3c     H1   69   1.286   3.502   0.869  0.1880 -1.1185 -1.0469
   27c3c     H1   70   1.214   3.423   1.003 -1.0584  0.4130 -0.2082
   27c3c     H1   71   1.185   3.521   0.666  0.9281 -1.7421 -0.4791
   27c3c     H1   72   1.175   3.346   0.659  0.5678  0.6044 -4.0333
   27c3c     C2   73   1.003   3.455   0.587  0.3172  0.1409  0.4223
   27c3c     HC   74   0.936   3.536   0.614  0.0272 -0.1365  0.5263
   27c3c     HC   75   0.946   3.363   0.594 -1.1984  1.0538  0.1475
   27c3c     CT   76   1.051   3.458   0.442  0.0715 -0.0748  0.0319
   27c3c     HC   77   0.974   3.446   0.366  0.6712  0.7872 -0.7263
   27c3c     HC   78   1.121   3.376   0.421  1.4872  1.0854  0.1242
   27c3c     HC   79   1.101   3.553   0.425  1.6268 -1.1068 -1.4489
   28c3c     N4   80   0.596   3.108   0.316 -0.4159 -0.1767  0.7627
   28c3c     C1   81   0.492   3.051   0.402 -0.8661  0.1013 -0.1474
   28c3c     C1   82   0.525   3.158   0.197 -0.3950 -0.7792  0.3796
   28c3c     C2   83   0.373   3.140   0.387  0.3503 -0.5963 -0.5463
   28c3c     C2   84   0.396   3.222   0.256 -0.2067  0.8619 -0.7810
   28c3c     C1   85   0.649   3.222   0.388 -0.3159 -0.3433  0.1515
   28c3c     C1   86   0.702   3.009   0.285  0.3174 -0.0845 -0.0655
   28c3c     H1   87   0.526   3.034   0.504 -1.5811  0.1572  0.1048
   28c3c     H1   88   0.451   2.962   0.353 -0.8078  0.5521 -1.0216
   28c3c     H1   89   0.583   3.223   0.133 -0.2684 -0.5720  0.7012
   28c3c     H1   90   0.489   3.083   0.126  1.0578 -0.8366 -0.2995
   28c3c     HC   91   0.348   3.208   0.469  0.7191  1.6327 -2.2711
   28c3c     HC   92   0.283   3.078   0.377  1.6631 -2.5962 -0.3378
   28c3c     HC   93   0.422   3.325   0.280 -0.1471  0.6010  0.3263
   28c3c     HC   94   0.312   3.228   0.188 -0.4467  2.2151 -0.3788
   28c3c     H1   95   0.685   3.190   0.486 -0.1572 -1.2829 -0.2156
   28c3c     H1   96   0.736   3.269   0.342 -0.4776 -0.2417 -0.0494
   28c3c     H1   97   0.584   3.304   0.419  1.1993  1.1119 -0.4386
   28c3c     H1   98   0.776   3.079   0.244  0.4480 -0.6511 -0.7936
   28c3c     H1   99   0.733   2.963   0.379  0.9653 -0.0292 -0.2484
   28c3c     C2  100   0.678   2.911   0.176 -0.5248 -0.2989 -0.1553
   28c3c     HC  101   0.677   2.959   0.079  2.2230  1.1624  0.4751
   28c3c     HC  102   0.579   2.872   0.201 -0.9437  0.3353 -0.8249
   28c3c     CT  103   0.781   2.791   0.171 -0.6804 -0.0827 -0.8151
   28c3c     HC  104   0.753   2.733   0.083 -1.0671 -0.6108 -0.3478
   28c3c     HC  105   0.787   2.731   0.261 -0.3813 -0.1919 -0.9069
   28c3c     HC  106   0.879   2.835   0.152 -1.1715  0.2694 -2.6756
   29c3c     N4  107   1.786   3.064   4.237 -0.2910  0.0217  0.3716
   29c3c     C1  108   1.704   3.032   4.117 -0.0742 -0.5047 -0.0544
   29c3c     C1  109   1.797   3.208   4.234 -0.2552  0.1141  0.5049
   29c3c     C2  110   1.597   3.139   4.114 -0.6853  0.6582  0.0943
   29c3c     C2  111   1.660   3.259   4.181 -0.4129 -0.5443 -0.2534
   29c3c     C1  112   1.713   3.024   4.355  0.3431  0.2454  0.3066
   29c3c     C1  113   1.912   2.988   4.245 -0.3904 -0.8009 -0.1011
   29c3c     H1  114   1.665   2.930   4.123  0.9147 -0.8882  0.0230
   29c3c     H1  115   1.763   3.048   4.026 -0.8217  0.0286 -0.4473
   29c3c     H1  116   1.828   3.254   4.328  1.8866 -1.2412  0.4844
   29c3c     H1  117   1.862   3.241   4.153  0.8005  1.8273  2.0114
   29c3c     HC  118   1.521   3.104   4.184 -1.6628 -0.2326 -1.3754
   29c3c     HC  119   1.554   3.161   4.016  0.7058  1.2779 -0.3873
   29c3c     HC  120   1.591   3.289   4.259  0.8860  0.8262  0.3881
   29c3c     HC  121   1.668   3.342   4.110  0.3431  0.2268  0.7201
   29c3c     H1  122   1.696   2.918   4.372 -0.0795  0.2800  0.1171
   29c3c     H1  123   1.763   3.058   4.446  0.6449 -0.1917  0.3054
   29c3c     H1  124   1.614   3.067   4.364 -0.0588 -0.5355 -0.3208
   29c3c     H1  125   1.968   3.001   4.338  2.4608  2.4301 -2.1328
   29c3c     H1  126   1.880   2.884   4.242 -1.4250 -0.4368 -3.5621
   29c3c     C2  127   2.015   3.019   4.140  0.0569  0.4770  0.3540
   29c3c     HC  128   2.057   3.118   4.161 -1.7009  1.0560  1.2815
   29c3c     HC  129   1.986   3.020   4.035 -0.4294  0.7116  0.4910
   29c3c     CT  130   2.125   2.917   4.158  0.2841 -0.2868  0.1999
   29c3c     HC  131   2.179   2.948   4.247  2.2059 -1.9638 -0.3547
   29c3c     HC  132   2.195   2.924   4.074  0.2215  0.2544  0.1902
   29c3c     HC  133   2.083   2.817   4.160 -0.5122 -0.0449 -2.0864
   30c3c     N4  134   1.123   1.742   1.501  0.2037  0.8233  0.0486
   30c3c     C1  135   0.998   1.673   1.466  0.2771 -0.5152  0.5990
   30c3c     C1  136   1.210   1.628   1.509  0.7557  0.1032 -0.1315
   30c3c     C2  137   1.018   1.561   1.368  0.1800 -0.3568  0.2110
   30c3c     C2  138   1.164   1.525   1.402 -0.0548 -0.4247  0.0606
   30c3c     C1  139   1.170   1.834   1.392  0.8385 -0.1688 -0.3342
   30c3c     C1  140   1.112   1.817   1.624 -0.1870  0.3757 -0.5078
   30c3c     H1  141   0.922   1.744   1.436  1.9862  1.4470  0.8418
   30c3c     H1  142   0.956   1.627   1.555 -0.9075 -0.5398  0.0380
   30c3c     H1  143   1.318   1.639   1.498  0.6303 -0.5610 -2.3341
   30c3c     H1  144   1.185   1.563   1.592 -1.4286  0.5347 -0.4291
   30c3c     HC  145   1.017   1.611   1.272  1.3268 -0.1057  0.3163
   30c3c     HC  146   0.961   1.468   1.379  1.7787 -1.5017 -0.8716
   30c3c     HC  147   1.230   1.526   1.315  1.1435  0.0309  0.9565
   30c3c     HC  148   1.168   1.422   1.438 -0.3804  0.1806  1.8792
   30c3c     H1  149   1.106   1.922   1.384 -0.9561 -1.2663  1.6247
   30c3c     H1  150   1.275   1.853   1.414  0.8637  0.6985 -1.1650
   30c3c     H1  151   1.161   1.787   1.294  1.7941 -0.0657 -0.4725
   30c3c     H1  152   1.208   1.866   1.638  0.3541 -1.1288  1.2505
   30c3c     H1  153   1.050   1.905   1.607 -2.3607 -0.4470  2.7655
   30c3c     C2  154   1.073   1.745   1.752  0.3760  0.1718 -1.0905
   30c3c     HC  155   1.145   1.666   1.773  2.4352  2.9839  3.0217
   30c3c     HC  156   0.974   1.699   1.745 -0.2965  1.6209 -1.3402
   30c3c     CT  157   1.074   1.844   1.870  0.3656  0.4568  0.4293
   30c3c     HC  158   1.170   1.889   1.895  1.5216 -1.9934  0.5779
   30c3c     HC  159   1.036   1.791   1.957 -1.1574  0.5466 -0.1695
   30c3c     HC  160   1.005   1.926   1.852 -0.8600 -0.8014 -0.6812
   31c3c     N4  161   1.250   2.621   4.589 -0.0350  0.7035 -0.0162
   31c3c     C1  162   1.212   2.745   4.658  0.4952 -0.2313 -0.0053
   31c3c     C1  163   1.304   2.675   4.458 -0.1415 -0.0403 -0.0042
   31c3c     C2  164   1.324   2.840   4.622 -0.1734 -0.8170  0.3578
   31c3c     C2  165   1.389   2.795   4.492 -0.0058 -0.0284 -0.0857
   31c3c     C1  166   1.355   2.545   4.660  0.3196  0.4764  0.3297
   31c3c     C1  167   1.126   2.535   4.576  0.0302 -0.0894  0.0871
   31c3c     H1  168   1.208   2.742   4.767  0.6771 -3.3629 -0.0560
   31c3c     H1  169   1.119   2.791   4.624 -0.7089 -2.0695  0.7535
   31c3c     H1  170   1.352   2.604   4.390 -0.3149  0.5526 -0.7547
   31c3c     H1  171   1.230   2.725   4.395  0.5069  0.4780 -0.3611
   31c3c     HC  172   1.399   2.840   4.700 -2.8672  1.1083  3.0336
   31c3c     HC  173   1.280   2.940   4.622 -0.3670 -0.8908 -0.4787
   31c3c     HC  174   1.495   2.783   4.517  0.5735  0.1626 -2.2699
   31c3c     HC  175   1.381   2.879   4.422 -0.7447  0.2080  0.2807
   31c3c     H1  176   1.380   2.446   4.622  1.9358  0.7397  0.6755
   31c3c     H1  177   1.451   2.597   4.652  1.7275 -2.1213 -0.1335
   31c3c     H1  178   1.342   2.530   4.767  1.3722  0.7327  0.4941
   31c3c     H1  179   1.151   2.437   4.537 -0.0668  0.6003 -1.7708
   31c3c     H1  180   1.075   2.507   4.669 -1.2854 -1.3605 -0.9934
   31c3c     C2  181   1.010   2.582   4.485 -1.0636  0.3460  0.5835
   31c3c     HC  182   1.050   2.580   4.384 -0.1505  2.7454  0.8847
   31c3c     HC  183   0.977   2.685   4.497 -0.9807  0.1204  2.9695
   31c3c     CT  184   0.897   2.489   4.487  0.0503  0.2240  0.0637
   31c3c     HC  185   0.846   2.507   4.392  2.3083 -1.5047 -1.5461
   31c3c     HC  186   0.828   2.507   4.569  0.4862 -0.9631  0.7101
   31c3c     HC  187   0.936   2.387   4.482  1.5668  0.8966 -2.6516
   32c3c     N4  188   2.071   2.243   2.387 -0.1834  0.1260  0.3168
   32c3c     C1  189   2.149   2.350   2.316  0.3111 -0.6464 -1.0938
   32c3c     C1  190   2.083   2.290   2.527 -0.3942  0.6351  0.5303
   32c3c     C2  191   2.114   2.484   2.384 -0.5958 -0.2082 -0.0142
   32c3c     C2  192   2.084   2.447   2.528  0.9558 -0.8985  0.1450
   32c3c     C1  193   1.932   2.256   2.357 -0.1691  0.7579  0.1647
   32c3c     C1  194   2.108   2.105   2.357 -0.1111  0.6819 -0.1902
   32c3c     H1  195   2.135   2.357   2.208 -1.6311  0.1293 -0.7995
   32c3c     H1  196   2.257   2.339   2.326  0.3164 -0.5808 -1.0771
   32c3c     H1  197   2.002   2.252   2.589  0.8121 -1.0337  1.1223
   32c3c     H1  198   2.178   2.268   2.575 -0.2882  1.2779  0.6203
   32c3c     HC  199   2.020   2.520   2.340 -0.9531 -1.1584 -0.0285
   32c3c     HC  200   2.183   2.568   2.386 -2.3378  1.2527  1.6314
   32c3c     HC  201   1.997   2.500   2.566  1.4255 -0.6347  0.8613
   32c3c     HC  202   2.168   2.484   2.586 -0.3079  0.0547  1.4038
   32c3c     H1  203   1.925   2.241   2.249 -1.4112  1.7148  0.1040
   32c3c     H1  204   1.859   2.193   2.408 -0.6970 -0.1814 -1.7154
   32c3c     H1  205   1.885   2.353   2.372 -0.0912  0.8753 -0.3463
   32c3c     H1  206   2.047   2.029   2.406  0.9632  0.2009  0.4270
   32c3c     H1  207   2.115   2.106   2.248  1.1747  1.9778 -0.1038
   32c3c     C2  208   2.248   2.057   2.407  0.3301  0.8903 -0.1493
   32c3c     HC  209   2.265   2.063   2.515 -0.3650  0.2020  0.0023
   32c3c     HC  210   2.321   2.124   2.363  1.3565 -0.5729 -0.7065
   32c3c     CT  211   2.289   1.916   2.362  0.1265 -0.4725  0.6531
   32c3c     HC  212   2.275   1.909   2.254 -2.2300  0.4631  0.8760
   32c3c     HC  213   2.228   1.845   2.419  1.2948 -0.5097  1.8773
   32c3c     HC  214   2.397   1.910   2.375  0.3575  0.5621 -0.7093
   33c3c     N4  215   2.062   3.026   0.904 -0.2395  0.1706  0.2879
   33c3c     C1  216   2.198   3.000   0.853  0.0522  0.0082 -0.2954
   33c3c     C1  217   2.061   3.169   0.923 -0.0818  1.0764 -0.4231
   33c3c     C2  218   2.219   3.116   0.750  0.0227 -0.0004 -0.1659
   33c3c     C2  219   2.118   3.226   0.802 -0.0362  0.0789  0.4961
   33c3c     C1  220   1.964   2.982   0.804  0.0091 -0.0285 -0.8199
   33c3c     C1  221   2.044   2.957   1.036  0.3463  0.4910 -0.0971
   33c3c     H1  222   2.216   2.899   0.815  0.0465  0.0050 -0.2893
   33c3c     H1  223   2.269   3.024   0.932  1.1154  2.7450 -2.0297
   33c3c     H1  224   1.960   3.203   0.945 -0.4170 -0.2629  0.1277
   33c3c     H1  225   2.121   3.199   1.009 -0.1305 -0.5656  0.1868
   33c3c     HC  226   2.201   3.082   0.648  0.3096 -1.7715  0.3656
   33c3c     HC  227   2.324   3.146   0.746 -0.2244  0.7110 -2.3030
   33c3c     HC  228   2.042   3.247   0.726  2.0235  2.0768 -1.0954
   33c3c     HC  229   2.182   3.312   0.822  2.7166 -1.7352 -0.1353
   33c3c     H1  230   1.865   3.001   0.846 -1.2533 -0.7069 -3.3936
   33c3c     H1  231   1.960   3.039   0.711  3.1903  1.9053  0.1619
   33c3c     H1  232   1.983   2.876   0.788  4.5113  0.5304  0.2349
   33c3c     H1  233   1.938   2.972   1.056  0.5301 -0.4317  1.6278
   33c3c     H1  234   2.062   2.852   1.013 -0.7285  0.4883 -1.0025
   33c3c     C2  235   2.143   2.976   1.159 -0.0286  0.2221 -0.0103
   33c3c     HC  236   2.136   3.079   1.193  0.8060  0.3589 -0.2407
   33c3c     HC  237   2.248   2.951   1.141  0.5717  2.9706 -0.4681
   33c3c     CT  238   2.100   2.888   1.272 -0.0472 -0.0361  0.1447
   33c3c     HC  239   1.992   2.891   1.281 -0.2893  0.1800 -2.5533
   33c3c     HC  240   2.138   2.923   1.368  1.2442 -0.7470 -0.0858
   33c3c     HC  241   2.131   2.786   1.247 -1.1505 -0.5727  0.9193
   34c3c     N4  242   1.371   2.659   3.511 -0.1543 -0.2677  0.1517
   34c3c     C1  243   1.500   2.647   3.440  0.4825  0.3366  0.2680
   34c3c     C1  244   1.375   2.797   3.567 -0.4269 -0.8849  0.4698
   34c3c     C2  245   1.527   2.786   3.379 -0.3897  0.0006  0.3562
   34c3c     C2  246   1.437   2.884   3.458  0.7170 -0.0145 -0.3266
   34c3c     C1  247   1.262   2.648   3.408 -0.5198  1.1720  0.3889
   34c3c     C1  248   1.349   2.547   3.613  0.0123 -0.7993  1.0581
   34c3c     H1  249   1.503   2.570   3.362 -1.9006  0.3751  0.1150
   34c3c     H1  250   1.579   2.633   3.514  1.2628  0.6135 -0.4999
   34c3c     H1  251   1.279   2.820   3.612 -0.6017  2.6805 -1.5421
   34c3c     H1  252   1.447   2.805   3.648 -0.0796 -0.4822  0.1291
   34c3c     HC  253   1.500   2.788   3.274 -0.8781  0.2872  0.4889
   34c3c     HC  254   1.632   2.815   3.378 -0.1896 -0.5819 -3.2361
   34c3c     HC  255   1.349   2.930   3.414 -0.9598  0.7529  3.5899
   34c3c     HC  256   1.492   2.968   3.501 -0.4873  1.2960 -1.2774
   34c3c     H1  257   1.265   2.554   3.352  1.3646  1.7824 -0.5883
   34c3c     H1  258   1.158   2.651   3.437 -0.2045  2.4204  1.4401
   34c3c     H1  259   1.276   2.725   3.331  0.1757  0.6042 -0.0610
   34c3c     H1  260   1.247   2.565   3.649  0.3470  1.5134  0.9407
   34c3c     H1  261   1.352   2.449   3.565 -0.6622 -0.4196  0.2214
   34c3c     C2  262   1.455   2.527   3.735  0.5284 -0.4678  0.2114
   34c3c     HC  263   1.457   2.624   3.784 -0.8957 -0.5205  0.4110
   34c3c     HC  264   1.551   2.508   3.687 -0.0303  1.8124 -1.9360
   34c3c     CT  265   1.434   2.414   3.837 -0.9979  0.0392  0.2345
   34c3c     HC  266   1.516   2.420   3.908  0.7424 -2.9266 -1.4563
   34c3c     HC  267   1.442   2.316   3.790  1.8989  0.0402  0.6281
   34c3c     HC  268   1.341   2.426   3.893  0.6785  1.4635  2.7986
   35c3c     N4  269   0.668   2.197   2.221  0.6611  0.0801 -0.1614
   35c3c     C1  270   0.616   2.241   2.093 -0.1836 -0.2894  0.0089
   35c3c     C1  271   0.615   2.058   2.234  0.4478  0.3195 -0.0168
   35c3c     C2  272   0.618   2.130   1.991  0.1380  0.2331  0.1842
   35c3c     C2  273   0.595   2.010   2.080 -0.0756 -0.2805 -0.6349
   35c3c     C1  274   0.814   2.197   2.211 -0.4282 -0.2757 -0.2551
   35c3c     C1  275   0.632   2.292   2.334 -0.6503  0.4335  0.2992
   35c3c     H1  276   0.666   2.328   2.051 -0.9389 -0.6051 -1.5839
   35c3c     H1  277   0.512   2.275   2.101 -0.3133 -0.4282 -1.0892
   35c3c     H1  278   0.680   2.005   2.303  1.2689  3.2139  1.5078
   35c3c     H1  279   0.512   2.061   2.270  1.7073  1.4902  3.7163
   35c3c     HC  280   0.711   2.117   1.936 -0.0925  0.6201 -0.3030
   35c3c     HC  281   0.533   2.142   1.924 -1.5940 -2.0348  1.9072
   35c3c     HC  282   0.674   1.940   2.051 -0.2523 -0.8126  0.1566
   35c3c     HC  283   0.500   1.957   2.076  0.8826 -2.2556  1.5490
   35c3c     H1  284   0.849   2.299   2.219  1.8035 -0.8725 -1.9692
   35c3c     H1  285   0.862   2.149   2.296 -1.8747  1.2553  1.4455
   35c3c     H1  286   0.854   2.151   2.121  2.4490 -0.3319  1.0069
   35c3c     H1  287   0.696   2.267   2.419 -0.2078 -2.1988 -0.7620
   35c3c     H1  288   0.657   2.392   2.301  0.8118  0.9534  2.8615
   35c3c     C2  289   0.485   2.283   2.380 -0.7149  0.0950 -0.3202
   35c3c     HC  290   0.475   2.196   2.445  0.7551  0.4836  0.4489
   35c3c     HC  291   0.410   2.281   2.301 -0.6530 -0.5971 -0.3653
   35c3c     CT  292   0.444   2.396   2.470 -0.3491 -0.8229 -0.0342
   35c3c     HC  293   0.340   2.393   2.504 -0.3329 -0.0616  0.0777
   35c3c     HC  294   0.476   2.491   2.429  1.4234 -1.0016  0.8888
   35c3c     HC  295   0.500   2.400   2.564 -1.3955 -0.0974  0.5721
   36c3c     N4  296   1.996   2.300   1.650  0.7098 -0.4861  0.4633
   36c3c     C1  297   2.003   2.245   1.514 -0.2390 -0.0380  0.2751
   36c3c     C1  298   1.859   2.285   1.686  0.2672  0.9226 -0.4849
   36c3c     C2  299   1.891   2.137   1.500  0.3902  0.3766 -0.2105
   36c3c     C2  300   1.811   2.149   1.630 -1.0296 -0.8267  0.1649
   36c3c     C1  301   2.089   2.222   1.735 -0.1569 -0.3215 -0.4537
   36c3c     C1  302   2.038   2.439   1.658  0.3074 -0.3807 -0.1046
   36c3c     H1  303   2.104   2.213   1.489 -0.1742 -1.7782  2.6621
   36c3c     H1  304   1.971   2.315   1.437  2.2596 -1.2223 -1.9229
   36c3c     H1  305   1.843   2.297   1.793 -2.2783  0.3008 -0.7632
   36c3c     H1  306   1.792   2.358   1.639 -0.6338 -1.2821 -2.6869
   36c3c     HC  307   1.930   2.035   1.504  0.6463  0.4652 -0.3955
   36c3c     HC  308   1.827   2.149   1.413 -1.6396 -0.6911  1.1122
   36c3c     HC  309   1.818   2.067   1.702  1.2289 -0.2103  0.7187
   36c3c     HC  310   1.704   2.158   1.611 -0.6359  0.9200 -1.3817
   36c3c     H1  311   2.190   2.215   1.695 -0.5049 -3.1215 -0.9024
   36c3c     H1  312   2.097   2.259   1.838 -2.5048  1.1975 -0.7731
   36c3c     H1  313   2.053   2.121   1.751 -3.6939  1.0975  1.2519
   36c3c     H1  314   2.051   2.467   1.762 -2.1466 -0.2670  0.1948
   36c3c     H1  315   2.141   2.444   1.623 -0.2853 -1.0670 -2.0397
   36c3c     C2  316   1.951   2.550   1.586  0.0896  0.2837  0.3186
   36c3c     HC  317   1.854   2.559   1.636 -0.5034  0.9616 -0.9153
   36c3c     HC  318   1.930   2.523   1.483 -4.2309 -0.7852  1.3646
   36c3c     CT  319   1.989   2.696   1.604  0.1516  0.2370  0.0425
   36c3c     HC  320   2.063   2.724   1.529 -1.3664  3.4316 -0.3292
   36c3c     HC  321   2.031   2.711   1.704 -1.0303 -0.4710  0.6490
   36c3c     HC  322   1.910   2.768   1.585 -1.3684 -1.8714 -1.8801
   37c3c     N4  323   1.724   2.443   0.892 -0.3783  0.3860 -0.9509
   37c3c     C1  324   1.737   2.415   0.748  0.2817  0.2214  0.1131
   37c3c     C1  325   1.836   2.538   0.921  0.1716  0.1410  0.0848
   37c3c     C2  326   1.779   2.549   0.685  0.0220  0.6480 -0.5535
   37c3c     C2  327   1.828   2.639   0.804  0.3225  0.7692  0.5572
   37c3c     C1  328   1.597   2.509   0.926 -0.2417 -0.7224 -0.3749
   37c3c     C1  329   1.731   2.317   0.977 -0.5040 -0.1955  0.2797
   37c3c     H1  330   1.644   2.378   0.704  0.5996 -0.1975 -0.2124
   37c3c     H1  331   1.818   2.344   0.733  1.9361  2.0551  0.2148
   37c3c     H1  332   1.835   2.590   1.016  1.3670 -1.0101  0.7466
   37c3c     H1  333   1.934   2.490   0.915  0.1989  0.4019 -1.9539
   37c3c     HC  334   1.690   2.589   0.637 -0.0991  0.4118 -0.5246
   37c3c     HC  335   1.857   2.540   0.609  1.4361 -3.5620  1.2971
   37c3c     HC  336   1.765   2.724   0.830 -1.3363 -0.5564  0.9453
   37c3c     HC  337   1.927   2.678   0.780  0.1305  0.1047 -1.4701
   37c3c     H1  338   1.510   2.444   0.925 -1.2960  0.5342  3.0089
   37c3c     H1  339   1.610   2.550   1.026 -0.1756 -0.1569 -0.6121
   37c3c     H1  340   1.569   2.600   0.873  0.1437 -0.8370 -0.7826
   37c3c     H1  341   1.705   2.350   1.077 -0.9468  1.1118 -0.2676
   37c3c     H1  342   1.654   2.248   0.944 -0.9541  1.2027 -1.6925
   37c3c     C2  343   1.857   2.237   0.969  0.6773  0.2181 -0.1824
   37c3c     HC  344   1.944   2.286   1.014 -0.4274  0.8027  1.3287
   37c3c     HC  345   1.886   2.216   0.866  1.3717  2.2204 -0.4173
   37c3c     CT  346   1.853   2.094   1.024  0.2764  0.2462  0.3283
   37c3c     HC  347   1.946   2.037   1.030  0.1048 -0.5249 -3.3270
   37c3c     HC  348   1.776   2.033   0.975 -0.9646  1.9208  0.1397
   37c3c     HC  349   1.807   2.101   1.123  1.1565  1.8996  0.6380
   38c3c     N4  350   2.335   2.172   0.644  0.1679 -0.2054 -0.4863
   38c3c     C1  351   2.361   2.313   0.639 -0.7063  0.2786 -0.1410
   38c3c     C1  352   2.190   2.166   0.673  0.0263 -0.8206 -0.4471
   38c3c     C2  353   2.246   2.387   0.569  0.6795  0.0315  0.3134
   38c3c     C2  354   2.136   2.292   0.601 -0.1770 -0.7364 -0.0453
   38c3c     C1  355   2.364   2.109   0.510  0.1912  0.8190 -0.1962
   38c3c     C1  356   2.421   2.102   0.744 -0.0128  0.4093 -0.7531
   38c3c     H1  357   2.457   2.343   0.598  0.0062  0.3214  1.5328
   38c3c     H1  358   2.363   2.348   0.742 -1.5607  1.1127 -0.3961
   38c3c     H1  359   2.141   2.075   0.636  1.9789 -1.1134 -2.3923
   38c3c     H1  360   2.177   2.162   0.781  1.3910 -3.0388 -0.3410
   38c3c     HC  361   2.261   2.390   0.462 -0.2847  0.4891  0.1878
   38c3c     HC  362   2.237   2.488   0.607 -1.3997 -0.8059  2.1671
   38c3c     HC  363   2.095   2.268   0.503  1.6148  0.1018 -1.0353
   38c3c     HC  364   2.077   2.357   0.666  2.1128  2.3433 -0.8922
   38c3c     H1  365   2.471   2.099   0.495  0.2906  0.3399  0.8044
   38c3c     H1  366   2.328   2.007   0.512  1.4037  0.3654 -0.8691
   38c3c     H1  367   2.307   2.155   0.429 -1.2389 -1.0154 -0.2652
   38c3c     H1  368   2.392   1.997   0.751 -0.1701  0.5366  0.6843
   38c3c     H1  369   2.522   2.110   0.703  0.7588  0.8070  1.1645
   38c3c     C2  370   2.423   2.150   0.896  0.7836 -1.0944  0.4237
   38c3c     HC  371   2.328   2.148   0.949  1.6353  0.5091  2.0814
   38c3c     HC  372   2.441   2.257   0.898 -3.1500 -0.3454 -0.1306
   38c3c     CT  373   2.526   2.085   0.980 -0.0298  0.6025 -0.3735
   38c3c     HC  374   2.506   2.113   1.084 -0.1870  2.0566 -0.7825
   38c3c     HC  375   2.630   2.106   0.956 -0.2426  2.2605  0.0381
   38c3c     HC  376   2.509   1.978   0.977 -2.0861  0.8064  1.8327
   39c3c     N4  377   1.044   2.828   2.457 -0.0429  0.2330 -0.2010
   39c3c     C1  378   1.090   2.958   2.414  0.3094 -0.0337  0.2303
   39c3c     C1  379   0.957   2.777   2.352 -0.3995 -0.0218  0.1497
   39c3c     C2  380   1.107   2.943   2.269  0.1739 -0.4477 -0.3139
   39c3c     C2  381   1.019   2.831   2.222  0.3070 -0.5892 -0.2209
   39c3c     C1  382   1.163   2.738   2.454  0.1236 -0.7009  0.1815
   39c3c     C1  383   0.983   2.815   2.592 -0.0818  0.0434  0.3402
   39c3c     H1  384   1.174   3.004   2.466  1.4492  1.3697 -2.7283
   39c3c     H1  385   1.002   3.020   2.430 -0.0819 -0.1571 -1.3360
   39c3c     H1  386   0.955   2.669   2.342  1.6632 -0.4074  3.0343
   39c3c     H1  387   0.861   2.828   2.363  0.0238  0.3574  2.3500
   39c3c     HC  388   1.210   2.927   2.236 -0.3198  1.6701 -3.0985
   39c3c     HC  389   1.077   3.036   2.221  1.3394  0.4247  0.6219
   39c3c     HC  390   1.066   2.755   2.160 -1.3862 -2.9036  1.2616
   39c3c     HC  391   0.939   2.870   2.158 -0.0520  1.2549  1.2915
   39c3c     H1  392   1.246   2.771   2.517  0.4544  0.1431 -0.6961
   39c3c     H1  393   1.140   2.637   2.490  0.1868 -1.3459 -1.5412
   39c3c     H1  394   1.215   2.727   2.359  1.3637 -0.7388  0.8415
   39c3c     H1  395   0.964   2.708   2.603  0.3827 -0.0877 -0.1302
   39c3c     H1  396   1.053   2.849   2.667 -1.4279  0.6809  1.3310
   39c3c     C2  397   0.848   2.899   2.618  0.0247  0.5492  0.4293
   39c3c     HC  398   0.773   2.857   2.551  1.5268  1.2076 -1.7214
   39c3c     HC  399   0.853   3.003   2.584  1.0748  0.0799 -0.8907
   39c3c     CT  400   0.804   2.920   2.766  0.3922 -0.2255  0.1504
   39c3c     HC  401   0.810   2.826   2.822 -1.9282 -2.1528 -2.7146
   39c3c     HC  402   0.703   2.961   2.773  0.5739  0.1523  0.6121
   39c3c     HC  403   0.874   2.994   2.803 -1.1077  0.3731  1.8819
   40c3c     N4  404   0.967   2.995   1.336 -0.2051  0.9615 -0.0770
   40c3c     C1  405   0.874   2.973   1.449  0.1210  0.5599 -0.4099
   40c3c     C1  406   1.074   2.903   1.369 -0.3496  0.2815  0.0554
   40c3c     C2  407   0.878   2.820   1.485 -0.6595 -0.6078 -0.4405
   40c3c     C2  408   1.012   2.771   1.429 -0.4304  0.3614 -0.3199
   40c3c     C1  409   0.901   2.960   1.215 -0.6982  0.6344 -0.4364
   40c3c     C1  410   1.013   3.137   1.321 -0.3796 -0.3365 -0.7818
   40c3c     H1  411   0.775   3.017   1.435 -0.7389 -1.0688  0.5250
   40c3c     H1  412   0.925   3.025   1.531 -0.6294 -1.6354  1.4884
   40c3c     H1  413   1.137   2.884   1.282  0.2213 -0.6576  0.6666
   40c3c     H1  414   1.147   2.942   1.440 -1.2501  2.0278  0.0440
   40c3c     HC  415   0.804   2.761   1.433 -1.9903 -0.4983  1.3008
   40c3c     HC  416   0.869   2.806   1.593 -0.5768 -1.4768 -0.5461
   40c3c     HC  417   1.002   2.700   1.347 -0.8968 -0.5250  0.4971
   40c3c     HC  418   1.071   2.727   1.509 -1.5782  1.3081  1.0758
   40c3c     H1  419   0.826   3.030   1.179  0.8231  0.5250 -4.0777
   40c3c     H1  420   0.977   2.959   1.136 -0.6521  2.2152 -0.4230
   40c3c     H1  421   0.852   2.863   1.219 -1.2663  0.8252 -2.2731
   40c3c     H1  422   1.080   3.131   1.236  0.4394 -0.6989 -0.1216
   40c3c     H1  423   0.924   3.198   1.305 -1.9697 -2.4799 -0.3993
   40c3c     C2  424   1.081   3.200   1.443 -0.1260 -0.1014  0.6788
   40c3c     HC  425   1.142   3.133   1.503 -1.1400 -2.3916 -0.7576
   40c3c     HC  426   0.996   3.232   1.503  0.5974  0.0130  1.6548
   40c3c     CT  427   1.151   3.331   1.401  0.1070  0.1738  0.3381
   40c3c     HC  428   1.074   3.407   1.384 -1.4078 -1.1640  1.1536
   40c3c     HC  429   1.219   3.321   1.316 -0.8105  0.1496 -0.4033
   40c3c     HC  430   1.201   3.379   1.486 -0.2611  1.0648  0.0545
   41c3c     N4  431   1.200   2.497   1.756  0.6409 -0.8147 -0.2375
   41c3c     C1  432   1.290   2.598   1.692  0.3455  0.4274 -0.0208
   41c3c     C1  433   1.225   2.518   1.894  0.6673  0.0110 -0.1948
   41c3c     C2  434   1.267   2.730   1.773 -0.0311  0.5193 -0.5603
   41c3c     C2  435   1.233   2.674   1.909  0.3057  0.4048  0.4753
   41c3c     C1  436   1.058   2.527   1.715  0.1558 -0.0948  0.4642
   41c3c     C1  437   1.237   2.356   1.713  0.0074 -0.1434 -0.3047
   41c3c     H1  438   1.250   2.615   1.592 -0.9798  0.8148  0.5687
   41c3c     H1  439   1.395   2.571   1.686 -0.2508 -1.7914 -0.8283
   41c3c     H1  440   1.152   2.472   1.962 -0.2607  1.7078 -0.0043
   41c3c     H1  441   1.316   2.473   1.932 -0.9530 -2.0621  1.4162
   41c3c     HC  442   1.179   2.787   1.742  1.5406  2.9259 -0.7707
   41c3c     HC  443   1.359   2.788   1.779  0.7613 -0.4466 -2.6510
   41c3c     HC  444   1.139   2.715   1.946 -0.1039 -0.5083  0.4730
   41c3c     HC  445   1.305   2.681   1.990  0.0963  1.7578  0.5451
   41c3c     H1  446   1.043   2.513   1.608 -0.9108 -2.2461  0.8731
   41c3c     H1  447   0.983   2.468   1.769 -0.4930 -0.5426 -0.8950
   41c3c     H1  448   1.017   2.623   1.745 -1.0043 -1.3796  3.2006
   41c3c     H1  449   1.168   2.283   1.753  0.3930 -1.3104 -1.7078
   41c3c     H1  450   1.221   2.357   1.605 -0.6862 -0.6174 -0.2047
   41c3c     C2  451   1.379   2.305   1.741 -0.3560  0.2216  0.0311
   41c3c     HC  452   1.387   2.297   1.849 -3.7838 -0.8064  0.2499
   41c3c     HC  453   1.454   2.366   1.691  2.1681 -2.4288  0.4055
   41c3c     CT  454   1.391   2.164   1.675 -0.1609  0.0277  0.4493
   41c3c     HC  455   1.478   2.122   1.726  0.9463  0.3010 -1.1977
   41c3c     HC  456   1.409   2.166   1.568 -2.2842 -0.8300  0.0313
   41c3c     HC  457   1.310   2.095   1.701  1.6780 -1.9614  1.0986
   42c3c     N4  458   1.428   2.095   5.011 -0.0115 -0.1118 -0.3155
   42c3c     C1  459   1.307   2.118   5.100  0.1502  0.1173 -0.2014
   42c3c     C1  460   1.405   2.182   4.891 -0.3745  0.6505 -0.4366
   42c3c     C2  461   1.282   2.269   5.088  0.4091 -0.0907  0.1811
   42c3c     C2  462   1.336   2.299   4.950  0.0376  0.1307  1.0286
   42c3c     C1  463   1.550   2.146   5.080 -0.2902  0.5205  0.2669
   42c3c     C1  464   1.458   1.952   4.982 -0.3599  0.3900  0.4540
   42c3c     H1  465   1.338   2.096   5.202 -0.0440 -1.8127 -0.5385
   42c3c     H1  466   1.228   2.053   5.063 -0.8216  0.2839  1.5506
   42c3c     H1  467   1.496   2.210   4.838  1.2220 -1.9801  0.8136
   42c3c     H1  468   1.345   2.123   4.822 -0.4692  0.8190 -0.4999
   42c3c     HC  469   1.334   2.329   5.163  0.2675 -0.1585  0.3342
   42c3c     HC  470   1.175   2.281   5.101  0.1034 -2.9274  0.7025
   42c3c     HC  471   1.399   2.385   4.968 -0.2988  1.2523 -2.6366
   42c3c     HC  472   1.253   2.328   4.885 -0.7806  0.3386  2.1423
   42c3c     H1  473   1.578   2.080   5.162 -2.8113 -0.8721  0.0543
   42c3c     H1  474   1.641   2.142   5.020 -0.1644 -2.0796  0.5800
   42c3c     H1  475   1.546   2.247   5.122  0.7864  1.6659 -2.2552
   42c3c     H1  476   1.547   1.957   4.919 -0.8466  0.3072 -0.2462
   42c3c     H1  477   1.491   1.884   5.060  0.1353  0.1660  0.0509
   42c3c     C2  478   1.350   1.867   4.903 -0.0727 -0.6193  1.1399
   42c3c     HC  479   1.346   1.914   4.805  0.8031  2.2254  2.4009
   42c3c     HC  480   1.250   1.868   4.945 -1.0312 -1.0289 -1.0661
   42c3c     CT  481   1.385   1.722   4.880 -0.0241 -0.5079 -0.1846
   42c3c     HC  482   1.290   1.672   4.860 -0.5805  0.3180  0.3345
   42c3c     HC  483   1.416   1.677   4.975 -2.4784 -0.7335  0.5494
   42c3c     HC  484   1.465   1.702   4.809  0.0273  0.4102 -0.3918
   43c3c     N4  485   1.436   1.978   2.476  0.9184 -0.0173  0.1445
   43c3c     C1  486   1.322   1.907   2.547 -0.1000 -0.5476  0.2184
   43c3c     C1  487   1.480   1.879   2.382 -0.2500  0.1235  0.0662
   43c3c     C2  488   1.241   1.836   2.439  0.2265  0.2632  0.3827
   43c3c     C2  489   1.358   1.799   2.347  0.1493 -0.1792 -0.4719
   43c3c     C1  490   1.388   2.098   2.413 -0.5399  0.0129 -0.4079
   43c3c     C1  491   1.540   2.030   2.566  0.3758  0.3389  0.5403
   43c3c     H1  492   1.256   1.974   2.601 -0.7821 -1.8955  1.0814
   43c3c     H1  493   1.354   1.824   2.610 -0.1086  0.2354  1.2638
   43c3c     H1  494   1.526   1.911   2.289 -0.7023  1.4158  0.2829
   43c3c     H1  495   1.555   1.810   2.421 -0.4229 -0.3568 -0.4416
   43c3c     HC  496   1.169   1.902   2.393  0.9571  0.7286 -0.1034
   43c3c     HC  497   1.183   1.754   2.481  1.3777 -1.1081 -0.6242
   43c3c     HC  498   1.324   1.816   2.245  1.0825  0.5433 -0.6719
   43c3c     HC  499   1.380   1.692   2.357 -0.2296 -0.0969  1.4236
   43c3c     H1  500   1.323   2.155   2.480 -0.8160  0.3947 -0.9956
   43c3c     H1  501   1.470   2.165   2.390  0.7898  0.3150  4.6139
   43c3c     H1  502   1.326   2.074   2.327  1.0515  1.0418 -1.8544
   43c3c     H1  503   1.624   2.069   2.508 -2.4205  0.3345 -3.6822
   43c3c     H1  504   1.503   2.111   2.629 -0.0502 -1.0294  2.0665
   43c3c     C2  505   1.607   1.931   2.667  0.0396  0.0555  0.1563
   43c3c     HC  506   1.662   1.856   2.610 -0.2311 -0.5575  0.6919
   43c3c     HC  507   1.533   1.873   2.722 -1.4379  0.3346 -1.5033
   43c3c     CT  508   1.710   2.009   2.752  0.1220  0.1795  0.2233
   43c3c     HC  509   1.759   1.942   2.824  0.5080 -0.3469 -0.5230
   43c3c     HC  510   1.664   2.094   2.802 -2.5274 -0.7800 -0.4973
   43c3c     HC  511   1.786   2.044   2.683 -1.5819  0.2913 -1.6246
   44c3c     N4  512   0.489   3.020   1.796 -0.1317  0.5860 -0.5572
   44c3c     C1  513   0.455   3.151   1.858  0.1067 -0.0386 -0.4446
   44c3c     C1  514   0.404   3.010   1.679  0.3185 -0.9573  0.1433
   44c3c     C2  515   0.432   3.242   1.735 -0.2365 -1.1177 -0.2772
   44c3c     C2  516   0.385   3.156   1.621 -0.2434 -0.2581  0.3438
   44c3c     C1  517   0.633   3.012   1.751  0.2830 -0.2756 -0.3339
   44c3c     C1  518   0.476   2.902   1.883 -0.2627  0.0518  0.0313
   44c3c     H1  519   0.530   3.186   1.928  1.4842 -0.8455 -1.4944
   44c3c     H1  520   0.364   3.143   1.918  0.1219  1.2975 -0.2372
   44c3c     H1  521   0.439   2.943   1.600  2.9184  2.4655 -1.7257
   44c3c     H1  522   0.302   2.977   1.700 -0.2126 -0.3236 -1.2943
   44c3c     HC  523   0.531   3.273   1.704  0.1360 -0.5805  1.4008
   44c3c     HC  524   0.374   3.332   1.756  1.6129 -0.2111  1.0578
   44c3c     HC  525   0.454   3.166   1.538 -1.7423 -0.1715 -0.9043
   44c3c     HC  526   0.279   3.176   1.607  0.3849  3.4326  0.4609
   44c3c     H1  527   0.701   3.028   1.835  0.7049  1.5675 -1.0166
   44c3c     H1  528   0.661   2.911   1.720  0.0240 -0.7930  1.0636
   44c3c     H1  529   0.657   3.085   1.674 -3.2382  0.7545 -0.5517
   44c3c     H1  530   0.498   2.810   1.827 -1.1773 -1.1530  1.6054
   44c3c     H1  531   0.544   2.911   1.968  1.1163 -0.0649 -1.0294
   44c3c     C2  532   0.336   2.867   1.941  0.0744 -0.5356 -0.2915
   44c3c     HC  533   0.255   2.867   1.868 -0.0626 -0.8688 -0.1372
   44c3c     HC  534   0.302   2.944   2.011  2.2053  1.2858 -1.1785
   44c3c     CT  535   0.344   2.733   2.013 -0.0901  0.1129  0.3260
   44c3c     HC  536   0.418   2.728   2.093  1.7393  1.0773 -1.2509
   44c3c     HC  537   0.367   2.663   1.933  0.2514 -1.1841  1.5477
   44c3c     HC  538   0.247   2.708   2.055  0.2069 -0.4335  0.6864
   45c3c     N4  539   1.388   1.446   0.792  0.4782 -0.2599  0.4590
   45c3c     C1  540   1.374   1.333   0.697  0.2797 -0.0209 -0.0940
   45c3c     C1  541   1.464   1.380   0.901  0.1247 -0.0613 -0.3411
   45c3c     C2  542   1.504   1.250   0.697  0.2611  0.3541 -0.1836
   45c3c     C2  543   1.568   1.286   0.838  0.2088  0.0358  0.0449
   45c3c     C1  544   1.476   1.550   0.728 -0.2794 -0.4047 -0.4324
   45c3c     C1  545   1.264   1.510   0.837 -0.6522  0.6396  0.3090
   45c3c     H1  546   1.345   1.352   0.593 -3.7557  0.8706  1.1055
   45c3c     H1  547   1.302   1.268   0.746  1.5587 -0.2981  1.4429
   45c3c     H1  548   1.516   1.457   0.958 -1.6524  2.0979 -1.5552
   45c3c     H1  549   1.405   1.311   0.961 -0.4244  0.4374 -0.3004
   45c3c     HC  550   1.566   1.278   0.611  1.5730  0.4208  0.7676
   45c3c     HC  551   1.480   1.145   0.684 -0.9595  0.0154  4.1030
   45c3c     HC  552   1.655   1.350   0.817 -0.1018 -0.0393 -1.5812
   45c3c     HC  553   1.601   1.205   0.902  1.0282  0.7058  0.4908
   45c3c     H1  554   1.424   1.604   0.648  0.3221  1.3770  0.3503
   45c3c     H1  555   1.500   1.626   0.802  1.5574 -1.2106 -0.1700
   45c3c     H1  556   1.570   1.515   0.684 -0.7720  0.7358 -2.4921
   45c3c     H1  557   1.301   1.576   0.916  0.9249  0.6542 -0.4230
   45c3c     H1  558   1.225   1.569   0.754  0.8980  2.4722  0.8469
   45c3c     C2  559   1.151   1.426   0.909  0.0365  0.2674 -0.0199
   45c3c     HC  560   1.184   1.371   0.997 -2.0861 -0.8526  0.1050
   45c3c     HC  561   1.106   1.356   0.837 -1.2787  0.3249  0.7282
   45c3c     CT  562   1.031   1.513   0.958  0.3296 -0.0492 -0.2295
   45c3c     HC  563   1.060   1.559   1.052  3.3811 -0.1271 -1.0713
   45c3c     HC  564   0.942   1.453   0.973 -1.6912  3.4669  2.7204
   45c3c     HC  565   1.010   1.594   0.887 -1.8636  0.1568  0.6096
   46c3c     N4  566   0.218   1.843   0.937 -0.0406 -0.0098  0.1138
   46c3c     C1  567   0.348   1.861   1.002  0.1146  0.4264 -1.1125
   46c3c     C1  568   0.153   1.744   1.027  0.0658  0.1742 -0.2169
   46c3c     C2  569   0.310   1.880   1.146 -0.4587 -0.0169  0.1614
   46c3c     C2  570   0.179   1.796   1.169  0.5076 -0.7158  0.6691
   46c3c     C1  571   0.132   1.968   0.932  0.1337  0.0215 -0.0189
   46c3c     C1  572   0.228   1.806   0.796 -0.0452 -0.2024 -0.3458
   46c3c     H1  573   0.398   1.946   0.955  1.3412  0.4446  0.2251
   46c3c     H1  574   0.409   1.772   0.988 -2.0692 -1.0691 -1.4017
   46c3c     H1  575   0.053   1.708   1.004  0.9703 -1.9944 -0.9064
   46c3c     H1  576   0.208   1.649   1.021  0.8521  0.5513  0.8000
   46c3c     HC  577   0.306   1.986   1.173  0.0723  0.0675 -0.0943
   46c3c     HC  578   0.384   1.842   1.217 -1.7521  0.6992  1.9413
   46c3c     HC  579   0.099   1.859   1.208  0.5425 -0.6477  0.6279
   46c3c     HC  580   0.209   1.717   1.239  0.8084 -0.3931  0.9057
   46c3c     H1  581   0.180   2.048   0.876 -0.2703  0.8863  0.8458
   46c3c     H1  582   0.040   1.936   0.883  1.0629 -2.8173 -0.0130
   46c3c     H1  583   0.115   2.005   1.034 -1.7879 -0.0819 -0.2760
   46c3c     H1  584   0.137   1.791   0.738  0.4150 -1.4849 -0.7574
   46c3c     H1  585   0.259   1.898   0.745 -2.0660 -0.0740 -1.4092
   46c3c     C2  586   0.323   1.694   0.755  0.2351 -0.0874  0.5349
   46c3c     HC  587   0.325   1.598   0.807 -4.0669 -1.1661 -1.1057
   46c3c     HC  588   0.419   1.744   0.771 -1.6406  3.4032  1.1567
   46c3c     CT  589   0.312   1.674   0.604  0.7443  0.2322 -0.3940
   46c3c     HC  590   0.403   1.635   0.559  0.7323 -1.4139  0.9667
   46c3c     HC  591   0.280   1.766   0.555 -0.9995  0.5223  1.2273
   46c3c     HC  592   0.233   1.604   0.576 -1.4271  2.7508 -0.8172
   47c3c     N4  593   0.014   3.066   1.134  0.8271  0.3273 -0.2225
   47c3c     C1  594   0.110   2.986   1.210 -0.2432  0.5331 -0.5609
   47c3c     C1  595  -0.054   3.152   1.238 -0.0646  0.9551  0.3850
   47c3c     C2  596   0.158   3.075   1.331  0.0093  0.4789  0.1203
   47c3c     C2  597   0.056   3.188   1.338 -0.6481  0.2697 -0.2288
   47c3c     C1  598   0.082   3.156   1.040 -0.5345 -0.7218  0.1892
   47c3c     C1  599  -0.091   2.990   1.056  0.2733  1.0717  0.0920
   47c3c     H1  600   0.196   2.954   1.152 -1.9085  0.6356 -3.1605
   47c3c     H1  601   0.073   2.890   1.244  0.7178  0.8181  1.3497
   47c3c     H1  602  -0.098   3.236   1.185 -0.4114 -0.0448 -0.9412
   47c3c     H1  603  -0.124   3.090   1.293 -1.9051  2.2643 -0.4417
   47c3c     HC  604   0.254   3.125   1.318  0.2888  0.0347  0.4433
   47c3c     HC  605   0.162   3.023   1.427  0.4550  1.1415  0.4695
   47c3c     HC  606   0.109   3.282   1.328 -0.2523  0.2990  1.8866
   47c3c     HC  607   0.005   3.183   1.435  0.4418  0.3176  0.3464
   47c3c     H1  608   0.125   3.096   0.960  0.8842 -1.0765  1.2001
   47c3c     H1  609   0.021   3.225   0.981  0.5702 -0.4871 -0.6888
   47c3c     H1  610   0.166   3.201   1.094 -0.1991 -0.1734 -0.7653
   47c3c     H1  611  -0.147   3.052   0.987 -1.3575 -0.1354  0.2772
   47c3c     H1  612  -0.039   2.920   0.990  0.5777  0.5403  0.8787
   47c3c     C2  613  -0.196   2.899   1.132  0.6591 -0.4438  0.7019
   47c3c     HC  614  -0.264   2.959   1.192 -0.5913 -2.1378  1.0127
   47c3c     HC  615  -0.146   2.846   1.212 -0.7604 -1.2819  1.0369
   47c3c     CT  616  -0.272   2.819   1.032 -0.9761  0.3472  0.3660
   47c3c     HC  617  -0.319   2.886   0.960  0.0816  1.1295  0.3970
   47c3c     HC  618  -0.346   2.749   1.071  0.4542 -1.6330 -0.4228
   47c3c     HC  619  -0.202   2.761   0.972 -0.4374  2.1558 -0.8085
   48c3c     N4  620   1.294   3.133   0.056  0.0581  0.7604  0.0638
   48c3c     C1  621   1.315   3.195   0.187  0.3292 -0.5480  0.3983
   48c3c     C1  622   1.389   3.024   0.060 -0.3207 -0.0051  0.0889
   48c3c     C2  623   1.351   3.082   0.284  0.3051  0.0805 -0.6548
   48c3c     C2  624   1.395   2.961   0.199  0.6564  0.3442 -0.7274
   48c3c     C1  625   1.157   3.081   0.069  0.2252  0.5707 -0.2352
   48c3c     C1  626   1.307   3.210  -0.066  0.1317  0.2642 -0.4253
   48c3c     H1  627   1.231   3.254   0.223  0.5248  0.9847 -1.5292
   48c3c     H1  628   1.400   3.263   0.178 -1.4855  1.4437 -2.6010
   48c3c     H1  629   1.360   2.955  -0.020 -0.4096  0.8730 -0.6359
   48c3c     H1  630   1.488   3.064   0.036 -0.2904 -0.5115 -0.6486
   48c3c     HC  631   1.274   3.057   0.357  1.7675  0.0714  0.9282
   48c3c     HC  632   1.438   3.113   0.342 -0.2843 -1.7015  1.2581
   48c3c     HC  633   1.329   2.876   0.217  0.9475  0.3986  0.6269
   48c3c     HC  634   1.495   2.933   0.232  0.7724  1.7441  0.1673
   48c3c     H1  635   1.081   3.159   0.070  0.2082  0.5380  1.2148
   48c3c     H1  636   1.135   3.017  -0.017  0.0713 -2.0242  1.6476
   48c3c     H1  637   1.128   3.020   0.155  1.3317  1.2645  0.6360
   48c3c     H1  638   1.414   3.224  -0.085  0.1673  1.0402  0.2961
   48c3c     H1  639   1.271   3.158  -0.154 -0.7466 -1.5117  0.9657
   48c3c     C2  640   1.235   3.340  -0.063  0.5875 -0.8611  0.0065
   48c3c     HC  641   1.246   3.395   0.030 -0.9917 -0.0004 -0.2995
   48c3c     HC  642   1.128   3.322  -0.058  0.4436 -0.2613 -0.8483
   48c3c     CT  643   1.244   3.428  -0.186 -0.8234  0.3444 -0.1287
   48c3c     HC  644   1.349   3.450  -0.208 -0.7442 -1.9521 -2.3362
   48c3c     HC  645   1.188   3.520  -0.169 -1.9372 -0.6659  1.7904
   48c3c     HC  646   1.215   3.368  -0.272  2.3395 -0.2622 -0.8571
   49c3c     N4  647   1.705   3.034   1.562 -0.2845  0.0114 -0.2753
   49c3c     C1  648   1.628   3.154   1.540 -0.7981  0.0390 -0.2880
   49c3c     C1  649   1.598   2.933   1.551 -0.8342 -0.4961  0.7026
   49c3c     C2  650   1.542   3.118   1.414  0.0535  0.2709  0.4537
   49c3c     C2  651   1.518   2.968   1.418 -0.1590  0.4836 -0.5543
   49c3c     C1  652   1.805   3.014   1.455 -0.5469 -0.2674  0.1859
   49c3c     C1  653   1.778   3.026   1.694  0.3709  0.1958 -0.1320
   49c3c     H1  654   1.687   3.245   1.530  0.1028 -0.6433 -1.3655
   49c3c     H1  655   1.559   3.176   1.622  0.8732  0.6728  0.9661
   49c3c     H1  656   1.637   2.833   1.531 -1.0420 -0.4536  0.0826
   49c3c     H1  657   1.534   2.930   1.640 -0.4506 -0.3717  0.9842
   49c3c     HC  658   1.586   3.131   1.316 -3.2389  0.0125 -1.1413
   49c3c     HC  659   1.448   3.174   1.410 -0.1864 -0.1052  0.7471
   49c3c     HC  660   1.569   2.914   1.338  1.9484  0.4678  0.7562
   49c3c     HC  661   1.418   2.926   1.412 -0.1540  0.7038 -2.4434
   49c3c     H1  662   1.868   2.927   1.474  0.9266  1.1059  1.7139
   49c3c     H1  663   1.767   3.013   1.352  0.2371  0.9671 -0.1317
   49c3c     H1  664   1.874   3.098   1.450 -1.8913  0.7397 -2.5903
   49c3c     H1  665   1.835   2.934   1.697  0.4578  0.1623 -2.0174
   49c3c     H1  666   1.858   3.101   1.695 -0.6166  1.3024 -1.8954
   49c3c     C2  667   1.698   3.032   1.837 -0.3846 -0.1204  0.2496
   49c3c     HC  668   1.631   2.945   1.836  1.1881 -1.3473 -1.4029
   49c3c     HC  669   1.630   3.116   1.849  0.9433  0.8304  1.2109
   49c3c     CT  670   1.795   3.021   1.956  0.5320  0.2089  0.3364
   49c3c     HC  671   1.744   2.984   2.045  0.2605 -0.1464  0.0348
   49c3c     HC  672   1.841   3.118   1.978 -1.4292  0.8188  1.9129
   49c3c     HC  673   1.877   2.952   1.937  1.1754  1.0229  0.1090
   50c3c     N4  674   1.649   2.241   4.395 -0.4615  0.0451 -0.1962
   50c3c     C1  675   1.742   2.311   4.299 -0.5188  0.3081  0.0821
   50c3c     C1  676   1.696   2.107   4.384 -0.2756 -0.1290 -0.2436
   50c3c     C2  677   1.880   2.247   4.316 -0.6160 -0.5585  0.1291
   50c3c     C2  678   1.853   2.118   4.384  0.4904  0.2697  0.1592
   50c3c     C1  679   1.672   2.289   4.530 -0.8898 -0.0114  0.5821
   50c3c     C1  680   1.506   2.272   4.361 -0.6974 -0.1059  0.6398
   50c3c     H1  681   1.748   2.419   4.310  2.0768 -0.0495  2.9603
   50c3c     H1  682   1.723   2.278   4.197 -0.2339 -0.7734  0.3704
   50c3c     H1  683   1.650   2.038   4.455 -0.7602  0.3531 -0.0882
   50c3c     H1  684   1.672   2.064   4.286 -1.4320 -0.7305  0.2931
   50c3c     HC  685   1.942   2.311   4.380 -0.6712  1.1704 -1.4877
   50c3c     HC  686   1.931   2.234   4.221 -1.0445  2.2962 -0.5508
   50c3c     HC  687   1.899   2.116   4.483 -2.1427  0.7782  1.4300
   50c3c     HC  688   1.898   2.041   4.320  0.3172  1.0551 -0.9164
   50c3c     H1  689   1.629   2.387   4.550  1.0840  0.7605  1.1575
   50c3c     H1  690   1.628   2.214   4.597  2.5403 -1.6599  1.0705
   50c3c     H1  691   1.775   2.304   4.559  0.0795  0.7106 -2.9856
   50c3c     H1  692   1.439   2.235   4.439  1.7095 -0.9384  2.3635
   50c3c     H1  693   1.487   2.379   4.356  0.1307 -0.0003 -0.1791
   50c3c     C2  694   1.446   2.204   4.238 -0.4908 -0.2510  0.9029
   50c3c     HC  695   1.460   2.096   4.246 -0.3365 -0.2115  1.2022
   50c3c     HC  696   1.502   2.211   4.145  0.9598  1.2426  1.8672
   50c3c     CT  697   1.298   2.231   4.219 -0.2557 -0.1520  0.0547
   50c3c     HC  698   1.253   2.190   4.129 -0.9976 -0.1335  0.4122
   50c3c     HC  699   1.263   2.334   4.223 -0.4135 -0.2324  0.9310
   50c3c     HC  700   1.246   2.168   4.292  0.8181  1.0191  1.8725
   51fsi    FSI  701   1.212   2.521   2.201 -0.0209  0.1630 -0.3893
   51fsi    SBT  702   1.261   2.387   2.273 -0.3369 -0.0481 -0.1197
   51fsi    NBT  703   1.162   2.288   2.204 -0.8345  0.1762 -0.2379
   51fsi    OBT  704   1.403   2.378   2.238  0.6110  0.3679  0.2896
   51fsi    OBT  705   1.230   2.416   2.413 -0.3504  0.8372 -0.1898
   51fsi    SBT  706   1.192   2.167   2.108 -0.0778 -0.1357 -0.3824
   51fsi    OBT  707   1.112   2.051   2.145 -0.2277  0.3825  0.1445
   51fsi    OBT  708   1.330   2.147   2.070 -0.6288  0.5214 -0.0639
   51fsi    FSI  709   1.119   2.210   1.979  0.2205  0.1271 -0.3087
   52fsi    FSI  710   0.536   2.248   0.596  0.0862 -0.1715  0.4857
   52fsi    SBT  711   0.409   2.211   0.686  0.1206  0.1329 -0.0674
   52fsi    NBT  712   0.330   2.115   0.595  0.6436 -0.4468  0.3192
   52fsi    OBT  713   0.466   2.139   0.796  0.2227 -0.5555 -0.8829
   52fsi    OBT  714   0.354   2.340   0.713 -0.0640 -0.0768 -0.6134
   52fsi    SBT  715   0.206   2.133   0.506  0.2076 -0.0918 -0.0195
   52fsi    OBT  716   0.155   2.267   0.507  0.3726 -0.0423 -0.0983
   52fsi    OBT  717   0.115   2.022   0.530  0.4123 -0.0739  0.2348
   52fsi    FSI  718   0.259   2.102   0.356  0.2222 -0.1327  0.2794
   53fsi    FSI  719   1.810   2.292   0.483 -0.0266 -0.4056  0.7736
   53fsi    SBT  720   1.790   2.368   0.349 -0.0434 -0.3781 -0.2462
   53fsi    NBT  721   1.786   2.243   0.245  0.3663 -0.3742 -0.2731
   53fsi    OBT  722   1.670   2.440   0.359  0.1285  0.0905 -0.2257
   53fsi    OBT  723   1.916   2.433   0.335 -0.4924  0.2564 -0.5363
   53fsi    SBT  724   1.909   2.195   0.154  0.4255  0.0333  0.1687
   53fsi    OBT  725   1.992   2.295   0.090 -0.0159 -1.1514  0.3102
   53fsi    OBT  726   1.874   2.086   0.067 -0.6126 -0.4236  0.1332
   53fsi    FSI  727   2.011   2.131   0.256  0.0945  0.0416 -0.2160
   54fsi    FSI  728   1.785   2.620   4.840  0.0086  0.5204  0.6502
   54fsi    SBT  729   1.695   2.505   4.907 -0.2824 -0.0967 -0.3741
   54fsi    NBT  730   1.610   2.591   5.001  1.0733  0.4157 -0.3348
   54fsi    OBT  731   1.625   2.455   4.793  0.0367  0.4521  0.2274
   54fsi    OBT  732   1.789   2.414   4.970  0.0640  0.1962 -0.5617
   54fsi    SBT  733   1.614   2.602   5.153 -0.4893  0.5693 -0.1124
   54fsi    OBT  734   1.743   2.585   5.210 -0.2864  0.7574  0.1073
   54fsi    OBT  735   1.507   2.527   5.211  0.3141  0.0712 -0.3044
   54fsi    FSI  736   1.570   2.755   5.171 -0.2815 -0.1586  0.0447
   55fsi    FSI  737   1.897   1.940   4.695 -0.3073  0.2350 -0.0894
   55fsi    SBT  738   1.856   2.015   4.825 -0.2634 -0.2963  0.7281
   55fsi    NBT  739   1.974   2.119   4.844  0.0806 -0.0533  0.0534
   55fsi    OBT  740   1.733   2.080   4.781  0.8109 -0.2167 -0.9440
   55fsi    OBT  741   1.852   1.911   4.918 -0.0937 -0.1485 -0.6248
   55fsi    SBT  742   2.112   2.097   4.919 -0.1798 -0.1426  0.6954
   55fsi    OBT  743   2.112   1.983   5.009 -0.0718  0.0872 -0.4117
   55fsi    OBT  744   2.173   2.216   4.965 -0.2036 -0.8009  0.0783
   55fsi    FSI  745   2.219   2.053   4.806 -0.2874 -0.0259 -0.5418
   56fsi    FSI  746   0.871   2.067   4.785 -0.2758  0.2072 -0.4864
   56fsi    SBT  747   1.006   2.123   4.826  0.1152 -0.0128 -0.0339
   56fsi    NBT  748   1.106   2.046   4.739 -0.3357  0.2203 -0.3071
   56fsi    OBT  749   0.991   2.264   4.804  0.4345  0.2314 -0.5500
   56fsi    OBT  750   1.013   2.082   4.964  0.4840  0.1000  0.4987
   56fsi    SBT  751   1.176   2.087   4.604  0.0096  0.5318 -0.1118
   56fsi    OBT  752   1.259   1.981   4.563 -0.2069 -0.1347 -0.6859
   56fsi    OBT  753   1.234   2.217   4.592  0.3689  0.3421  0.4343
   56fsi    FSI  754   1.060   2.076   4.500  0.4934 -0.1688  0.0606
   57fsi    FSI  755   0.948   3.227   1.761  0.1449  0.4965  0.1409
   57fsi    SBT  756   0.990   3.098   1.850 -0.2060 -0.3127 -0.2677
   57fsi    NBT  757   1.138   3.144   1.901 -0.1180  0.2502  0.2239
   57fsi    OBT  758   0.900   3.105   1.964  0.2016  0.3210 -1.0640
   57fsi    OBT  759   0.987   2.993   1.756  0.4796 -0.2399 -0.6683
   57fsi    SBT  760   1.286   3.121   1.854  0.0172 -0.0532  0.3698
   57fsi    OBT  761   1.381   3.228   1.887  0.4869 -0.2878  0.5371
   57fsi    OBT  762   1.299   3.077   1.716  0.3541 -0.4134 -0.0950
   57fsi    FSI  763   1.339   2.995   1.934  0.3605  0.1442  0.0310
   58fsi    FSI  764   1.674   3.044   1.054  0.6070 -1.1469 -0.1668
   58fsi    SBT  765   1.575   2.929   1.008 -0.0462  0.1643 -0.2331
   58fsi    NBT  766   1.433   2.972   1.061 -0.3193 -0.4136  0.1617
   58fsi    OBT  767   1.593   2.927   0.869 -0.4459  0.2122  0.1682
   58fsi    OBT  768   1.625   2.815   1.081  0.4365  0.2171 -0.2443
   58fsi    SBT  769   1.299   2.988   0.981  0.0710  0.0480 -0.0594
   58fsi    OBT  770   1.207   2.882   1.003  0.0361  0.0353 -0.0120
   58fsi    OBT  771   1.308   3.029   0.840  0.1234 -0.1656 -0.3616
   58fsi    FSI  772   1.234   3.112   1.054  0.8137 -0.0153 -0.3258
   59fsi    FSI  773   1.326   2.187   0.722  0.2424 -0.2535 -0.0437
   59fsi    SBT  774   1.172   2.204   0.722 -0.2981 -0.0935 -0.0352
   59fsi    NBT  775   1.153   2.333   0.647 -0.5398 -0.2999 -0.5256
   59fsi    OBT  776   1.126   2.086   0.658 -0.0530  0.2263 -0.1216
   59fsi    OBT  777   1.138   2.214   0.857  0.1448 -0.0626 -0.0768
   59fsi    SBT  778   1.219   2.468   0.684 -0.0035 -0.1845 -0.4323
   59fsi    OBT  779   1.275   2.480   0.815 -0.2490 -0.8178  0.1522
   59fsi    OBT  780   1.136   2.578   0.643 -0.5753 -0.0177 -0.4626
   59fsi    FSI  781   1.347   2.472   0.592 -0.4019 -0.2560 -0.0365
   60fsi    FSI  782   1.315   1.906   0.844  0.1559 -0.2387  0.1591
   60fsi    SBT  783   1.289   1.874   0.998  0.1626  0.0787 -0.6189
   60fsi    NBT  784   1.287   2.021   1.067 -0.3575  0.2923 -0.0712
   60fsi    OBT  785   1.168   1.800   1.006 -0.0038  0.4181 -0.4890
   60fsi    OBT  786   1.411   1.805   1.034  0.2611  0.2798 -0.3150
   60fsi    SBT  787   1.400   2.119   1.106  0.1827 -0.4410  0.1180
   60fsi    OBT  788   1.370   2.246   1.064  0.3610 -0.8219 -0.0874
   60fsi    OBT  789   1.538   2.070   1.081 -0.1148 -0.1011 -0.1921
   60fsi    FSI  790   1.387   2.132   1.262  0.6339 -0.2198  0.2841
   61fsi    FSI  791   1.697   3.427   0.167 -0.0464 -0.1555  0.0186
   61fsi    SBT  792   1.751   3.308   0.097 -0.1116 -0.0609 -0.1223
   61fsi    NBT  793   1.878   3.358   0.010  0.0040  0.2217 -0.5150
   61fsi    OBT  794   1.797   3.215   0.201  0.0498 -0.4408 -0.1894
   61fsi    OBT  795   1.654   3.259   0.007  0.5023 -0.0220  0.0333
   61fsi    SBT  796   2.036   3.363   0.054  0.5851 -0.1259  0.1363
   61fsi    OBT  797   2.123   3.340  -0.060  0.4172 -0.3365 -0.6427
   61fsi    OBT  798   2.068   3.293   0.177 -1.0690  0.0353  0.3549
   61fsi    FSI  799   2.057   3.524   0.088  0.2918  0.1271  0.3460
   62fsi    FSI  800   0.686   2.709   2.097 -0.0134  0.1379 -0.0341
   62fsi    SBT  801   0.765   2.639   1.973  0.0125  0.2076 -0.0261
   62fsi    NBT  802   0.650   2.551   1.906  0.2961 -0.4635  0.8723
   62fsi    OBT  803   0.807   2.757   1.902  0.2359 -0.2373 -0.2356
   62fsi    OBT  804   0.865   2.553   2.030  0.0875  0.5610 -0.0588
   62fsi    SBT  805   0.629   2.521   1.757  0.1437  0.1642 -0.1384
   62fsi    OBT  806   0.722   2.570   1.667  0.6095 -0.4051  0.1774
   62fsi    OBT  807   0.495   2.544   1.713  0.5544  0.5991  0.0172
   62fsi    FSI  808   0.647   2.366   1.756 -0.2196 -0.3711 -0.1094
   63fsi    FSI  809   1.649   2.066   1.959 -0.1696  0.1628  0.0290
   63fsi    SBT  810   1.732   2.128   2.074  0.3707 -0.2521  0.2518
   63fsi    NBT  811   1.726   2.008   2.182 -0.4085 -0.4236 -0.1492
   63fsi    OBT  812   1.865   2.147   2.024  0.4404 -0.0272  0.3500
   63fsi    OBT  813   1.656   2.249   2.119 -0.1283  0.2376 -0.1610
   63fsi    SBT  814   1.830   1.903   2.233 -0.0871  0.2598  0.2361
   63fsi    OBT  815   1.825   1.899   2.375  0.5767 -0.2857 -0.4577
   63fsi    OBT  816   1.956   1.898   2.178 -0.2902  0.4724  0.2259
   63fsi    FSI  817   1.765   1.765   2.202 -0.1994  0.2394 -0.3224
   64fsi    FSI  818   0.463   3.310   1.259 -0.7139 -0.4863 -0.3674
   64fsi    SBT  819   0.605   3.310   1.197  0.5600 -0.0190  0.0233
   64fsi    NBT  820   0.696   3.302   1.317  0.9807  0.0800  0.1446
   64fsi    OBT  821   0.611   3.196   1.107  0.2993 -0.1204  0.1527
   64fsi    OBT  822   0.614   3.437   1.129  0.6184  0.6028 -0.0720
   64fsi    SBT  823   0.704   3.389   1.446 -0.1515  0.3530 -0.1388
   64fsi    OBT  824   0.731   3.316   1.568  0.8607  0.0884  0.1539
   64fsi    OBT  825   0.600   3.485   1.456 -0.7660  0.4591 -0.1398
   64fsi    FSI  826   0.829   3.485   1.416 -0.9572 -0.0865  0.0697
   65fsi    FSI  827   1.397   2.797   2.919 -0.0511 -0.4627  0.5548
   65fsi    SBT  828   1.262   2.718   2.908 -0.3387  0.0284 -0.5864
   65fsi    NBT  829   1.275   2.626   3.032 -0.2927 -0.0001  0.4184
   65fsi    OBT  830   1.162   2.818   2.931  0.6061 -0.7355 -0.1517
   65fsi    OBT  831   1.262   2.663   2.777 -0.0195 -0.3233 -0.1107
   65fsi    SBT  832   1.301   2.477   3.042 -0.0911  0.3081  0.6406
   65fsi    OBT  833   1.370   2.440   3.161 -0.1052  0.0888  0.1977
   65fsi    OBT  834   1.342   2.413   2.919 -0.1026 -0.3203  0.3820
   65fsi    FSI  835   1.154   2.439   3.062  0.4414  0.1152  1.0117
   66fsi    FSI  836   0.706   2.725   1.087  0.2873 -0.2846  0.4768
   66fsi    SBT  837   0.559   2.774   1.052 -0.0454  0.0449 -0.5386
   66fsi    NBT  838   0.476   2.734   1.180  0.2899  0.0101  0.0910
   66fsi    OBT  839   0.579   2.915   1.035 -0.2972  0.2244 -0.4508
   66fsi    OBT  840   0.524   2.697   0.938 -0.6479  0.3947  0.2684
   66fsi    SBT  841   0.441   2.813   1.307 -0.0254 -0.2870 -0.1429
   66fsi    OBT  842   0.305   2.786   1.347 -0.3787 -0.4333  0.5541
   66fsi    OBT  843   0.478   2.950   1.314  0.0026  0.0927  0.2648
   66fsi    FSI  844   0.536   2.744   1.417 -0.3184  0.3179  0.4365
   67fsi    FSI  845   1.784   2.027   0.622  0.2482 -0.0493  0.0794
   67fsi    SBT  846   1.646   1.962   0.644  0.2487 -0.0706 -0.4310
   67fsi    NBT  847   1.543   2.065   0.578 -0.0343 -0.6908  0.0551
   67fsi    OBT  848   1.655   1.840   0.565 -0.0476  0.1260 -0.3805
   67fsi    OBT  849   1.632   1.958   0.787  0.2262 -0.4673  0.2867
   67fsi    SBT  850   1.471   2.077   0.437 -0.1674 -0.3061 -0.5727
   67fsi    OBT  851   1.523   1.983   0.338 -0.4028  0.4093 -0.4643
   67fsi    OBT  852   1.449   2.213   0.397 -1.4667  0.0271 -0.1637
   67fsi    FSI  853   1.334   2.008   0.448  0.1661  0.0269  0.4575
   68fsi    FSI  854   0.645   1.748   0.488  1.0319 -0.1072  0.3468
   68fsi    SBT  855   0.674   1.895   0.524  0.0041 -0.1056  0.3362
   68fsi    NBT  856   0.639   1.897   0.673 -0.1075 -0.1867 -0.3879
   68fsi    OBT  857   0.811   1.912   0.495  0.1822  0.5720 -0.0521
   68fsi    OBT  858   0.572   1.968   0.447  0.5688  0.2547  0.0675
   68fsi    SBT  859   0.732   1.904   0.803  0.1525 -0.1176  0.0642
   68fsi    OBT  860   0.663   1.952   0.925  0.0599  0.3538  0.3689
   68fsi    OBT  861   0.863   1.957   0.776 -0.5694 -0.0854 -0.3267
   68fsi    FSI  862   0.753   1.747   0.833 -0.4212  0.1689  0.2494
   69fsi    FSI  863   0.243   2.270   1.110  0.3202 -0.1378  0.1221
   69fsi    SBT  864   0.378   2.345   1.094  0.2034 -0.2201  0.1240
   69fsi    NBT  865   0.373   2.413   1.234  0.2001 -0.0239 -0.7085
   69fsi    OBT  866   0.479   2.249   1.079 -0.0585  0.4163 -0.3374
   69fsi    OBT  867   0.361   2.436   0.986  0.1899 -0.0211 -0.2170
   69fsi    SBT  868   0.433   2.363   1.368 -0.4672  0.1256 -0.4040
   69fsi    OBT  869   0.464   2.223   1.373  0.1479  0.7072  0.5476
   69fsi    OBT  870   0.346   2.410   1.469 -0.3450 -0.5246 -0.1479
   69fsi    FSI  871   0.561   2.443   1.391  0.4883 -0.6384  0.3794
   70fsi    FSI  872   0.831   2.474   1.117  0.1957  0.0309  0.0495
   70fsi    SBT  873   0.956   2.453   1.038  0.0581  0.1535  0.2557
   70fsi    NBT  874   0.905   2.367   0.917  0.1965 -0.5309  0.1299
   70fsi    OBT  875   0.996   2.592   1.005  0.1961  0.9264 -0.1811
   70fsi    OBT  876   1.039   2.379   1.126  0.5586 -0.1282  0.3231
   70fsi    SBT  877   0.814   2.406   0.801  0.7306 -0.3705 -0.1354
   70fsi    OBT  878   0.834   2.538   0.744  0.4220  0.4421  0.1511
   70fsi    OBT  879   0.680   2.372   0.835  0.2978  0.5677 -0.5176
   70fsi    FSI  880   0.857   2.302   0.697  0.6116 -0.1811  0.4088
   71fsi    FSI  881   1.597   3.518   0.961 -0.4649  0.2337 -0.4607
   71fsi    SBT  882   1.597   3.368   1.010 -0.0690  0.3687 -0.1376
   71fsi    NBT  883   1.745   3.342   1.054 -0.7851  0.5186  0.3302
   71fsi    OBT  884   1.498   3.367   1.119  0.0046  0.1084  0.2426
   71fsi    OBT  885   1.555   3.294   0.892 -0.9752 -0.1800 -0.5707
   71fsi    SBT  886   1.809   3.334   1.196  0.1409  0.0028  0.1023
   71fsi    OBT  887   1.897   3.217   1.220  0.0988  0.1453 -0.2448
   71fsi    OBT  888   1.733   3.388   1.303 -0.3891  0.1542  0.6199
   71fsi    FSI  889   1.916   3.447   1.173 -0.0775  1.0239  0.1506
   72fsi    FSI  890   1.207   1.612   0.236 -0.0937 -0.2050 -0.4348
   72fsi    SBT  891   1.231   1.684   0.377  0.3026  0.1348  0.1266
   72fsi    NBT  892   1.173   1.578   0.478  0.1684 -0.5661  0.3545
   72fsi    OBT  893   1.374   1.691   0.384 -0.4442  0.5241 -0.8726
   72fsi    OBT  894   1.152   1.803   0.370  0.2978 -0.1552  0.2626
   72fsi    SBT  895   1.026   1.578   0.544  0.1772 -0.1802  0.3958
   72fsi    OBT  896   1.009   1.703   0.619  0.3095  0.1852  0.1571
   72fsi    OBT  897   0.994   1.450   0.605  0.6746  0.0950 -0.0215
   72fsi    FSI  898   0.926   1.600   0.424  0.2648 -0.4843 -0.0345
   73fsi    FSI  899   2.349   2.717   0.476  0.0253 -0.1810 -0.1490
   73fsi    SBT  900   2.218   2.786   0.428 -0.3747  0.1967 -0.4293
   73fsi    NBT  901   2.269   2.884   0.315  0.3757  0.1226  0.0954
   73fsi    OBT  902   2.141   2.679   0.379  0.9751 -0.7092  0.1530
   73fsi    OBT  903   2.172   2.850   0.548 -0.6351 -0.4214 -0.6750
   73fsi    SBT  904   2.289   3.041   0.311  0.2859  0.5465 -0.0652
   73fsi    OBT  905   2.186   3.105   0.391 -0.6945  0.4154 -0.1726
   73fsi    OBT  906   2.306   3.098   0.181  0.6727 -0.2101 -0.1557
   73fsi    FSI  907   2.421   3.058   0.388  0.5251 -0.0422  0.5181
   74fsi    FSI  908   1.668   3.278   4.544  1.2225  0.7434  0.6828
   74fsi    SBT  909   1.603   3.227   4.675 -0.1711 -0.2832  0.1608
   74fsi    NBT  910   1.665   3.080   4.692 -0.5925  0.4078 -0.4043
   74fsi    OBT  911   1.654   3.325   4.770 -0.5249  0.2367  0.1927
   74fsi    OBT  912   1.467   3.226   4.650  0.0770  0.0969 -0.2647
   74fsi    SBT  913   1.756   3.036   4.813 -0.3614 -0.1782 -0.4008
   74fsi    OBT  914   1.834   3.139   4.868 -0.0159 -0.1673  0.5766
   74fsi    OBT  915   1.830   2.914   4.793 -0.5981  0.3316 -0.3443
   74fsi    FSI  916   1.646   3.015   4.926 -0.3507 -0.8771 -0.3983
   75fsi    FSI  917   0.306   3.556   0.851 -0.6601  0.3883 -0.9160
   75fsi    SBT  918   0.335   3.413   0.793  0.1928  0.4582 -0.1141
   75fsi    NBT  919   0.467   3.436   0.708 -0.2925 -0.1440 -0.1746
   75fsi    OBT  920   0.345   3.325   0.905  0.2555  0.2096 -0.3611
   75fsi    OBT  921   0.231   3.391   0.696 -0.8184  0.1082  0.0571
   75fsi    SBT  922   0.616   3.409   0.743 -0.5705 -0.3643 -0.6906
   75fsi    OBT  923   0.694   3.398   0.626 -0.0528  0.2064  0.0616
   75fsi    OBT  924   0.633   3.307   0.841 -0.4524  0.3680 -0.1505
   75fsi    FSI  925   0.663   3.547   0.806  0.0287 -0.1845 -0.2953
   76fsi    FSI  926   0.595   2.782   0.539  0.4376  0.2760 -0.0613
   76fsi    SBT  927   0.579   2.638   0.494  0.5540  0.1752  0.2527
   76fsi    NBT  928   0.496   2.642   0.360  0.1086  0.8148  0.4565
   76fsi    OBT  929   0.708   2.588   0.470  0.5605 -0.5225  0.2506
   76fsi    OBT  930   0.508   2.584   0.610  0.3968  0.4982  0.3754
   76fsi    SBT  931   0.348   2.598   0.336 -0.6253 -0.1820 -0.4814
   76fsi    OBT  932   0.286   2.539   0.454 -0.2495 -0.3348  0.0179
   76fsi    OBT  933   0.320   2.543   0.206 -0.4060  0.3326  0.0792
   76fsi    FSI  934   0.270   2.740   0.323 -0.5391 -0.6509  0.2982
   77fsi    FSI  935   2.135   1.609   0.144 -0.6105  0.1327  0.5863
   77fsi    SBT  936   2.168   1.715   0.257  0.0910 -0.0214  0.1827
   77fsi    NBT  937   2.040   1.810   0.250  0.4537 -0.0584  0.0146
   77fsi    OBT  938   2.187   1.639   0.377 -0.4414 -0.1076  0.7256
   77fsi    OBT  939   2.283   1.786   0.204  0.2651  0.0424 -0.3514
   77fsi    SBT  940   1.935   1.835   0.368 -0.2481 -0.2857 -0.0078
   77fsi    OBT  941   1.912   1.724   0.456  0.2907 -0.0037 -0.3565
   77fsi    OBT  942   1.823   1.903   0.318  0.1904 -0.3285  0.4316
   77fsi    FSI  943   2.010   1.944   0.451 -0.2157  0.2740  0.1273
   78fsi    FSI  944   0.839   2.413   2.770  0.2755  0.0616  0.5066
   78fsi    SBT  945   0.912   2.396   2.638  0.2042 -0.1878 -0.2453
   78fsi    NBT  946   0.897   2.242   2.610  0.2965 -0.3584 -0.0378
   78fsi    OBT  947   0.847   2.490   2.554 -0.3172 -0.5174  0.3210
   78fsi    OBT  948   1.045   2.435   2.684  0.6377 -0.8935  0.5430
   78fsi    SBT  949   0.986   2.123   2.652 -0.1676  0.1951 -0.0096
   78fsi    OBT  950   1.108   2.154   2.727 -0.0089 -0.1283 -0.1033
   78fsi    OBT  951   0.993   2.024   2.553 -0.3014 -0.2736  0.5867
   78fsi    FSI  952   0.892   2.062   2.758 -0.1310 -0.0816 -0.1271
   79fsi    FSI  953   2.261   2.410   1.302 -0.1977  0.2497 -0.3599
   79fsi    SBT  954   2.163   2.387   1.176  0.1898  0.0131  0.2390
   79fsi    NBT  955   2.246   2.423   1.057 -0.6256  0.7892  0.0590
   79fsi    OBT  956   2.136   2.243   1.180  0.2539  0.0156  0.1286
   79fsi    OBT  957   2.048   2.477   1.201 -0.6019  0.2321  0.1480
   79fsi    SBT  958   2.275   2.559   0.990  0.2597 -0.2183 -0.3233
   79fsi    OBT  959   2.293   2.674   1.082 -0.1120 -0.0851  0.0449
   79fsi    OBT  960   2.196   2.584   0.874 -0.2982 -0.3449  0.7836
   79fsi    FSI  961   2.420   2.540   0.931  0.3043  0.0815  0.0103
   80fsi    FSI  962   1.644   1.356   0.335  0.0788  0.1434  0.0261
   80fsi    SBT  963   1.744   1.471   0.364  0.2293  0.1782  0.4741
   80fsi    NBT  964   1.800   1.515   0.221  0.4042  0.3055 -0.0877
   80fsi    OBT  965   1.663   1.572   0.426  0.2295 -0.0921  0.0258
   80fsi    OBT  966   1.854   1.419   0.442  0.4278 -0.3969 -0.5527
   80fsi    SBT  967   1.738   1.607   0.110 -0.2594 -0.1402  0.2355
   80fsi    OBT  968   1.834   1.699   0.056  0.1737  0.1370  0.0631
   80fsi    OBT  969   1.615   1.671   0.137 -0.1241 -0.1129 -0.4493
   80fsi    FSI  970   1.703   1.510  -0.007 -0.1070 -0.3103  0.6321
   81fsi    FSI  971   1.746   1.608   1.305 -0.4433 -0.0653  0.2160
   81fsi    SBT  972   1.611   1.684   1.265  0.0362 -0.0237  0.3765
   81fsi    NBT  973   1.551   1.717   1.408 -0.4325 -0.3957 -0.3009
   81fsi    OBT  974   1.669   1.796   1.196 -0.2061 -0.0969 -0.0953
   81fsi    OBT  975   1.535   1.585   1.198  0.0977  0.5193  0.2597
   81fsi    SBT  976   1.577   1.854   1.488  0.6046  0.0111  0.0156
   81fsi    OBT  977   1.471   1.880   1.583  0.4297  0.4006 -0.3006
   81fsi    OBT  978   1.611   1.969   1.405  0.2315  0.7361 -0.1221
   81fsi    FSI  979   1.699   1.817   1.586 -0.3305  0.2151 -0.0981
   82fsi    FSI  980   1.616   2.453   1.843  0.3165  0.2734 -0.3638
   82fsi    SBT  981   1.670   2.593   1.884  0.2002  0.4527 -0.2563
   82fsi    NBT  982   1.823   2.566   1.910  0.3364  0.2401 -0.2414
   82fsi    OBT  983   1.637   2.673   1.767 -0.0736  0.7034 -0.0270
   82fsi    OBT  984   1.595   2.620   2.006 -0.1747 -0.4499  0.3408
   82fsi    SBT  985   1.902   2.531   2.042 -0.3243  0.0784  0.1180
   82fsi    OBT  986   2.018   2.451   2.014  0.0631  0.6891  0.6145
   82fsi    OBT  987   1.817   2.488   2.146 -0.3635 -0.3532 -0.6935
   82fsi    FSI  988   1.961   2.675   2.093  0.1239  0.1772  0.7103
   83fsi    FSI  989   2.131   2.426   4.550 -0.2005 -0.6147  0.5182
   83fsi    SBT  990   2.051   2.522   4.654  0.5242 -0.1692  0.0201
   83fsi    NBT  991   1.922   2.536   4.565  0.5235  0.3417 -0.4706
   83fsi    OBT  992   2.035   2.445   4.775  0.7367  0.3294 -0.2324
   83fsi    OBT  993   2.129   2.639   4.659  0.1193 -0.5303  0.2043
   83fsi    SBT  994   1.871   2.663   4.476  0.0233  0.5202  0.1423
   83fsi    OBT  995   1.922   2.787   4.526 -0.5124  0.4692  0.4783
   83fsi    OBT  996   1.733   2.661   4.449  0.0590  0.2789  0.0995
   83fsi    FSI  997   1.945   2.640   4.344  0.0908  0.1202  0.4083
   84fsi    FSI  998   1.717   2.934   0.359 -0.0120 -0.1346  0.5428
   84fsi    SBT  999   1.733   2.812   0.451 -0.3497 -0.4933  0.3313
   84fsi    NBT 1000   1.589   2.757   0.471  0.6703  0.2720  0.0248
   84fsi    OBT 1001   1.814   2.723   0.374 -0.5186  0.0712  0.1458
   84fsi    OBT 1002   1.790   2.860   0.574 -0.2285 -0.1698  0.0061
   84fsi    SBT 1003   1.462   2.815   0.540  0.0209 -0.2023 -0.2443
   84fsi    OBT 1004   1.349   2.759   0.477  0.0315  0.0867 -0.7717
   84fsi    OBT 1005   1.458   2.952   0.583 -0.6423 -0.4816 -0.2209
   84fsi    FSI 1006   1.475   2.736   0.680 -0.0114 -0.0979  0.1947
   85fsi    FSI 1007   1.714   2.629   1.310  0.6694 -0.0148 -0.1425
   85fsi    SBT 1008   1.617   2.519   1.369 -0.1358  0.1868  0.1876
   85fsi    NBT 1009   1.508   2.517   1.259  0.2114  0.7083  0.9075
   85fsi    OBT 1010   1.696   2.397   1.373 -0.8909 -0.3879  0.3677
   85fsi    OBT 1011   1.586   2.581   1.493 -0.2513  0.2051  0.1142
   85fsi    SBT 1012   1.357   2.553   1.259  0.1196 -0.4406 -0.0323
   85fsi    OBT 1013   1.309   2.593   1.129  0.2969 -0.4811 -0.6074
   85fsi    OBT 1014   1.313   2.646   1.360  0.0765  0.1423  0.0873
   85fsi    FSI 1015   1.280   2.420   1.302  0.1831 -0.6409 -0.0199
   86fsi    FSI 1016   0.130   2.309   1.990 -0.4268  0.1474  0.2862
   86fsi    SBT 1017   0.256   2.362   1.910 -0.0796 -0.2641 -0.3463
   86fsi    NBT 1018   0.327   2.238   1.846  0.4821  0.2063  0.2877
   86fsi    OBT 1019   0.195   2.455   1.822  0.0882 -0.1180 -0.6050
   86fsi    OBT 1020   0.340   2.411   2.020  0.1723 -0.3011  0.0902
   86fsi    SBT 1021   0.265   2.157   1.724  0.1116  0.1078  0.4484
   86fsi    OBT 1022   0.369   2.119   1.630  0.1727 -0.2644 -0.6506
   86fsi    OBT 1023   0.146   2.208   1.663 -0.1373 -0.2637  0.0075
   86fsi    FSI 1024   0.218   2.020   1.788  0.3483 -0.4703  0.0738
   87fsi    FSI 1025   2.223   1.685   0.925 -0.4131 -0.1920  0.2731
   87fsi    SBT 1026   2.136   1.743   0.819  0.2229  0.1598 -0.0891
   87fsi    NBT 1027   1.995   1.747   0.895  0.6361 -0.1303 -0.7790
   87fsi    OBT 1028   2.180   1.873   0.794  0.1407 -0.0764 -0.0665
   87fsi    OBT 1029   2.148   1.652   0.713  0.4512  0.2885  0.5096
   87fsi    SBT 1030   1.870   1.653   0.878 -0.3686  0.1510  0.0156
   87fsi    OBT 1031   1.868   1.552   0.772  0.8462 -0.7207 -0.1785
   87fsi    OBT 1032   1.745   1.714   0.918  0.2337 -0.0597  0.7202
   87fsi    FSI 1033   1.895   1.562   1.010  0.4723 -0.0771  0.1400
   88fsi    FSI 1034   2.162   3.377   4.552  0.0715 -0.1047 -0.4532
   88fsi    SBT 1035   2.066   3.278   4.629  0.3319 -0.0691 -0.1479
   88fsi    NBT 1036   2.153   3.235   4.749  0.1050 -0.4217  0.2818
   88fsi    OBT 1037   1.955   3.354   4.670 -0.1460 -0.1575  0.6457
   88fsi    OBT 1038   2.043   3.174   4.535  0.5935 -0.1325 -0.3055
   88fsi    SBT 1039   2.235   3.110   4.781  0.1171  0.3618  0.4145
   88fsi    OBT 1040   2.159   2.994   4.745  0.6151  0.2546  0.0084
   88fsi    OBT 1041   2.298   3.117   4.911  0.2274 -0.3669  0.4875
   88fsi    FSI 1042   2.350   3.126   4.677  0.1089  0.2922 -0.2315
   89fsi    FSI 1043   1.692   2.401   2.674  0.2877 -0.4864  0.3395
   89fsi    SBT 1044   1.580   2.451   2.574 -0.3040 -0.2349 -0.3985
   89fsi    NBT 1045   1.587   2.601   2.579  0.9125  0.5489 -0.0945
   89fsi    OBT 1046   1.615   2.384   2.449 -0.2755  0.0797 -0.3935
   89fsi    OBT 1047   1.460   2.399   2.636 -1.2320 -0.8101  0.3950
   89fsi    SBT 1048   1.580   2.713   2.460  0.1317  0.2983  0.2241
   89fsi    OBT 1049   1.499   2.826   2.501  0.1648  0.1041  0.6142
   89fsi    OBT 1050   1.559   2.651   2.333 -0.7367 -0.0221 -0.2504
   89fsi    FSI 1051   1.729   2.762   2.461  0.0949 -0.4347  0.3114
   90fsi    FSI 1052   0.739   2.893   0.726 -0.3000  0.4204  0.0883
   90fsi    SBT 1053   0.866   2.962   0.780 -0.1504  0.1910  0.6676
   90fsi    NBT 1054   0.916   3.046   0.661  1.3745  0.4531 -0.4791
   90fsi    OBT 1055   0.825   3.036   0.897  0.2200 -0.1693  0.1251
   90fsi    OBT 1056   0.950   2.850   0.812  0.3340 -0.0688  0.3823
   90fsi    SBT 1057   0.995   3.000   0.539 -0.4747 -0.6031 -0.1735
   90fsi    OBT 1058   0.997   3.103   0.437 -0.4772 -0.0429  0.1453
   90fsi    OBT 1059   0.980   2.864   0.496  0.5381 -0.3001  0.1232
   90fsi    FSI 1060   1.143   3.014   0.589  0.6199  0.6484 -0.0413
   91fsi    FSI 1061   1.438   2.778   3.974 -0.2015  0.0574 -0.4892
   91fsi    SBT 1062   1.330   2.741   4.081 -0.0927  0.6241 -0.1598
   91fsi    NBT 1063   1.310   2.871   4.169 -0.0075  0.8044  0.4472
   91fsi    OBT 1064   1.216   2.715   3.997  0.0989  0.1558  0.2358
   91fsi    OBT 1065   1.395   2.628   4.148  0.8299 -0.2667  0.7963
   91fsi    SBT 1066   1.179   2.942   4.215 -0.1044 -0.1628  0.2183
   91fsi    OBT 1067   1.200   3.036   4.324 -0.9703 -0.0522 -0.2005
   91fsi    OBT 1068   1.063   2.855   4.223 -0.3707 -0.4245  0.1937
   91fsi    FSI 1069   1.152   3.042   4.100 -0.2034  0.6166  0.3668
   92fsi    FSI 1070   1.125   2.745   0.249 -0.2326 -0.0128 -0.1384
   92fsi    SBT 1071   1.104   2.585   0.250  0.3779  0.1142 -0.0773
   92fsi    NBT 1072   1.036   2.571   0.112 -0.2854  0.6209 -0.3958
   92fsi    OBT 1073   1.235   2.529   0.266  0.4821  0.6254  0.7821
   92fsi    OBT 1074   1.009   2.564   0.360  0.4000  0.1155 -0.3154
   92fsi    SBT 1075   1.057   2.623  -0.036 -0.3336  0.0890  0.2551
   92fsi    OBT 1076   1.150   2.738  -0.045  0.2104  0.3771 -0.2282
   92fsi    OBT 1077   0.932   2.634  -0.104 -0.0581 -0.7728 -0.4562
   92fsi    FSI 1078   1.128   2.502  -0.108  0.1956  0.1910  0.6541
   93fsi    FSI 1079   4.875   2.404   0.628  0.3468  0.5256 -0.3141
   93fsi    SBT 1080   4.939   2.513   0.722  0.0793  0.1723 -0.3297
   93fsi    NBT 1081   4.958   2.454   0.863 -1.0867 -0.3609 -0.0834
   93fsi    OBT 1082   5.062   2.537   0.651 -0.0891 -0.7711  0.2473
   93fsi    OBT 1083   4.842   2.617   0.723 -0.4522 -0.2702  0.1472
   93fsi    SBT 1084   5.083   2.387   0.928 -0.2695 -0.0603  0.2039
   93fsi    OBT 1085   5.124   2.448   1.048  0.3481  0.1215 -0.1517
   93fsi    OBT 1086   5.188   2.350   0.838  0.5357 -0.8950 -0.6935
   93fsi    FSI 1087   5.034   2.249   0.965  0.3123  0.1841 -0.2489
   94fsi    FSI 1088   4.922   2.523   1.467 -0.1940 -0.6548  0.1861
   94fsi    SBT 1089   5.069   2.587   1.458  0.1055  0.2000 -0.0190
   94fsi    NBT 1090   5.049   2.724   1.532 -0.0705  0.0849  0.0687
   94fsi    OBT 1091   5.159   2.488   1.516  0.0782 -0.5605  0.2655
   94fsi    OBT 1092   5.081   2.605   1.320 -0.5445  0.2286  0.1874
   94fsi    SBT 1093   5.133   2.790   1.652 -0.2336  0.1028  0.1688
   94fsi    OBT 1094   5.119   2.932   1.651 -0.2516 -0.2483  0.1828
   94fsi    OBT 1095   5.268   2.737   1.663 -0.1189 -0.1897  0.0585
   94fsi    FSI 1096   5.055   2.734   1.782 -0.3895 -0.1040 -0.4190
   95fsi    FSI 1097   1.444   3.489   0.621  0.1247 -0.1588 -0.2677
   95fsi    SBT 1098   1.471   3.365   0.532 -0.2795  0.1377  0.3035
   95fsi    NBT 1099   1.621   3.353   0.511 -0.5681 -0.2055 -0.0296
   95fsi    OBT 1100   1.409   3.258   0.612 -0.2324 -0.2724 -0.5465
   95fsi    OBT 1101   1.405   3.400   0.409 -0.6626  0.0243  0.0557
   95fsi    SBT 1102   1.733   3.282   0.583 -0.3302 -0.2627  0.0103
   95fsi    OBT 1103   1.848   3.267   0.502 -0.0017  0.0766  0.3328
   95fsi    OBT 1104   1.700   3.164   0.660  0.5469  0.2267  0.4130
   95fsi    FSI 1105   1.778   3.389   0.687 -0.1413  0.4906 -0.1071
   96fsi    FSI 1106   0.275   3.091   0.742  0.3646  0.0680  0.4827
   96fsi    SBT 1107   0.351   2.958   0.740  0.1249 -0.2934 -0.1231
   96fsi    NBT 1108   0.288   2.890   0.870 -0.1734  0.3726  0.7953
   96fsi    OBT 1109   0.316   2.906   0.613  0.7741  0.3201 -0.0591
   96fsi    OBT 1110   0.487   3.001   0.763  0.8265  0.3006  0.2775
   96fsi    SBT 1111   0.212   2.752   0.875 -0.1214 -0.3181 -0.2566
   96fsi    OBT 1112   0.180   2.717   1.008 -0.0484 -0.0079 -0.1822
   96fsi    OBT 1113   0.268   2.656   0.786 -0.6874  0.7611 -0.1902
   96fsi    FSI 1114   0.082   2.787   0.806  0.6487  0.2912  0.4292
   97fsi    FSI 1115   1.973   2.766   3.748  0.4246 -0.0911 -0.2456
   97fsi    SBT 1116   1.823   2.745   3.788 -0.0005 -0.1306  0.5501
   97fsi    NBT 1117   1.849   2.679   3.926  0.1471 -0.0463 -1.3145
   97fsi    OBT 1118   1.776   2.880   3.795 -0.5030  0.0284 -0.1191
   97fsi    OBT 1119   1.776   2.658   3.688  0.0075 -0.6074 -0.1107
   97fsi    SBT 1120   1.843   2.538   3.983  0.1294 -0.0853  0.1149
   97fsi    OBT 1121   1.950   2.508   4.072 -0.5742  0.0075 -0.3638
   97fsi    OBT 1122   1.794   2.435   3.897 -0.1789 -0.7979  0.4202
   97fsi    FSI 1123   1.719   2.566   4.081 -0.0823 -0.5157 -0.1126
   98fsi    FSI 1124   0.463   1.662   1.425 -0.4404 -0.8174 -0.2108
   98fsi    SBT 1125   0.596   1.750   1.422  0.2153 -0.0839  0.2814
   98fsi    NBT 1126   0.667   1.717   1.560 -0.1183  0.2455 -1.0056
   98fsi    OBT 1127   0.669   1.683   1.313 -0.3468 -0.3706 -1.0528
   98fsi    OBT 1128   0.554   1.886   1.409  0.0393 -0.1819  0.1109
   98fsi    SBT 1129   0.670   1.794   1.696 -0.3562 -0.1150  0.0741
   98fsi    OBT 1130   0.718   1.715   1.807 -0.9427 -0.1519 -0.6130
   98fsi    OBT 1131   0.558   1.884   1.721  0.0124  0.3508 -0.1192
   98fsi    FSI 1132   0.791   1.892   1.672 -0.1657 -0.1392  0.5729
   99fsi    FSI 1133   0.809   1.957   1.244  0.0376  0.1142  0.6026
   99fsi    SBT 1134   0.869   2.095   1.202  0.2111  0.0615 -0.3398
   99fsi    NBT 1135   0.945   2.133   1.341 -0.1427 -0.6406  0.4671
   99fsi    OBT 1136   0.965   2.053   1.103 -0.6098  0.3703  0.3640
   99fsi    OBT 1137   0.751   2.171   1.164  0.2808  0.0094 -0.0363
   99fsi    SBT 1138   0.883   2.208   1.467 -0.0147 -0.1999 -0.1474
   99fsi    OBT 1139   0.981   2.221   1.572 -0.0038  0.2448 -0.0720
   99fsi    OBT 1140   0.751   2.154   1.503  0.3306 -0.5300 -0.5845
   99fsi    FSI 1141   0.855   2.350   1.402 -0.0759  0.0303  0.3740
  100fsi    FSI 1142   2.240   2.777   5.070 -0.4313 -0.3355 -0.4607
  100fsi    SBT 1143   2.099   2.715   5.043 -0.7381  0.0235  0.3680
  100fsi    NBT 1144   2.017   2.774   5.170  0.3795 -0.3141  0.8564
  100fsi    OBT 1145   2.066   2.770   4.912 -0.3139  0.6713  0.3602
  100fsi    OBT 1146   2.118   2.573   5.042 -0.0564  0.0192 -0.2170
  100fsi    SBT 1147   1.977   2.924   5.187 -0.0775 -0.2914  0.1013
  100fsi    OBT 1148   2.032   3.023   5.094  0.3230  0.8442 -0.1451
  100fsi    OBT 1149   1.971   2.967   5.323  0.5148 -0.0777 -0.4499
  100fsi    FSI 1150   1.828   2.922   5.146 -0.2053  0.2371 -0.8609
   5.09968   5.09968   5.09968
