L1P1 short trajectory practice
 1150
    1Li+     Li    1   2.355   2.635   1.255  0.7613  0.4988  0.3133
    2Li+     Li    2   2.867   1.761   1.256  0.8768  0.4390  0.4721
    3Li+     Li    3   0.447   3.034   0.029  0.0220  0.6680 -0.0036
    4Li+     Li    4   0.581   2.704   4.830 -0.1113  0.0518  0.5870
    5Li+     Li    5   2.477   2.604   1.925 -0.2062 -0.7508 -0.5401
    6Li+     Li    6   1.543   2.220   0.815  0.2448  0.0986  0.6695
    7Li+     Li    7   2.546   2.336   1.465  1.0551  0.2686  1.4690
    8Li+     Li    8   1.838   2.598   0.641  0.9006 -0.3582 -0.2267
    9Li+     Li    9   0.920   2.759   0.294 -0.1511  0.3923 -0.1891
   10Li+     Li   10   1.507   2.745   1.224 -0.0179  0.4238 -0.2983
   11Li+     Li   11   0.909   1.748   0.781  0.2734  0.9262 -0.4444
   12Li+     Li   12   1.024   3.180   1.101 -0.0868  0.2616 -0.3979
   13Li+     Li   13   2.642   2.872   1.457  0.1118 -0.3637 -0.2749
   14Li+     Li   14   0.634   3.331   0.534  0.6420  1.5603  0.3236
   15Li+     Li   15   0.727   1.578   5.053  1.0087 -0.0180 -0.8749
   16Li+     Li   16   2.072   2.846   1.089  0.8602 -0.0646 -0.3777
   17Li+     Li   17   1.073   3.349   0.411 -0.1843  0.9451  0.7193
   18Li+     Li   18   0.179   1.783   5.142 -0.3304 -0.0468  0.1869
   19Li+     Li   19   0.664   2.484   0.024  1.1244  1.3946  0.2248
   20Li+     Li   20   0.533   1.891   0.338  1.1120 -0.2862 -0.3571
   21Li+     Li   21   1.525   3.078   0.770  1.0363  0.5906 -0.8331
   22Li+     Li   22   0.657   2.178   4.884 -0.0275  0.0924 -0.1056
   23Li+     Li   23   1.614   3.019   2.055  0.2526  0.7959 -1.2785
   24Li+     Li   24   0.536   2.783   2.033 -0.1487  0.8771  0.3688
   25Li+     Li   25   2.201   2.203   1.867 -0.5779  0.2577 -0.3329
   26c3c     N4   26   1.642   2.751   0.229 -0.4566  0.7164 -0.1626
   26c3c     C1   27   1.581   2.806   0.105 -0.2744 -0.3616 -0.1018
   26c3c     C1   28   1.777   2.816   0.223  0.4453 -0.0158 -0.4896
   26c3c     C2   29   1.622   2.952   0.109  0.8396  0.1023 -0.4102
   26c3c     C2   30   1.752   2.957   0.189 -0.0245  0.6279  0.1158
   26c3c     C1   31   1.568   2.788   0.353 -0.7489  0.4157  0.4134
   26c3c     C1   32   1.649   2.604   0.228 -1.1902  0.1738  0.0386
   26c3c     H1   33   1.474   2.784   0.102 -0.0026 -1.8535  0.6501
   26c3c     H1   34   1.626   2.767   0.014 -0.8332 -2.0061  0.3191
   26c3c     H1   35   1.839   2.801   0.312 -0.7918 -1.5113  0.1544
   26c3c     H1   36   1.845   2.777   0.147  1.7704 -1.0722  1.1781
   26c3c     HC   37   1.540   3.010   0.152  1.2226 -0.0611  0.5441
   26c3c     HC   38   1.637   3.006   0.016  1.6414 -2.7239 -1.9997
   26c3c     HC   39   1.735   3.029   0.269 -0.1040 -0.2416  0.8852
   26c3c     HC   40   1.841   2.996   0.139 -0.1582  0.3804 -0.3113
   26c3c     H1   41   1.467   2.748   0.352 -0.8557  0.6495  1.3675
   26c3c     H1   42   1.620   2.748   0.440 -0.3115  1.3650  0.6040
   26c3c     H1   43   1.550   2.894   0.370 -1.3889  0.8955 -2.9169
   26c3c     H1   44   1.684   2.574   0.327  1.4460 -1.1908 -1.2627
   26c3c     H1   45   1.547   2.566   0.215 -0.3535 -1.9011 -0.6213
   26c3c     C2   46   1.739   2.530   0.115  0.2154 -0.6103 -1.0204
   26c3c     HC   47   1.845   2.534   0.143 -0.3299 -1.5391  1.3000
   26c3c     HC   48   1.741   2.577   0.017 -2.0630 -1.2370 -1.3915
   26c3c     CT   49   1.701   2.384   0.089 -0.0893 -0.7148 -0.3627
   26c3c     HC   50   1.604   2.377   0.039  1.0609  1.1501 -2.9293
   26c3c     HC   51   1.687   2.334   0.185 -1.3577 -1.3901 -0.8840
   26c3c     HC   52   1.776   2.335   0.027 -0.4084 -0.9042 -0.5997
   27c3c     N4   53   1.350   1.520   0.302  0.5633  0.1887 -0.1815
   27c3c     C1   54   1.469   1.473   0.371  0.0984  0.8217  0.1866
   27c3c     C1   55   1.296   1.614   0.405 -0.5160  0.6353 -0.0387
   27c3c     C2   56   1.531   1.589   0.447 -0.0325 -0.5303 -0.5371
   27c3c     C2   57   1.406   1.689   0.458 -0.7682  0.2087  0.1160
   27c3c     C1   58   1.388   1.590   0.178 -0.1589 -0.8349  0.1475
   27c3c     C1   59   1.257   1.411   0.269  0.1391  0.1693  0.5265
   27c3c     H1   60   1.541   1.418   0.310 -1.5229  1.1674 -2.0923
   27c3c     H1   61   1.431   1.405   0.447 -1.4977  0.0496 -1.2564
   27c3c     H1   62   1.213   1.673   0.365 -0.0157  1.4610  0.1193
   27c3c     H1   63   1.247   1.568   0.491 -0.6917 -2.4996 -1.7421
   27c3c     HC   64   1.610   1.640   0.393  0.1131 -0.3140 -0.1230
   27c3c     HC   65   1.570   1.564   0.546  1.0391  2.3084 -0.1850
   27c3c     HC   66   1.424   1.777   0.397 -0.2722  1.1447  1.5802
   27c3c     HC   67   1.382   1.726   0.558 -0.2420 -0.6438  0.5699
   27c3c     H1   68   1.464   1.542   0.116 -0.8361 -0.7502 -0.7632
   27c3c     H1   69   1.304   1.587   0.109 -0.2964 -1.7673  0.3500
   27c3c     H1   70   1.425   1.689   0.205 -1.1147 -0.6937  0.9432
   27c3c     H1   71   1.161   1.453   0.242 -0.5063 -1.9103 -0.5585
   27c3c     H1   72   1.290   1.356   0.180 -2.2788 -0.5158  0.0218
   27c3c     C2   73   1.231   1.295   0.372 -0.8076 -0.3815 -0.4361
   27c3c     HC   74   1.172   1.340   0.452 -0.1114 -2.6328  1.4122
   27c3c     HC   75   1.323   1.246   0.406  0.9386  1.6432 -2.0995
   27c3c     CT   76   1.139   1.193   0.306  0.6795  0.8474 -0.2854
   27c3c     HC   77   1.072   1.243   0.236 -1.5106  0.7169  1.6627
   27c3c     HC   78   1.084   1.129   0.374  1.4889  2.3240  1.8105
   27c3c     HC   79   1.202   1.126   0.247  0.6177 -2.6579  3.4452
   28c3c     N4   80   2.679   2.240   0.879  0.2812  0.4328 -0.6548
   28c3c     C1   81   2.607   2.320   0.778 -0.0773 -0.0585  0.4979
   28c3c     C1   82   2.822   2.258   0.851  0.4556  0.4090 -0.5195
   28c3c     C2   83   2.695   2.448   0.763  0.2139 -0.3341 -0.3246
   28c3c     C2   84   2.831   2.407   0.814  0.0789 -0.2039  0.3748
   28c3c     C1   85   2.641   2.283   1.017  0.3233  0.1245 -0.6691
   28c3c     C1   86   2.648   2.100   0.884  0.3147 -0.0022  0.6902
   28c3c     H1   87   2.502   2.342   0.799  0.1550  1.2075  0.4013
   28c3c     H1   88   2.624   2.288   0.675  2.4412  0.9745  0.5416
   28c3c     H1   89   2.877   2.231   0.941 -2.2611  2.4657  1.8493
   28c3c     H1   90   2.857   2.200   0.765 -2.4044 -2.4415  0.1729
   28c3c     HC   91   2.649   2.523   0.828  2.6144  0.1314  0.8840
   28c3c     HC   92   2.700   2.483   0.660  3.4102  0.5554  0.0842
   28c3c     HC   93   2.865   2.468   0.898  2.2255  0.3420 -0.8409
   28c3c     HC   94   2.908   2.422   0.738 -0.3361 -0.3724 -0.0751
   28c3c     H1   95   2.534   2.284   1.040  0.7721  0.2352  1.5779
   28c3c     H1   96   2.699   2.228   1.091 -0.8021 -0.3953 -0.1586
   28c3c     H1   97   2.676   2.383   1.042 -0.3387  0.6195 -1.6847
   28c3c     H1   98   2.700   2.051   0.966 -2.7789  1.1407  3.4791
   28c3c     H1   99   2.544   2.085   0.913  0.3094  1.4066  1.4059
   28c3c     C2  100   2.650   2.021   0.751  0.4740 -0.1610  0.5464
   28c3c     HC  101   2.748   2.011   0.705  0.0267  0.0926 -0.4879
   28c3c     HC  102   2.583   2.061   0.674 -0.7494 -0.7291  1.2986
   28c3c     CT  103   2.606   1.873   0.780 -0.0436  0.2797 -0.3337
   28c3c     HC  104   2.602   1.795   0.704  0.9345 -0.9592  0.8592
   28c3c     HC  105   2.506   1.901   0.814  0.2169  1.4207 -0.4892
   28c3c     HC  106   2.661   1.832   0.864 -0.0414 -0.1916 -0.5630
   29c3c     N4  107   0.772   2.625   4.104 -0.1004  0.2275  0.5115
   29c3c     C1  108   0.854   2.647   4.217  0.5139  0.1580 -0.8577
   29c3c     C1  109   0.869   2.611   3.995 -0.2853  0.7068 -0.2803
   29c3c     C2  110   0.968   2.549   4.199  0.2881  0.4086 -0.3523
   29c3c     C2  111   0.995   2.539   4.043  0.0759  1.1063 -0.5111
   29c3c     C1  112   0.691   2.499   4.117 -0.0591 -0.3862  0.2814
   29c3c     C1  113   0.675   2.734   4.078 -0.0899  0.3426  0.3315
   29c3c     H1  114   0.799   2.643   4.311 -1.0385  1.9795 -1.6408
   29c3c     H1  115   0.898   2.747   4.227  1.7672 -0.5203  0.6401
   29c3c     H1  116   0.823   2.557   3.912 -1.5665 -1.6615  1.8997
   29c3c     H1  117   0.916   2.706   3.968 -0.7580  0.2799 -2.7554
   29c3c     HC  118   0.937   2.452   4.239 -2.0284  2.5075  3.1894
   29c3c     HC  119   1.056   2.583   4.254 -0.2094 -0.0185  0.7430
   29c3c     HC  120   1.010   2.438   4.005 -1.0476  1.6829 -2.5293
   29c3c     HC  121   1.085   2.595   4.018 -0.0823  1.4247 -0.3772
   29c3c     H1  122   0.648   2.494   4.217 -2.1893  0.2416 -0.5676
   29c3c     H1  123   0.603   2.481   4.056  0.2067  2.4396 -1.0445
   29c3c     H1  124   0.753   2.410   4.112  0.0781 -0.3538  1.3034
   29c3c     H1  125   0.645   2.707   3.976 -1.6292  1.4406  0.4650
   29c3c     H1  126   0.586   2.726   4.140 -0.8177  0.4465 -0.6762
   29c3c     C2  127   0.727   2.885   4.059 -0.4122  0.0047  0.4971
   29c3c     HC  128   0.793   2.901   3.973 -1.3483  0.5260 -0.1303
   29c3c     HC  129   0.771   2.910   4.155 -1.9038  0.0565  1.1847
   29c3c     CT  130   0.614   2.984   4.024  0.6419 -0.2134  0.1970
   29c3c     HC  131   0.668   3.079   4.021 -0.3442  0.3216 -0.8488
   29c3c     HC  132   0.529   2.988   4.092  0.8458 -2.9655  0.6508
   29c3c     HC  133   0.569   2.976   3.925 -2.5082  1.6712  1.3966
   30c3c     N4  134   1.146   3.299   1.689 -0.2832 -0.4004  0.3607
   30c3c     C1  135   1.182   3.164   1.709  0.5531  0.2965  0.3702
   30c3c     C1  136   1.045   3.299   1.581  0.0547  0.0135  0.3711
   30c3c     C2  137   1.058   3.078   1.684 -0.5289 -0.2039 -0.5636
   30c3c     C2  138   0.979   3.160   1.589 -0.1435  0.6014  0.3462
   30c3c     C1  139   1.083   3.346   1.819  0.7000 -0.2160 -0.4160
   30c3c     C1  140   1.261   3.391   1.679  0.6051 -0.8614 -0.3677
   30c3c     H1  141   1.232   3.151   1.806  0.6361 -1.7635  0.0790
   30c3c     H1  142   1.260   3.133   1.639 -0.2356  0.9367 -0.8013
   30c3c     H1  143   0.967   3.371   1.604  0.0518 -0.0981  0.7158
   30c3c     H1  144   1.078   3.319   1.479 -1.0091  1.0105  0.2102
   30c3c     HC  145   0.998   3.063   1.774  1.6988 -0.4565  0.9359
   30c3c     HC  146   1.088   2.981   1.645 -0.6166 -1.4675  2.3344
   30c3c     HC  147   0.874   3.155   1.620  0.6982  1.3941  3.5173
   30c3c     HC  148   0.985   3.119   1.489  0.6089 -0.5116  0.8391
   30c3c     H1  149   1.144   3.336   1.908 -1.1608  1.3995  1.0923
   30c3c     H1  150   1.052   3.449   1.799 -1.6854 -0.9209 -0.5102
   30c3c     H1  151   0.998   3.284   1.847  1.4343 -0.4958  1.2378
   30c3c     H1  152   1.238   3.497   1.691  3.9409 -0.1900  0.8584
   30c3c     H1  153   1.329   3.353   1.755  1.0409 -1.6337 -1.1273
   30c3c     C2  154   1.343   3.385   1.547  0.0485  0.0977  0.4309
   30c3c     HC  155   1.279   3.363   1.462  0.1349 -2.0406  0.8784
   30c3c     HC  156   1.411   3.300   1.540  0.3528  0.4607 -1.0466
   30c3c     CT  157   1.426   3.505   1.511 -0.4996  0.3362 -0.6020
   30c3c     HC  158   1.376   3.602   1.507 -0.3375  0.4960  0.7917
   30c3c     HC  159   1.460   3.482   1.410  2.1354  0.1890  0.2830
   30c3c     HC  160   1.500   3.511   1.591  0.3779 -0.7471 -1.3118
   31c3c     N4  161   1.077   3.230   4.201  0.7305 -0.2548  0.5795
   31c3c     C1  162   1.207   3.168   4.196 -0.1405 -0.1444  0.1927
   31c3c     C1  163   1.071   3.326   4.094  0.1906 -0.5431  0.3475
   31c3c     C2  164   1.255   3.183   4.052  0.5493 -0.8634  0.5304
   31c3c     C2  165   1.162   3.276   3.977  0.2794  0.4656 -1.2591
   31c3c     C1  166   0.976   3.126   4.156  0.2270 -0.6627  0.0935
   31c3c     C1  167   1.035   3.283   4.334 -0.5460  0.3849 -0.5935
   31c3c     H1  168   1.209   3.065   4.231  0.5957  0.7192  2.7290
   31c3c     H1  169   1.277   3.230   4.251 -1.3965  1.2672  0.2559
   31c3c     H1  170   0.970   3.349   4.059  0.5247  1.4782  0.6598
   31c3c     H1  171   1.113   3.421   4.126  1.9614 -1.3113  0.3302
   31c3c     HC  172   1.271   3.093   3.993 -2.1523 -0.9100 -0.1871
   31c3c     HC  173   1.355   3.225   4.058  0.5891 -0.7217 -1.1401
   31c3c     HC  174   1.099   3.227   3.903  0.3130 -0.0932 -0.9216
   31c3c     HC  175   1.209   3.367   3.941  1.1517  0.9119  0.8917
   31c3c     H1  176   0.974   3.040   4.222 -0.9247  0.0447  1.0095
   31c3c     H1  177   0.875   3.169   4.157 -0.8086 -3.0119  1.9975
   31c3c     H1  178   0.999   3.086   4.057  0.3100 -0.9982  0.2514
   31c3c     H1  179   0.935   3.326   4.327 -0.8866 -0.2971 -0.0198
   31c3c     H1  180   1.015   3.205   4.407 -4.6220  1.3067 -0.6217
   31c3c     C2  181   1.133   3.392   4.395  0.1092 -0.5470 -0.3410
   31c3c     HC  182   1.142   3.478   4.328  2.1088 -0.0810  0.4851
   31c3c     HC  183   1.232   3.355   4.421  0.3776  0.2039 -0.2815
   31c3c     CT  184   1.061   3.433   4.520  0.2890 -0.4431 -0.3506
   31c3c     HC  185   0.959   3.461   4.494 -0.5909 -0.0506  3.2038
   31c3c     HC  186   1.121   3.511   4.567 -2.3341  1.7527 -0.5394
   31c3c     HC  187   1.047   3.354   4.594 -2.2985  1.5340  1.3494
   32c3c     N4  188   0.388   3.062   2.659 -0.2592 -0.3786  0.1279
   32c3c     C1  189   0.502   2.976   2.622 -0.5650 -0.2666 -0.1779
   32c3c     C1  190   0.442   3.138   2.767  0.1024  0.0846 -0.7245
   32c3c     C2  191   0.623   3.068   2.635 -0.5675 -0.5865  0.4842
   32c3c     C2  192   0.572   3.189   2.716 -0.2062  0.1225 -0.4449
   32c3c     C1  193   0.351   3.146   2.546  0.4996  0.0438 -0.0283
   32c3c     C1  194   0.271   2.975   2.693  0.3786  0.0779  0.0730
   32c3c     H1  195   0.488   2.939   2.520 -1.0384 -0.0212 -0.2025
   32c3c     H1  196   0.522   2.888   2.683  1.4180  0.0205 -0.3638
   32c3c     H1  197   0.377   3.222   2.792 -0.2559 -0.0178 -1.3025
   32c3c     H1  198   0.455   3.077   2.857 -0.1738 -1.8929 -1.9986
   32c3c     HC  199   0.651   3.088   2.531 -0.1703  1.5327  0.9820
   32c3c     HC  200   0.704   3.009   2.679  0.5638 -2.0243 -3.2562
   32c3c     HC  201   0.558   3.283   2.662 -0.2585  0.4594  0.1583
   32c3c     HC  202   0.637   3.202   2.802 -1.0627  1.4945  0.0157
   32c3c     H1  203   0.295   3.093   2.469 -1.5544  1.7636  0.2602
   32c3c     H1  204   0.282   3.227   2.568 -0.5466 -0.0715 -2.6951
   32c3c     H1  205   0.442   3.187   2.500 -0.1496 -0.2638 -1.6215
   32c3c     H1  206   0.174   3.026   2.694  0.1694 -0.2963  2.8337
   32c3c     H1  207   0.245   2.905   2.614 -1.6147  1.6520 -0.7222
   32c3c     C2  208   0.274   2.888   2.820 -0.0138  0.6673  0.3704
   32c3c     HC  209   0.290   2.947   2.910  1.4626  0.7952  0.0454
   32c3c     HC  210   0.352   2.812   2.812 -0.2251  0.2980  1.6979
   32c3c     CT  211   0.142   2.808   2.837 -0.1416 -1.3223 -0.2970
   32c3c     HC  212   0.148   2.736   2.919  1.3694 -0.3023  0.5011
   32c3c     HC  213   0.122   2.756   2.744  0.0450 -0.2057 -0.9751
   32c3c     HC  214   0.055   2.870   2.861  0.4387 -1.5057  2.4495
   33c3c     N4  215   0.387   1.876   0.912 -0.2776  0.0302 -0.3134
   33c3c     C1  216   0.368   1.971   1.027 -0.2544 -0.2585  0.6318
   33c3c     C1  217   0.254   1.876   0.853 -0.8779 -0.7308 -0.2210
   33c3c     C2  218   0.282   2.088   0.971  0.2728 -0.1763 -0.1929
   33c3c     C2  219   0.206   2.023   0.852  0.2637 -0.4870 -0.5880
   33c3c     C1  220   0.477   1.932   0.814 -0.5721  0.5496  0.0991
   33c3c     C1  221   0.441   1.745   0.959 -0.4150 -0.4412 -0.0331
   33c3c     H1  222   0.458   1.999   1.080 -0.6204 -1.2146  1.7743
   33c3c     H1  223   0.305   1.929   1.106  0.5259  0.2960  1.5460
   33c3c     H1  224   0.256   1.832   0.753 -0.2708 -2.9906  0.7529
   33c3c     H1  225   0.190   1.812   0.916 -0.8889  0.5360  1.0731
   33c3c     HC  226   0.355   2.162   0.937 -0.2894  0.2321 -0.5130
   33c3c     HC  227   0.219   2.138   1.044 -1.1904 -1.4273 -0.5887
   33c3c     HC  228   0.231   2.076   0.760  2.1563 -0.1418  0.0973
   33c3c     HC  229   0.098   2.040   0.856  0.2503 -0.7062  0.0388
   33c3c     H1  230   0.483   1.860   0.732 -0.2678 -0.6120  1.1264
   33c3c     H1  231   0.442   2.027   0.775 -0.0631  0.5220 -0.4349
   33c3c     H1  232   0.577   1.944   0.858 -1.3165  0.3250  1.9110
   33c3c     H1  233   0.466   1.684   0.871 -0.1490  1.3350 -1.2199
   33c3c     H1  234   0.540   1.761   1.001  0.0823  1.6478 -1.9198
   33c3c     C2  235   0.360   1.674   1.059  0.4681 -0.1979  0.4069
   33c3c     HC  236   0.284   1.619   1.005  1.6879 -0.1733 -1.3573
   33c3c     HC  237   0.307   1.739   1.129 -0.0146  0.6812 -0.7448
   33c3c     CT  238   0.434   1.549   1.133 -0.2903 -0.0886 -0.1472
   33c3c     HC  239   0.446   1.461   1.069 -3.9594 -0.8059  0.0501
   33c3c     HC  240   0.374   1.516   1.217 -1.6528  1.4567 -0.4944
   33c3c     HC  241   0.527   1.577   1.183 -2.3850  2.5268  2.4868
   34c3c     N4  242   0.649   3.375   3.587 -0.2368  0.6062  0.3961
   34c3c     C1  243   0.694   3.259   3.511 -0.3637 -0.1322  0.2977
   34c3c     C1  244   0.723   3.369   3.718  0.1904  0.1985 -0.0687
   34c3c     C2  245   0.843   3.235   3.555  0.3015  0.5097  0.1647
   34c3c     C2  246   0.852   3.298   3.696 -0.0988  0.6065  0.5270
   34c3c     C1  247   0.698   3.495   3.518  0.2252  0.5892 -0.1818
   34c3c     C1  248   0.500   3.389   3.604 -0.1106  0.1736  0.2821
   34c3c     H1  249   0.689   3.267   3.402  0.4384  1.2183  0.3479
   34c3c     H1  250   0.639   3.171   3.544  1.0812 -1.0291  0.3777
   34c3c     H1  251   0.722   3.467   3.766  0.3902  0.5479 -0.7841
   34c3c     H1  252   0.681   3.293   3.785  2.8059  0.0255  1.4277
   34c3c     HC  253   0.923   3.280   3.496  0.1439  0.1940 -0.2982
   34c3c     HC  254   0.859   3.127   3.555  0.7689  0.5627  2.0565
   34c3c     HC  255   0.931   3.373   3.701  0.0699  0.5174 -0.6715
   34c3c     HC  256   0.878   3.222   3.771  0.3910 -0.1221 -0.3737
   34c3c     H1  257   0.666   3.488   3.414  1.3539 -1.1757 -0.4430
   34c3c     H1  258   0.659   3.589   3.557 -2.7756 -0.9717  0.6874
   34c3c     H1  259   0.807   3.506   3.513  0.3410 -1.2903 -3.4927
   34c3c     H1  260   0.478   3.486   3.648  1.6717  0.1653  1.2170
   34c3c     H1  261   0.441   3.396   3.512 -1.2228  0.9325  1.0458
   34c3c     C2  262   0.420   3.282   3.682  0.2969 -0.2294  0.4078
   34c3c     HC  263   0.465   3.269   3.780  1.5570 -0.7767 -0.2259
   34c3c     HC  264   0.431   3.184   3.635  0.2333  0.3537 -0.8648
   34c3c     CT  265   0.269   3.317   3.703  0.0870  0.8305  0.0674
   34c3c     HC  266   0.233   3.234   3.765 -2.1826  1.5662 -0.2272
   34c3c     HC  267   0.209   3.318   3.612 -0.3705  1.7135  0.3739
   34c3c     HC  268   0.257   3.415   3.750 -0.2789  1.3099 -1.0120
   35c3c     N4  269   1.878   2.373   2.260 -0.1614 -0.0972 -0.1303
   35c3c     C1  270   1.852   2.512   2.231  0.3102  1.0778  0.0962
   35c3c     C1  271   1.801   2.349   2.384 -0.0492  0.2552  0.1281
   35c3c     C2  272   1.703   2.536   2.262  0.4374  0.2242 -0.6181
   35c3c     C2  273   1.670   2.429   2.371 -1.1337  0.0692 -0.3410
   35c3c     C1  274   1.826   2.291   2.150 -0.7874  0.2800  0.3812
   35c3c     C1  275   2.021   2.346   2.270  0.8358 -0.1316  0.7768
   35c3c     H1  276   1.889   2.536   2.131  1.6033 -0.2500  0.2330
   35c3c     H1  277   1.909   2.577   2.298  0.2466  0.4291  0.7867
   35c3c     H1  278   1.782   2.242   2.386  3.1988 -0.3765  1.3062
   35c3c     H1  279   1.856   2.381   2.472  0.1028 -0.8567  0.4412
   35c3c     HC  280   1.638   2.535   2.174 -0.3338  0.7370 -0.0660
   35c3c     HC  281   1.694   2.630   2.316  0.3775 -0.5170  0.6956
   35c3c     HC  282   1.582   2.365   2.357 -2.3047  2.0568 -2.3397
   35c3c     HC  283   1.645   2.489   2.458 -0.6524  0.1393 -0.2531
   35c3c     H1  284   1.866   2.312   2.050  0.7675  0.3838  1.0107
   35c3c     H1  285   1.825   2.185   2.176 -1.8496  0.1656 -0.0699
   35c3c     H1  286   1.721   2.308   2.126 -0.4096  0.2548 -1.3436
   35c3c     H1  287   2.035   2.241   2.294 -2.0299 -0.2811  1.9439
   35c3c     H1  288   2.066   2.361   2.171 -2.6088 -1.5853 -1.0846
   35c3c     C2  289   2.108   2.413   2.375 -0.2599  0.5665 -0.4473
   35c3c     HC  290   2.069   2.390   2.475  0.7775 -0.9873 -0.3710
   35c3c     HC  291   2.119   2.521   2.377  2.0541  0.3766 -1.5175
   35c3c     CT  292   2.245   2.364   2.392 -0.8308 -0.0301 -0.3189
   35c3c     HC  293   2.298   2.421   2.468 -1.5699  1.2146 -0.7142
   35c3c     HC  294   2.301   2.389   2.302 -0.9848  0.8335 -0.1877
   35c3c     HC  295   2.236   2.259   2.420  0.5548 -0.0878 -0.0646
   36c3c     N4  296   0.434   2.902   1.472 -0.1739 -0.7569 -0.4838
   36c3c     C1  297   0.562   2.940   1.534  0.7533  0.3148 -0.0563
   36c3c     C1  298   0.442   2.969   1.348  0.5662 -0.0269 -0.4046
   36c3c     C2  299   0.590   3.087   1.490 -0.5491  0.4090 -0.0985
   36c3c     C2  300   0.502   3.100   1.361 -0.7048 -0.1446 -1.0292
   36c3c     C1  301   0.424   2.756   1.444  0.0955 -0.4685 -0.1345
   36c3c     C1  302   0.315   2.928   1.553  0.2503 -0.1185 -0.2146
   36c3c     H1  303   0.647   2.878   1.504  0.8026 -0.0371  0.8056
   36c3c     H1  304   0.554   2.925   1.642 -0.5445 -0.9816 -0.3252
   36c3c     H1  305   0.505   2.918   1.275  2.4469  0.4483  0.8328
   36c3c     H1  306   0.342   2.969   1.306  0.0075  0.5919  0.9090
   36c3c     HC  307   0.693   3.116   1.472 -0.6912 -0.3004 -2.2409
   36c3c     HC  308   0.559   3.165   1.559  0.8661  0.3175  0.6525
   36c3c     HC  309   0.555   3.122   1.268  2.2163 -2.4496  0.0041
   36c3c     HC  310   0.431   3.182   1.369  0.2450  0.2827  4.8367
   36c3c     H1  311   0.386   2.695   1.526  0.0795  0.0551  0.2500
   36c3c     H1  312   0.354   2.735   1.363  0.1583  0.3879 -0.4163
   36c3c     H1  313   0.522   2.719   1.413  0.2590  0.2118 -0.4459
   36c3c     H1  314   0.227   2.882   1.509 -0.6770  2.1824 -0.8659
   36c3c     H1  315   0.330   2.877   1.648  0.2443  0.1117 -0.0894
   36c3c     C2  316   0.282   3.073   1.593 -0.4700 -0.0037  0.1827
   36c3c     HC  317   0.269   3.130   1.501 -0.8049 -1.8468 -0.9418
   36c3c     HC  318   0.365   3.123   1.643 -0.0642  0.8792 -1.3471
   36c3c     CT  319   0.162   3.071   1.680  0.0411  0.0865  0.5539
   36c3c     HC  320   0.172   2.992   1.754 -1.8403 -0.9491 -0.2361
   36c3c     HC  321   0.072   3.034   1.631  0.5121 -1.0720  0.5435
   36c3c     HC  322   0.158   3.173   1.718  0.4585  0.3534 -0.1209
   37c3c     N4  323   1.040   2.412   0.843 -0.2804  0.4985  0.0722
   37c3c     C1  324   0.931   2.337   0.775  0.2792 -0.3600 -0.4393
   37c3c     C1  325   1.001   2.399   0.987  0.8942  0.0219 -0.3784
   37c3c     C2  326   0.904   2.217   0.870  0.2842  0.0303  0.3268
   37c3c     C2  327   0.949   2.260   1.008  0.3165 -0.0835  0.2470
   37c3c     C1  328   1.176   2.357   0.826  0.2638 -0.5615 -0.1898
   37c3c     C1  329   1.043   2.552   0.791 -0.0979  0.6313 -0.8202
   37c3c     H1  330   0.962   2.306   0.675  0.6262 -1.8464  0.1140
   37c3c     H1  331   0.837   2.392   0.773  0.1407 -0.4943  1.2850
   37c3c     H1  332   1.080   2.430   1.056  2.5298 -0.9156 -1.8093
   37c3c     H1  333   0.915   2.457   1.020  2.3415  3.0810 -1.7674
   37c3c     HC  334   0.967   2.134   0.835 -0.6295 -0.8096  0.6519
   37c3c     HC  335   0.802   2.180   0.870 -0.0135  0.8386 -0.4835
   37c3c     HC  336   1.028   2.195   1.045  1.3572  1.1403  0.1964
   37c3c     HC  337   0.865   2.254   1.077 -0.1639  0.3234 -0.2922
   37c3c     H1  338   1.208   2.363   0.722 -0.2523  1.0434 -0.2663
   37c3c     H1  339   1.238   2.409   0.898  0.9754  0.5907 -1.6016
   37c3c     H1  340   1.170   2.249   0.837 -0.5529 -0.6562 -1.4395
   37c3c     H1  341   1.119   2.601   0.852  0.5842 -1.6816  0.2302
   37c3c     H1  342   1.080   2.548   0.689 -0.3159 -2.0024 -0.8206
   37c3c     C2  343   0.923   2.644   0.803  0.1283 -0.3231  0.0493
   37c3c     HC  344   0.878   2.634   0.902 -1.1350 -1.5772 -0.6424
   37c3c     HC  345   0.836   2.611   0.747  1.2237 -0.9702 -1.3209
   37c3c     CT  346   0.948   2.796   0.781 -0.1808 -0.2433  0.6935
   37c3c     HC  347   1.038   2.835   0.828 -0.6556  1.4518  0.2399
   37c3c     HC  348   0.867   2.856   0.823 -0.9622 -0.9589  0.2401
   37c3c     HC  349   0.944   2.821   0.675  1.2585 -4.1437 -0.3813
   38c3c     N4  350   0.433   2.851   0.691  0.4540 -0.0150  0.2626
   38c3c     C1  351   0.429   2.920   0.563  1.0747  0.0643  0.0124
   38c3c     C1  352   0.561   2.774   0.669  0.1051 -0.6950 -0.0165
   38c3c     C2  353   0.569   2.970   0.531  0.0365  0.3602  0.3569
   38c3c     C2  354   0.660   2.882   0.610  0.0359  0.0517 -0.1746
   38c3c     C1  355   0.441   2.947   0.804 -0.5622 -0.6351  0.2079
   38c3c     C1  356   0.321   2.763   0.710  0.3137  0.4854 -0.1813
   38c3c     H1  357   0.349   2.994   0.564  0.2431 -0.8391  0.9618
   38c3c     H1  358   0.403   2.859   0.476  2.6139  0.2223 -0.5895
   38c3c     H1  359   0.590   2.722   0.760  0.0539 -2.3386 -0.9350
   38c3c     H1  360   0.547   2.698   0.592 -0.0225  0.9242 -1.6469
   38c3c     HC  361   0.585   3.075   0.556  0.6976  0.3812 -0.1477
   38c3c     HC  362   0.583   2.959   0.423  0.4271 -0.8129  0.5221
   38c3c     HC  363   0.701   2.945   0.689  1.5937  1.6874 -2.2201
   38c3c     HC  364   0.738   2.830   0.555  1.7833  0.0988  2.1620
   38c3c     H1  365   0.356   3.014   0.795  0.7900  1.3384  1.6300
   38c3c     H1  366   0.444   2.911   0.907  3.8370  0.0259  0.4385
   38c3c     H1  367   0.523   3.019   0.803 -0.8448 -0.3197 -0.6005
   38c3c     H1  368   0.331   2.718   0.809  0.7247  1.3570  0.1736
   38c3c     H1  369   0.229   2.821   0.714 -1.2361 -1.7198 -1.8907
   38c3c     C2  370   0.289   2.649   0.609 -0.1600 -0.4110 -0.0753
   38c3c     HC  371   0.355   2.565   0.631 -1.1814 -0.9252  1.0846
   38c3c     HC  372   0.307   2.677   0.505 -2.8439  0.7451 -0.2718
   38c3c     CT  373   0.149   2.593   0.612  0.0490 -0.6108 -0.3348
   38c3c     HC  374   0.085   2.668   0.566  1.1778  0.9565  0.6372
   38c3c     HC  375   0.126   2.568   0.716  0.3313 -2.0656 -0.6035
   38c3c     HC  376   0.148   2.499   0.556  2.2667 -1.0644  0.3310
   39c3c     N4  377   1.134   2.512   2.169  0.0330  0.1075  0.0818
   39c3c     C1  378   1.115   2.440   2.046  0.2694  0.4668 -0.0359
   39c3c     C1  379   1.280   2.543   2.176 -0.1074  0.1220  0.6357
   39c3c     C2  380   1.213   2.505   1.946  0.0566  0.0913 -0.7784
   39c3c     C2  381   1.308   2.591   2.036 -0.6485 -1.0972  0.6440
   39c3c     C1  382   1.063   2.640   2.167  0.1818  0.0496  0.1298
   39c3c     C1  383   1.081   2.433   2.284  0.2819 -0.5370  0.9268
   39c3c     H1  384   1.012   2.416   2.021  0.3881 -0.3995  0.2691
   39c3c     H1  385   1.154   2.339   2.060 -0.8274  0.3398  2.2008
   39c3c     H1  386   1.309   2.620   2.248  1.4699 -2.0510  2.4240
   39c3c     H1  387   1.335   2.452   2.198 -0.8699  0.2520  3.2666
   39c3c     HC  388   1.151   2.577   1.893 -1.0061 -0.0543  0.2543
   39c3c     HC  389   1.269   2.441   1.878  1.2279  2.2266 -1.8953
   39c3c     HC  390   1.296   2.699   2.030 -2.2543 -1.2839  0.4348
   39c3c     HC  391   1.413   2.578   2.010 -0.4796 -0.6044  1.0672
   39c3c     H1  392   0.955   2.628   2.162  0.2861 -0.5606 -0.8214
   39c3c     H1  393   1.068   2.700   2.257  0.1068  2.1490 -1.2386
   39c3c     H1  394   1.080   2.708   2.084  1.1689  1.2046  1.2584
   39c3c     H1  395   1.085   2.493   2.375  2.4763 -0.0760  0.5492
   39c3c     H1  396   0.973   2.422   2.277  0.4775 -1.0575 -1.5104
   39c3c     C2  397   1.142   2.294   2.320  0.5029  0.9566 -0.3576
   39c3c     HC  398   1.248   2.318   2.321  0.5595  0.6847  0.7312
   39c3c     HC  399   1.136   2.217   2.243 -0.2286 -0.7057  1.3160
   39c3c     CT  400   1.095   2.229   2.455 -0.1845  0.6411  0.5316
   39c3c     HC  401   1.124   2.294   2.537 -0.2646  1.2044  0.1206
   39c3c     HC  402   1.136   2.128   2.460  2.4361  1.2513 -5.0336
   39c3c     HC  403   0.987   2.214   2.459 -0.0996 -1.1686 -2.3687
   40c3c     N4  404   2.052   2.014   0.930 -0.3251  0.7997  1.0204
   40c3c     C1  405   2.198   2.021   0.916 -0.4546 -0.4864  1.0243
   40c3c     C1  406   2.015   2.149   0.972 -0.3099  0.5218  0.1267
   40c3c     C2  407   2.232   2.158   0.851  0.2113  0.4095 -0.4823
   40c3c     C2  408   2.114   2.240   0.897  0.7718 -0.2033 -0.0537
   40c3c     C1  409   1.988   1.988   0.798  0.2287  0.2858  0.7289
   40c3c     C1  410   2.013   1.905   1.018  0.3622 -0.1418 -0.4807
   40c3c     H1  411   2.245   1.935   0.869  0.1661  0.4316 -0.0573
   40c3c     H1  412   2.250   2.030   1.011 -0.7303 -0.0513  1.1370
   40c3c     H1  413   1.912   2.177   0.949 -0.6535 -0.7347  0.0826
   40c3c     H1  414   2.037   2.152   1.078  0.5712  1.6010 -0.0707
   40c3c     HC  415   2.228   2.156   0.742  0.6304 -0.5725 -0.4869
   40c3c     HC  416   2.330   2.190   0.886  0.5165 -1.8057  0.8386
   40c3c     HC  417   2.054   2.275   0.813 -2.0821 -2.3108  1.0573
   40c3c     HC  418   2.150   2.326   0.954 -0.2588  0.3313 -0.2045
   40c3c     H1  419   2.019   1.893   0.756 -3.3649 -0.0288 -1.3963
   40c3c     H1  420   1.879   1.991   0.806  0.3437  2.3162  1.9620
   40c3c     H1  421   2.010   2.077   0.738 -1.5544  0.7389  0.7137
   40c3c     H1  422   1.908   1.929   1.032  0.9975  1.3455  1.9895
   40c3c     H1  423   2.024   1.807   0.972 -1.5754 -0.3935 -0.4576
   40c3c     C2  424   2.092   1.893   1.157  0.6585  0.5453  0.5981
   40c3c     HC  425   2.109   1.984   1.215 -2.6334  1.3688  0.3947
   40c3c     HC  426   2.197   1.869   1.143  0.4904  0.4617 -0.5158
   40c3c     CT  427   2.014   1.807   1.263 -0.4765  0.0845 -0.4832
   40c3c     HC  428   2.011   1.702   1.233 -1.8283 -0.2669  0.8195
   40c3c     HC  429   1.909   1.835   1.267  0.7185  4.7480  0.1050
   40c3c     HC  430   2.059   1.806   1.362  1.3072 -0.0807 -1.2653
   41c3c     N4  431   1.598   2.319   1.560 -0.5570  0.5056 -0.0499
   41c3c     C1  432   1.611   2.265   1.689 -0.4423 -0.1022 -0.0190
   41c3c     C1  433   1.701   2.422   1.552 -0.1436 -0.1586 -0.5087
   41c3c     C2  434   1.763   2.250   1.714 -0.3130  1.3674  0.6882
   41c3c     C2  435   1.820   2.369   1.633 -0.9689  0.8558  0.0060
   41c3c     C1  436   1.621   2.213   1.461 -0.0048 -0.2627  1.1758
   41c3c     C1  437   1.461   2.368   1.538 -0.6159  0.2773 -0.6657
   41c3c     H1  438   1.563   2.170   1.707  3.1261 -1.9634  0.1690
   41c3c     H1  439   1.590   2.334   1.771  0.3379 -2.4238  2.2038
   41c3c     H1  440   1.717   2.446   1.447 -1.2591  2.0982 -0.1958
   41c3c     H1  441   1.666   2.510   1.607 -0.5017  0.9997 -2.5172
   41c3c     HC  442   1.801   2.155   1.677  1.6819  1.9518  1.1638
   41c3c     HC  443   1.788   2.256   1.820  2.3142  2.9930  0.0304
   41c3c     HC  444   1.899   2.340   1.564  0.1949 -1.6776  2.3307
   41c3c     HC  445   1.854   2.454   1.692  1.9791 -0.0905 -0.2668
   41c3c     H1  446   1.550   2.133   1.479  0.7627 -0.9258  1.3052
   41c3c     H1  447   1.592   2.251   1.363  1.8324 -1.9453 -0.0709
   41c3c     H1  448   1.723   2.175   1.454 -1.1962 -3.1393 -1.7134
   41c3c     H1  449   1.447   2.387   1.432  3.2561 -0.5806 -1.3953
   41c3c     H1  450   1.385   2.292   1.553 -2.5720  2.4604  0.8711
   41c3c     C2  451   1.405   2.501   1.613 -0.3306  0.6180  0.6525
   41c3c     HC  452   1.476   2.579   1.585 -1.8232  1.4257 -1.0134
   41c3c     HC  453   1.415   2.479   1.719  3.0561 -0.7855  0.0812
   41c3c     CT  454   1.260   2.542   1.562 -0.4004 -0.4718  0.2022
   41c3c     HC  455   1.264   2.577   1.459 -1.6115 -0.2029  0.2350
   41c3c     HC  456   1.226   2.634   1.610 -0.2850  0.5994 -1.7323
   41c3c     HC  457   1.199   2.454   1.584 -0.2457 -1.0051 -1.4466
   42c3c     N4  458   1.116   3.310   5.141  0.5210 -1.4186 -0.2551
   42c3c     C1  459   0.994   3.262   5.073 -0.6186 -0.8272 -0.1281
   42c3c     C1  460   1.191   3.374   5.037 -0.9177 -0.0705 -0.1585
   42c3c     C2  461   0.974   3.372   4.965  0.1514  0.5738  0.5286
   42c3c     C2  462   1.103   3.446   4.940 -0.1445  0.5592 -0.2492
   42c3c     C1  463   1.070   3.405   5.248 -0.2458  0.3621  0.3532
   42c3c     C1  464   1.184   3.192   5.206  0.5626  0.4837 -0.0562
   42c3c     H1  465   0.903   3.254   5.133 -1.1230  1.5611 -0.5571
   42c3c     H1  466   1.023   3.171   5.021 -0.2873 -0.2840 -0.8906
   42c3c     H1  467   1.260   3.449   5.075 -0.4450 -0.6808  0.2060
   42c3c     H1  468   1.255   3.303   4.983 -0.4042 -0.0578  0.4288
   42c3c     HC  469   0.903   3.441   5.010 -0.1728  0.2312  0.5407
   42c3c     HC  470   0.931   3.329   4.874  1.9574 -2.2777  0.9487
   42c3c     HC  471   1.089   3.549   4.973 -0.2696  0.5214 -0.1843
   42c3c     HC  472   1.137   3.442   4.836  2.8416 -0.9036  0.7148
   42c3c     H1  473   1.005   3.356   5.321  0.0037 -0.3476  0.1081
   42c3c     H1  474   1.151   3.453   5.303  1.6082 -2.9523  0.6839
   42c3c     H1  475   1.011   3.484   5.202  1.8635  2.2211  0.7686
   42c3c     H1  476   1.273   3.238   5.251  0.0645  1.8632 -0.4772
   42c3c     H1  477   1.109   3.152   5.274 -0.5438 -1.0639 -2.1395
   42c3c     C2  478   1.219   3.069   5.116 -0.7907  0.1579 -1.1689
   42c3c     HC  479   1.287   3.098   5.037 -1.6786 -0.5234 -2.2053
   42c3c     HC  480   1.141   3.018   5.058  0.4534 -0.3946 -2.3656
   42c3c     CT  481   1.285   2.954   5.202  0.1773  0.6491  0.1984
   42c3c     HC  482   1.391   2.978   5.204  0.0337  1.3856 -0.6696
   42c3c     HC  483   1.269   2.853   5.165 -0.4164  1.5275 -1.9777
   42c3c     HC  484   1.256   2.957   5.307 -0.3477  1.8767  0.0278
   43c3c     N4  485   0.956   3.075   2.320  0.2634 -0.0505 -0.2406
   43c3c     C1  486   1.096   3.038   2.310  1.0051  0.2543  0.5274
   43c3c     C1  487   0.939   3.152   2.199  0.5026 -0.5295  0.3419
   43c3c     C2  488   1.126   3.012   2.162  0.3162 -0.1549 -0.9441
   43c3c     C2  489   1.008   3.072   2.089 -0.6934  0.1632 -0.5629
   43c3c     C1  490   0.871   2.957   2.329  0.3439  0.1478  0.0962
   43c3c     C1  491   0.920   3.149   2.441 -0.2672  0.7935  0.2892
   43c3c     H1  492   1.129   2.964   2.383 -2.3886 -2.0876 -0.2118
   43c3c     H1  493   1.166   3.121   2.322  1.6960  0.0710 -1.9568
   43c3c     H1  494   0.835   3.175   2.177  0.6986 -0.7067 -0.7804
   43c3c     H1  495   0.984   3.251   2.210  0.0287 -0.3552  0.7055
   43c3c     HC  496   1.125   2.903   2.149 -0.9839 -0.2663 -0.0186
   43c3c     HC  497   1.217   3.063   2.130  0.3836 -0.0322 -0.5555
   43c3c     HC  498   0.944   2.988   2.061 -3.2772  1.8429  0.1233
   43c3c     HC  499   1.045   3.136   2.010 -0.7394  0.4597 -0.3471
   43c3c     H1  500   0.910   2.902   2.414  0.4757 -0.0528 -0.0936
   43c3c     H1  501   0.766   2.982   2.344  0.2395 -1.7521  2.8315
   43c3c     H1  502   0.880   2.885   2.248 -0.5171 -1.3587  1.3311
   43c3c     H1  503   0.821   3.194   2.437 -1.2524 -0.9339  3.4035
   43c3c     H1  504   0.921   3.081   2.527 -0.5516 -0.5755 -0.7714
   43c3c     C2  505   1.018   3.264   2.480  0.5902 -0.1687  0.1340
   43c3c     HC  506   1.053   3.332   2.403 -1.9721  3.2421  1.8929
   43c3c     HC  507   1.115   3.228   2.516 -0.4037 -1.7625  1.3027
   43c3c     CT  508   0.954   3.350   2.587 -0.3325  0.8058  0.1857
   43c3c     HC  509   0.910   3.284   2.661  0.2398 -2.2980 -2.1321
   43c3c     HC  510   0.878   3.420   2.552 -0.6162  0.0608 -0.6915
   43c3c     HC  511   1.018   3.415   2.646 -0.2139  0.3923  0.5153
   44c3c     N4  512   2.355   1.665   1.758 -0.0036 -0.2123 -0.0153
   44c3c     C1  513   2.254   1.584   1.836 -0.5940 -0.2923  0.1046
   44c3c     C1  514   2.402   1.564   1.656 -0.1463  0.4079 -0.3410
   44c3c     C2  515   2.188   1.489   1.733  0.5944 -0.4577 -0.2604
   44c3c     C2  516   2.280   1.485   1.612  0.2662 -0.3169 -0.1957
   44c3c     C1  517   2.276   1.773   1.693 -0.2258  0.1910 -0.2417
   44c3c     C1  518   2.457   1.742   1.832 -0.2640  0.7510  0.3263
   44c3c     H1  519   2.177   1.655   1.867  0.5483  1.3295 -0.7403
   44c3c     H1  520   2.287   1.513   1.912 -1.1825 -0.0861  0.5585
   44c3c     H1  521   2.447   1.607   1.566  0.2954 -2.5852 -1.6031
   44c3c     H1  522   2.475   1.495   1.697  0.5934  1.5942  0.3683
   44c3c     HC  523   2.085   1.514   1.708  0.6495 -0.9748 -1.0213
   44c3c     HC  524   2.190   1.394   1.787  0.0260 -1.4285 -1.9107
   44c3c     HC  525   2.225   1.535   1.532 -0.3465  0.4957  0.7278
   44c3c     HC  526   2.316   1.384   1.593  0.8511  0.1849 -1.8503
   44c3c     H1  527   2.241   1.845   1.766 -1.3309 -0.7700  0.1917
   44c3c     H1  528   2.331   1.831   1.619  1.7521 -0.7855  0.4030
   44c3c     H1  529   2.184   1.738   1.647 -0.5626  0.7747 -0.0048
   44c3c     H1  530   2.524   1.794   1.762  2.4845  0.2037  2.4633
   44c3c     H1  531   2.412   1.818   1.896 -1.5920 -0.0860  0.3866
   44c3c     C2  532   2.549   1.645   1.916  0.0209 -0.0646 -0.4161
   44c3c     HC  533   2.622   1.585   1.861 -0.2889  1.1452 -2.1553
   44c3c     HC  534   2.487   1.581   1.979 -1.6686  2.2699  0.3505
   44c3c     CT  535   2.618   1.730   2.021 -0.0657  0.4609  0.3145
   44c3c     HC  536   2.693   1.790   1.970  2.7441 -1.6183  1.8068
   44c3c     HC  537   2.680   1.670   2.088  1.5274  1.0630 -0.5804
   44c3c     HC  538   2.558   1.791   2.088  1.7538  0.6259  1.8307
   45c3c     N4  539   1.258   3.653   0.784 -0.6118  0.0975 -0.8032
   45c3c     C1  540   1.177   3.565   0.870 -0.0561 -0.3149 -0.1011
   45c3c     C1  541   1.351   3.725   0.879 -0.2868  0.3319  0.2362
   45c3c     C2  542   1.284   3.506   0.964 -0.1336  0.6683 -0.0224
   45c3c     C2  543   1.385   3.612   0.985 -0.0161 -0.0006 -0.1125
   45c3c     C1  544   1.338   3.571   0.687 -0.2368 -0.4602  0.2249
   45c3c     C1  545   1.184   3.757   0.712 -0.7085 -0.5324 -0.2916
   45c3c     H1  546   1.120   3.489   0.816 -2.0735 -0.7337  2.5539
   45c3c     H1  547   1.100   3.619   0.925  1.1989  0.2837  1.0816
   45c3c     H1  548   1.441   3.757   0.826  0.3768 -2.0696 -0.1477
   45c3c     H1  549   1.305   3.806   0.935  0.3555  0.0613  1.1816
   45c3c     HC  550   1.323   3.413   0.921 -0.0083  1.3800 -1.4544
   45c3c     HC  551   1.220   3.477   1.047 -0.4364  2.2731  0.3185
   45c3c     HC  552   1.479   3.566   0.955  0.2221  1.6152 -2.0082
   45c3c     HC  553   1.380   3.649   1.087 -1.0750 -1.2527  0.3009
   45c3c     H1  554   1.280   3.510   0.617 -1.9889 -1.8167  2.7901
   45c3c     H1  555   1.397   3.639   0.625  1.0791 -2.6299 -0.9756
   45c3c     H1  556   1.405   3.498   0.733 -0.2185  0.2322  1.3076
   45c3c     H1  557   1.261   3.829   0.682 -0.5527 -0.6409 -0.1544
   45c3c     H1  558   1.123   3.720   0.629 -0.7495 -0.8727 -0.1072
   45c3c     C2  559   1.072   3.832   0.795 -0.4606  0.2390  0.1859
   45c3c     HC  560   1.082   3.847   0.902 -0.8075 -2.1618  0.5762
   45c3c     HC  561   0.978   3.779   0.780  0.0437 -0.8197  0.7489
   45c3c     CT  562   1.043   3.962   0.714 -0.2503 -0.3803  0.0401
   45c3c     HC  563   0.957   4.007   0.765  0.0201 -0.6559  0.7559
   45c3c     HC  564   1.024   3.946   0.608 -2.3334 -0.3122  0.3861
   45c3c     HC  565   1.126   4.032   0.731 -0.5350 -0.0040 -0.1041
   46c3c     N4  566   2.075   3.060   1.643  0.1020  0.8606 -0.1160
   46c3c     C1  567   1.961   2.991   1.714 -0.1260 -0.5710 -0.2852
   46c3c     C1  568   2.116   3.162   1.741 -0.8693 -0.1449  1.1142
   46c3c     C2  569   2.025   2.962   1.848  0.0649 -0.4851 -0.5090
   46c3c     C2  570   2.124   3.083   1.870  1.2638 -0.0336  0.0506
   46c3c     C1  571   2.186   2.973   1.597  0.5535 -0.8062  1.0402
   46c3c     C1  572   2.027   3.119   1.517  0.2444 -0.3704  0.6378
   46c3c     H1  573   1.930   2.900   1.662 -0.6806  0.9593 -2.7041
   46c3c     H1  574   1.867   3.044   1.726  0.6476  0.8743 -0.5460
   46c3c     H1  575   2.211   3.211   1.721 -1.5347  0.5895 -0.3048
   46c3c     H1  576   2.049   3.247   1.745 -1.9381 -0.9484  0.6328
   46c3c     HC  577   2.084   2.870   1.849 -1.0425 -1.2196 -1.8475
   46c3c     HC  578   1.957   2.945   1.931 -1.2479  0.8191 -1.2979
   46c3c     HC  579   2.225   3.047   1.889  0.9707 -0.5018  0.7257
   46c3c     HC  580   2.085   3.128   1.961  0.6752  0.6906 -0.5511
   46c3c     H1  581   2.151   2.884   1.545  0.4276 -0.5393  0.6659
   46c3c     H1  582   2.243   3.029   1.524 -1.1951 -0.8640 -0.3847
   46c3c     H1  583   2.248   2.932   1.677 -0.9224  1.6668  3.5592
   46c3c     H1  584   2.103   3.188   1.479 -0.1312 -0.1506  0.2838
   46c3c     H1  585   2.013   3.047   1.437 -1.2819  0.7791 -0.1652
   46c3c     C2  586   1.889   3.205   1.508 -0.2864  0.1652 -0.0500
   46c3c     HC  587   1.863   3.266   1.595 -2.1992 -2.1404  1.0782
   46c3c     HC  588   1.809   3.132   1.496 -0.7262  0.9608 -2.0812
   46c3c     CT  589   1.889   3.288   1.374 -0.6079 -0.1168 -0.6655
   46c3c     HC  590   1.959   3.368   1.396 -0.6080 -0.6665  1.4833
   46c3c     HC  591   1.795   3.333   1.345 -0.8460 -1.1326 -1.4711
   46c3c     HC  592   1.923   3.223   1.294 -1.6407 -1.4114 -0.0776
   47c3c     N4  593   3.096   2.162   1.741 -0.1458 -0.1922  0.2980
   47c3c     C1  594   3.065   2.247   1.633  0.4546 -1.0874  0.1078
   47c3c     C1  595   3.174   2.245   1.838 -0.0788 -0.7197  0.4269
   47c3c     C2  596   3.051   2.390   1.691 -0.2816  0.3706  0.1829
   47c3c     C2  597   3.114   2.389   1.828 -0.1213 -0.0385 -0.2282
   47c3c     C1  598   2.964   2.121   1.800  0.2359 -0.2172  1.1038
   47c3c     C1  599   3.169   2.040   1.705  0.6038  0.3424 -0.4110
   47c3c     H1  600   2.985   2.223   1.563  1.2862  0.8715 -1.5525
   47c3c     H1  601   3.156   2.254   1.574  0.3158  2.5987  0.2173
   47c3c     H1  602   3.177   2.208   1.940 -1.1594  0.9034  1.0663
   47c3c     H1  603   3.278   2.251   1.807 -0.1448 -0.0344  0.3188
   47c3c     HC  604   2.947   2.417   1.707 -0.3040 -0.2857  1.1956
   47c3c     HC  605   3.087   2.467   1.622  2.3987  0.1961  1.3017
   47c3c     HC  606   3.050   2.409   1.914 -1.1047  0.8251 -1.1655
   47c3c     HC  607   3.192   2.465   1.836  1.7194 -1.9285  0.4914
   47c3c     H1  608   2.915   2.055   1.729  0.8250  0.0309  0.4670
   47c3c     H1  609   2.984   2.064   1.892  1.3696  0.6599  1.4158
   47c3c     H1  610   2.890   2.198   1.820 -2.5891 -1.6159 -3.2846
   47c3c     H1  611   3.172   1.967   1.786  0.0475 -0.4482 -1.0967
   47c3c     H1  612   3.111   1.991   1.627 -0.2108  0.2748  0.2303
   47c3c     C2  613   3.306   2.052   1.633  0.1085  0.3416 -1.0827
   47c3c     HC  614   3.390   2.077   1.698 -0.6493 -1.0258  0.4759
   47c3c     HC  615   3.321   2.126   1.555 -0.1526 -0.2042 -1.6484
   47c3c     CT  616   3.330   1.917   1.567  0.5024 -0.3169 -0.1570
   47c3c     HC  617   3.253   1.883   1.498 -0.1693  2.2366 -0.7328
   47c3c     HC  618   3.358   1.848   1.647  0.3274  0.6524  0.7585
   47c3c     HC  619   3.412   1.940   1.498 -0.3677  0.0472 -1.0796
   48c3c     N4  620   1.081   2.049   0.103 -0.5861  0.7456  0.4034
   48c3c     C1  621   1.036   1.905   0.099 -0.0043 -0.0385  0.3353
   48c3c     C1  622   0.965   2.129   0.149  0.5693 -0.2422  0.1873
   48c3c     C2  623   0.888   1.910   0.067 -0.3812  0.7407  0.9635
   48c3c     C2  624   0.844   2.055   0.091  0.4503  0.2044  1.2989
   48c3c     C1  625   1.192   2.077   0.204  0.8456  0.5878 -0.6037
   48c3c     C1  626   1.113   2.088  -0.035 -0.8971 -0.3256 -0.6859
   48c3c     H1  627   1.055   1.853   0.193  0.3195 -0.7878 -0.1465
   48c3c     H1  628   1.099   1.852   0.028 -1.2600 -0.9540 -0.1106
   48c3c     H1  629   0.946   2.121   0.256 -0.8660 -1.3641 -0.1285
   48c3c     H1  630   0.982   2.231   0.115 -0.2072  0.0281  0.6185
   48c3c     HC  631   0.827   1.835   0.119  0.8214  0.9535  2.7269
   48c3c     HC  632   0.869   1.881  -0.036 -0.6756  3.5757  0.1875
   48c3c     HC  633   0.761   2.049   0.161 -2.5422 -2.4917 -2.2724
   48c3c     HC  634   0.808   2.110   0.003  0.6728  1.5878  2.0610
   48c3c     H1  635   1.288   2.025   0.194  0.5757  0.1180 -0.7907
   48c3c     H1  636   1.213   2.183   0.202 -1.5711  1.0863 -0.8685
   48c3c     H1  637   1.148   2.073   0.303  2.0088 -0.9321 -0.1173
   48c3c     H1  638   1.038   2.064  -0.111  0.3775 -0.6053 -1.8856
   48c3c     H1  639   1.115   2.197  -0.031 -1.4987 -0.4089  3.0151
   48c3c     C2  640   1.252   2.046  -0.101 -0.2373 -0.2478 -0.3643
   48c3c     HC  641   1.256   1.938  -0.114  0.8219  0.1203 -3.3109
   48c3c     HC  642   1.330   2.086  -0.035 -0.2745  0.6943 -0.8871
   48c3c     CT  643   1.265   2.105  -0.243 -0.1472  0.3921 -0.0797
   48c3c     HC  644   1.366   2.086  -0.278 -0.5210 -0.8453 -0.4956
   48c3c     HC  645   1.246   2.213  -0.244 -0.2874  0.3845  1.1191
   48c3c     HC  646   1.197   2.051  -0.309 -0.2520  0.6406 -0.1774
   49c3c     N4  647   0.948   2.135   1.513 -0.0696 -0.4736  0.5591
   49c3c     C1  648   1.030   2.252   1.561 -0.0103 -0.0771  0.3273
   49c3c     C1  649   0.893   2.097   1.635  0.0500  0.5070 -0.4888
   49c3c     C2  650   0.963   2.334   1.670  0.0753 -0.4164 -1.0993
   49c3c     C2  651   0.861   2.234   1.710  0.2285  0.3151  0.5884
   49c3c     C1  652   0.850   2.190   1.416  0.3331 -0.2943  0.6321
   49c3c     C1  653   1.017   2.028   1.439 -0.2643  0.1232 -0.7763
   49c3c     H1  654   1.056   2.317   1.478  0.1004 -1.0712 -0.4209
   49c3c     H1  655   1.125   2.213   1.598 -0.9559  0.0569  2.9742
   49c3c     H1  656   0.802   2.037   1.632 -0.1293  0.7111  0.6953
   49c3c     H1  657   0.971   2.057   1.699  0.6291 -0.3657 -1.7347
   49c3c     HC  658   0.919   2.428   1.639 -0.8950 -0.7726 -0.8341
   49c3c     HC  659   1.033   2.348   1.752 -1.1124  1.5733 -0.4255
   49c3c     HC  660   0.765   2.267   1.668  0.4087 -0.1501 -0.1978
   49c3c     HC  661   0.859   2.228   1.819 -0.5097 -0.4544  0.5410
   49c3c     H1  662   0.899   2.226   1.325 -1.6069  0.2970 -0.1866
   49c3c     H1  663   0.781   2.112   1.384 -0.0695 -0.6248  2.2680
   49c3c     H1  664   0.779   2.265   1.449 -0.1965 -0.3558 -0.3371
   49c3c     H1  665   0.938   1.955   1.421  0.6186 -2.2563  3.9882
   49c3c     H1  666   1.053   2.058   1.341  2.0886  1.0112  0.2967
   49c3c     C2  667   1.139   1.953   1.507 -0.3468  0.3201 -0.4121
   49c3c     HC  668   1.125   1.904   1.604  5.2355  0.3740  0.5857
   49c3c     HC  669   1.220   2.026   1.513 -0.8895  1.0234 -1.5763
   49c3c     CT  670   1.178   1.842   1.403  0.1103 -0.0173 -0.7849
   49c3c     HC  671   1.282   1.809   1.405  0.4717  1.1568  0.2114
   49c3c     HC  672   1.158   1.850   1.296  0.3319 -0.2715 -0.8455
   49c3c     HC  673   1.115   1.754   1.420 -0.5380  0.5125 -0.4460
   50c3c     N4  674   0.618   3.178   4.579 -0.0507 -0.7201  0.1267
   50c3c     C1  675   0.679   3.192   4.443  0.1548  0.0719 -0.3497
   50c3c     C1  676   0.469   3.165   4.564 -0.7041  0.0956 -0.2517
   50c3c     C2  677   0.571   3.125   4.354 -0.1184 -0.8104 -0.0964
   50c3c     C2  678   0.443   3.174   4.418  0.5974 -0.3641  0.3901
   50c3c     C1  679   0.663   3.050   4.644 -0.6920  0.0081 -0.0000
   50c3c     C1  680   0.662   3.282   4.671  0.0697 -0.3864  0.1172
   50c3c     H1  681   0.779   3.148   4.437  0.4268  0.4701  1.0420
   50c3c     H1  682   0.676   3.295   4.407 -3.5548 -0.2215 -1.0145
   50c3c     H1  683   0.435   3.068   4.601  0.9693  0.6655  2.9319
   50c3c     H1  684   0.416   3.244   4.616 -0.4920  1.0374 -1.4462
   50c3c     HC  685   0.578   3.017   4.348  0.5777 -0.7758  0.0062
   50c3c     HC  686   0.570   3.150   4.248 -1.7757 -0.7883 -0.0912
   50c3c     HC  687   0.350   3.127   4.387  0.8129 -1.8973  2.0324
   50c3c     HC  688   0.430   3.279   4.390  0.3198 -0.9660 -1.8909
   50c3c     H1  689   0.768   3.056   4.674 -1.0746  0.6780  1.2538
   50c3c     H1  690   0.619   3.037   4.743  0.0059  0.3829  0.3718
   50c3c     H1  691   0.644   2.963   4.581  0.7366  0.1241 -0.6162
   50c3c     H1  692   0.623   3.253   4.768 -0.4457 -0.9401 -0.2581
   50c3c     H1  693   0.771   3.278   4.674  0.1604  0.9283 -0.9210
   50c3c     C2  694   0.618   3.428   4.648 -0.0032  0.1985 -0.2264
   50c3c     HC  695   0.510   3.440   4.655  0.1592  0.7074  1.6035
   50c3c     HC  696   0.662   3.459   4.553 -0.1372 -0.1655 -0.4059
   50c3c     CT  697   0.669   3.531   4.748 -0.4982  0.1732  0.1458
   50c3c     HC  698   0.776   3.543   4.731 -0.5070 -0.9411 -0.7657
   50c3c     HC  699   0.653   3.499   4.850  2.2053 -1.0552  0.2234
   50c3c     HC  700   0.607   3.621   4.740 -0.7770 -0.0297  0.0154
   51fsi    FSI  701   1.760   2.734   1.755  0.2229  0.5158 -0.1136
   51fsi    SBT  702   1.666   2.723   1.880 -0.0817 -0.1115  0.0509
   51fsi    NBT  703   1.524   2.736   1.814 -0.0654  0.3126 -0.2979
   51fsi    OBT  704   1.689   2.586   1.917  0.1269  0.4727  0.3094
   51fsi    OBT  705   1.709   2.832   1.966  0.5554 -0.0353  0.1298
   51fsi    SBT  706   1.430   2.870   1.806 -0.2052  0.0234  0.2841
   51fsi    OBT  707   1.470   2.979   1.895  1.0670 -0.1824 -0.4246
   51fsi    OBT  708   1.287   2.846   1.794 -0.5005  0.0389  0.3991
   51fsi    FSI  709   1.483   2.935   1.667 -0.4038  0.6379  0.1681
   52fsi    FSI  710   2.410   2.983   1.079  0.0919  0.1440 -0.0012
   52fsi    SBT  711   2.359   2.999   1.235 -0.1493 -0.3945 -0.2306
   52fsi    NBT  712   2.408   3.142   1.286 -0.1209  0.4819 -0.3287
   52fsi    OBT  713   2.213   2.980   1.227 -0.0975 -0.2452  0.0056
   52fsi    OBT  714   2.428   2.889   1.294  0.6527 -0.2314  0.5552
   52fsi    SBT  715   2.539   3.176   1.372  0.1303  0.0241  0.3936
   52fsi    OBT  716   2.650   3.080   1.371  0.2613 -0.5403  0.0840
   52fsi    OBT  717   2.499   3.238   1.489  0.0681  0.1306  0.1541
   52fsi    FSI  718   2.604   3.295   1.291 -0.4507 -0.3525  0.1973
   53fsi    FSI  719   0.640   2.452   0.449  0.0487  0.2074 -0.0133
   53fsi    SBT  720   0.680   2.552   0.348  0.2451  0.0166 -0.2103
   53fsi    NBT  721   0.542   2.631   0.327 -0.3856 -0.7361  0.3530
   53fsi    OBT  722   0.781   2.635   0.413  0.1978  0.2147  0.0257
   53fsi    OBT  723   0.714   2.464   0.235 -0.2923 -0.1522  0.3655
   53fsi    SBT  724   0.440   2.631   0.204  0.1237  0.1409  0.1947
   53fsi    OBT  725   0.490   2.579   0.078 -0.3259  0.1812  0.0958
   53fsi    OBT  726   0.355   2.747   0.198 -0.7279 -0.1459  0.1184
   53fsi    FSI  727   0.332   2.525   0.255 -0.1193 -0.5968  0.0531
   54fsi    FSI  728   0.986   2.820   5.026  0.6503  0.0561  0.5279
   54fsi    SBT  729   0.833   2.853   5.012 -0.2983  0.0897  0.0371
   54fsi    NBT  730   0.764   2.780   5.133 -0.4435 -0.2360 -0.2536
   54fsi    OBT  731   0.831   3.001   5.018 -0.2060 -0.2013  0.3083
   54fsi    OBT  732   0.792   2.788   4.888  0.7299  0.4685 -0.5250
   54fsi    SBT  733   0.755   2.838   5.283 -0.4529  0.1011 -0.1073
   54fsi    OBT  734   0.803   2.735   5.373  0.3581  0.4114 -0.6091
   54fsi    OBT  735   0.641   2.920   5.314 -0.5407  0.2018 -0.0892
   54fsi    FSI  736   0.879   2.943   5.284 -0.0204 -0.4919 -0.1736
   55fsi    FSI  737   0.430   3.355   4.987  0.3348  0.0275 -0.1042
   55fsi    SBT  738   0.519   3.241   5.047 -0.1300 -0.0490  0.1489
   55fsi    NBT  739   0.494   3.122   4.956 -0.1492 -0.2694 -0.2332
   55fsi    OBT  740   0.657   3.294   5.037 -0.7182 -0.5042 -0.1286
   55fsi    OBT  741   0.463   3.215   5.178  0.1231  0.0103  0.0586
   55fsi    SBT  742   0.419   2.977   4.982 -0.2026 -0.2195 -0.3435
   55fsi    OBT  743   0.395   2.935   5.118 -0.5600 -0.3707  0.1476
   55fsi    OBT  744   0.466   2.879   4.890  0.6240  0.5694  0.1219
   55fsi    FSI  745   0.267   3.002   4.927  0.3079  0.0999  0.1676
   56fsi    FSI  746   0.935   2.771   4.568  0.4866 -0.0236  0.3188
   56fsi    SBT  747   0.976   2.893   4.474 -0.0087 -0.5017 -0.2110
   56fsi    NBT  748   0.998   3.007   4.584 -0.7548 -0.8144  0.2895
   56fsi    OBT  749   1.093   2.845   4.410 -0.0585 -0.1980 -0.3096
   56fsi    OBT  750   0.862   2.925   4.399 -0.3976 -0.1355 -0.6675
   56fsi    SBT  751   1.138   3.053   4.651 -0.2945  0.0962 -0.1208
   56fsi    OBT  752   1.114   3.137   4.765  0.8031 -0.1584 -0.3415
   56fsi    OBT  753   1.235   3.090   4.551 -0.0643 -0.5822 -0.1458
   56fsi    FSI  754   1.197   2.915   4.704 -0.1052 -0.2615  0.3372
   57fsi    FSI  755   1.470   1.975   2.126 -0.5269 -0.1035 -0.4612
   57fsi    SBT  756   1.443   2.124   2.074 -0.1092  0.6299 -0.1930
   57fsi    NBT  757   1.297   2.120   2.023  0.5074 -0.2150 -0.3824
   57fsi    OBT  758   1.452   2.206   2.193 -0.2934  0.1773 -0.2409
   57fsi    OBT  759   1.540   2.136   1.973 -0.1507  0.2387 -0.4643
   57fsi    SBT  760   1.234   2.079   1.889 -0.0082 -0.1752 -0.5197
   57fsi    OBT  761   1.302   2.089   1.760  0.0376  0.5270 -0.2066
   57fsi    OBT  762   1.102   2.131   1.892  0.2396  0.1381 -0.0635
   57fsi    FSI  763   1.207   1.919   1.905 -0.0558 -0.5561  0.6306
   58fsi    FSI  764   1.256   1.985   1.076 -0.5099 -0.1017  0.8350
   58fsi    SBT  765   1.353   2.109   1.039  0.3451 -0.1583  0.5691
   58fsi    NBT  766   1.479   2.076   1.125  0.4683 -0.0227 -0.0449
   58fsi    OBT  767   1.378   2.104   0.897  0.6465 -0.3316  0.0833
   58fsi    OBT  768   1.280   2.221   1.088 -0.6663  0.0396  0.2303
   58fsi    SBT  769   1.619   2.020   1.085  0.1379 -0.0302  0.5062
   58fsi    OBT  770   1.724   2.056   1.171 -0.0753 -0.3897 -0.3587
   58fsi    OBT  771   1.647   2.037   0.942  0.4203 -0.3457 -0.6074
   58fsi    FSI  772   1.613   1.865   1.096  0.0140  0.5987  0.1714
   59fsi    FSI  773   1.271   2.823   0.873 -0.0217  0.3374  0.1365
   59fsi    SBT  774   1.421   2.783   0.870 -0.2864  0.1457  0.1425
   59fsi    NBT  775   1.416   2.634   0.818  1.0256 -0.0245 -0.2478
   59fsi    OBT  776   1.480   2.878   0.781  0.0463 -0.4899  0.0048
   59fsi    OBT  777   1.456   2.788   1.008 -0.2655  0.3561 -0.4137
   59fsi    SBT  778   1.491   2.564   0.693 -0.1107  0.0046  0.0082
   59fsi    OBT  779   1.468   2.420   0.690  0.4264 -0.4457  0.1779
   59fsi    OBT  780   1.626   2.613   0.675 -0.6234 -0.3016 -0.1816
   59fsi    FSI  781   1.401   2.626   0.572 -0.2891  0.3895 -0.2540
   60fsi    FSI  782   1.442   3.273   1.164  0.6781 -0.0150  0.0010
   60fsi    SBT  783   1.375   3.156   1.087 -0.1046  0.7994 -0.5862
   60fsi    NBT  784   1.398   3.033   1.174  0.0968 -0.1589 -0.1965
   60fsi    OBT  785   1.239   3.197   1.085  0.1436 -0.1920  0.0893
   60fsi    OBT  786   1.445   3.155   0.958  0.4828 -0.2609 -0.3050
   60fsi    SBT  787   1.337   2.999   1.317  0.0441  0.2502  0.2080
   60fsi    OBT  788   1.365   2.861   1.354  0.0753 -0.6226  0.0545
   60fsi    OBT  789   1.217   3.064   1.364 -0.8604 -0.3681 -0.1777
   60fsi    FSI  790   1.455   3.066   1.405 -0.1498 -0.3251  0.0146
   61fsi    FSI  791   0.640   1.511   0.135 -0.1229  0.1545 -0.2381
   61fsi    SBT  792   0.589   1.652   0.085 -0.3634 -0.2060 -0.2625
   61fsi    NBT  793   0.438   1.632   0.057 -0.1517  0.0180 -0.2173
   61fsi    OBT  794   0.623   1.748   0.190 -0.1797 -0.7340  0.0187
   61fsi    OBT  795   0.655   1.669  -0.040 -0.1693 -0.7228  0.1601
   61fsi    SBT  796   0.318   1.685   0.145  0.1170 -0.3612 -0.0721
   61fsi    OBT  797   0.212   1.718   0.056  0.7035 -0.2123  0.2421
   61fsi    OBT  798   0.342   1.782   0.248 -0.3581  0.1416 -0.0038
   61fsi    FSI  799   0.259   1.560   0.228  0.1597 -0.2975 -0.0291
   62fsi    FSI  800   2.034   1.989   2.235 -0.1113 -0.0196 -0.2131
   62fsi    SBT  801   2.114   1.963   2.098  0.6923 -0.1365  0.0950
   62fsi    NBT  802   2.029   1.862   2.012 -0.5335 -0.0759  0.4384
   62fsi    OBT  803   2.120   2.102   2.042  0.8429  0.0673 -0.1994
   62fsi    OBT  804   2.238   1.908   2.141 -0.6086  0.0715 -0.4417
   62fsi    SBT  805   1.972   1.862   1.860 -0.0794  0.1469  0.0403
   62fsi    OBT  806   1.955   1.725   1.815 -0.0197  0.3659 -0.4861
   62fsi    OBT  807   2.039   1.954   1.774 -1.1843  0.0006  0.3536
   62fsi    FSI  808   1.822   1.917   1.867  0.3667  0.1794 -0.2534
   63fsi    FSI  809   0.402   3.174   2.170 -0.0189 -0.4164  0.3304
   63fsi    SBT  810   0.547   3.116   2.177  0.3115 -0.4969  0.2134
   63fsi    NBT  811   0.622   3.198   2.061 -0.3521 -0.4553  0.7144
   63fsi    OBT  812   0.598   3.159   2.303 -0.1706 -0.2720  0.1540
   63fsi    OBT  813   0.524   2.975   2.160 -0.1594 -0.2218 -0.1835
   63fsi    SBT  814   0.613   3.158   1.905 -0.4118  0.2187  0.1397
   63fsi    OBT  815   0.520   3.053   1.874  0.4313  0.2960  0.1398
   63fsi    OBT  816   0.745   3.168   1.847 -0.0221  0.1712  0.1680
   63fsi    FSI  817   0.551   3.287   1.842 -0.2547 -0.3769  0.1908
   64fsi    FSI  818   2.952   1.368   1.526 -0.0149 -0.4517 -0.4125
   64fsi    SBT  819   2.842   1.484   1.510 -0.1850 -0.1421  0.1613
   64fsi    NBT  820   2.866   1.579   1.635  0.4329  0.0361 -0.6478
   64fsi    OBT  821   2.885   1.551   1.390  0.3652 -0.2583 -0.0120
   64fsi    OBT  822   2.719   1.413   1.515 -0.0015 -0.6534 -0.5275
   64fsi    SBT  823   2.914   1.731   1.653  0.1767  0.1066 -0.2869
   64fsi    OBT  824   2.870   1.788   1.779  0.1033  0.0059 -0.1175
   64fsi    OBT  825   2.903   1.810   1.529 -0.0644  0.6885 -0.3023
   64fsi    FSI  826   3.069   1.710   1.676 -0.1273 -0.0610  0.1957
   65fsi    FSI  827   0.369   3.144   3.309 -0.3250  0.0717 -0.0335
   65fsi    SBT  828   0.435   3.226   3.201  0.0933  0.2047 -0.1041
   65fsi    NBT  829   0.437   3.371   3.263 -0.0953 -0.1783  0.2115
   65fsi    OBT  830   0.564   3.160   3.191 -0.1957  0.2948 -0.2766
   65fsi    OBT  831   0.346   3.209   3.092  0.0722  0.0076  0.1941
   65fsi    SBT  832   0.383   3.514   3.226 -0.1961 -0.1496 -0.1135
   65fsi    OBT  833   0.351   3.542   3.088  0.0267 -0.5319  0.4716
   65fsi    OBT  834   0.453   3.616   3.292  0.0300  0.1644 -0.1958
   65fsi    FSI  835   0.238   3.517   3.293  0.1085 -0.3239 -0.0377
   66fsi    FSI  836   2.389   1.755   1.313 -0.0658 -0.1267 -0.2989
   66fsi    SBT  837   2.498   1.813   1.212  0.0027 -0.7166  0.0540
   66fsi    NBT  838   2.522   1.959   1.262  0.0650 -0.1047 -0.5316
   66fsi    OBT  839   2.611   1.730   1.236 -0.0247 -0.3067 -0.3307
   66fsi    OBT  840   2.437   1.815   1.085 -0.2988 -0.1323  0.6300
   66fsi    SBT  841   2.645   2.039   1.316  0.3331  0.2034 -0.3441
   66fsi    OBT  842   2.627   2.184   1.332  0.7679 -0.0556  0.3731
   66fsi    OBT  843   2.768   1.991   1.263 -0.3084  0.5856 -0.4301
   66fsi    FSI  844   2.657   1.991   1.464  0.0293 -0.2820 -0.2998
   67fsi    FSI  845   1.169   3.082   0.780 -0.3860 -0.1939  0.2437
   67fsi    SBT  846   1.223   3.151   0.647  0.0948 -0.1719 -0.1088
   67fsi    NBT  847   1.216   3.031   0.548  0.1382 -0.3290  0.1578
   67fsi    OBT  848   1.129   3.254   0.622  0.3296 -0.1196 -0.0568
   67fsi    OBT  849   1.360   3.175   0.673 -0.7925 -0.1481 -0.3417
   67fsi    SBT  850   1.135   3.014   0.420  0.4691 -0.3756 -0.1606
   67fsi    OBT  851   1.092   3.133   0.357 -0.1137  0.2017  0.1610
   67fsi    OBT  852   1.046   2.900   0.432 -0.1748  0.1659 -0.2550
   67fsi    FSI  853   1.250   2.967   0.321  0.1371  0.5026  0.2854
   68fsi    FSI  854   1.912   3.039   0.506 -0.3620  0.0873  0.1461
   68fsi    SBT  855   1.831   2.963   0.622 -0.3374 -0.1572  0.0803
   68fsi    NBT  856   1.921   2.972   0.752  0.2831 -0.0355  0.1336
   68fsi    OBT  857   1.703   3.020   0.633 -0.7923  0.3079  0.3043
   68fsi    OBT  858   1.837   2.820   0.587  0.2097 -0.5638  0.3617
   68fsi    SBT  859   1.915   3.062   0.879  0.0786  0.2505 -0.0739
   68fsi    OBT  860   2.009   3.009   0.973 -0.3615 -0.0663  0.1154
   68fsi    OBT  861   1.784   3.105   0.922 -0.2115  0.1577  0.3259
   68fsi    FSI  862   1.978   3.203   0.820  0.0733 -0.3368  0.5109
   69fsi    FSI  863   2.207   2.425   1.254  0.1574  0.1289  0.0125
   69fsi    SBT  864   2.316   2.322   1.278  0.2524  0.0458  0.1076
   69fsi    NBT  865   2.295   2.289   1.437 -0.2638 -0.1898  0.1974
   69fsi    OBT  866   2.287   2.213   1.193 -0.2582  0.3753 -0.5410
   69fsi    OBT  867   2.439   2.392   1.254  0.6403 -0.2528  0.2911
   69fsi    SBT  868   2.193   2.196   1.511 -0.1880  0.5391 -0.5184
   69fsi    OBT  869   2.076   2.157   1.436 -0.2258  0.6389 -0.1391
   69fsi    OBT  870   2.163   2.243   1.648 -0.2535 -0.0441 -0.3384
   69fsi    FSI  871   2.281   2.064   1.538  0.4926 -0.4893 -0.0720
   70fsi    FSI  872   1.744   2.364   1.175  0.3093 -0.1219 -0.2076
   70fsi    SBT  873   1.667   2.469   1.097  0.0098  0.1282  0.3793
   70fsi    NBT  874   1.764   2.586   1.078 -0.1063  0.1249  0.6198
   70fsi    OBT  875   1.632   2.396   0.979 -0.2093  0.0819 -0.4883
   70fsi    OBT  876   1.560   2.508   1.188  0.7778  0.0037  0.3099
   70fsi    SBT  877   1.853   2.636   0.955 -0.2227  0.3766  0.0790
   70fsi    OBT  878   1.881   2.538   0.854 -0.3200  0.6053  0.2029
   70fsi    OBT  879   1.964   2.712   0.996 -0.4622 -0.6966 -0.2919
   70fsi    FSI  880   1.757   2.732   0.867  0.0957  0.0119  0.0513
   71fsi    FSI  881   0.957   1.937   1.136  0.3755  0.1254 -0.2863
   71fsi    SBT  882   0.812   1.899   1.089  0.1009  0.1260  0.0305
   71fsi    NBT  883   0.781   1.764   1.164  0.7614  0.2610  0.4964
   71fsi    OBT  884   0.724   1.999   1.137 -0.1487  0.0657  0.3913
   71fsi    OBT  885   0.828   1.887   0.948 -0.6641  0.5714 -0.5086
   71fsi    SBT  886   0.864   1.629   1.137  0.0033 -0.2069  0.0176
   71fsi    OBT  887   0.948   1.638   1.020 -0.5019  0.2099 -0.2695
   71fsi    OBT  888   0.795   1.505   1.167  0.2835 -0.2929  0.4039
   71fsi    FSI  889   0.971   1.639   1.257  0.5797 -0.0920 -0.0512
   72fsi    FSI  890   1.627   3.473   0.106  0.0811  0.0421 -0.2786
   72fsi    SBT  891   1.517   3.360   0.076 -0.0431  0.2095  0.1761
   72fsi    NBT  892   1.405   3.383   0.178 -0.0069 -0.6909  0.2893
   72fsi    OBT  893   1.475   3.388  -0.061 -0.2078  0.2682  0.0493
   72fsi    OBT  894   1.597   3.245   0.099 -0.3209  0.1477  0.1892
   72fsi    SBT  895   1.407   3.353   0.336  0.2672  0.0312  0.1591
   72fsi    OBT  896   1.282   3.388   0.400 -0.9437 -0.0070 -0.0065
   72fsi    OBT  897   1.528   3.388   0.404  0.2701 -0.4669 -0.3762
   72fsi    FSI  898   1.404   3.193   0.348  0.1392  0.0069  0.6783
   73fsi    FSI  899   0.240   2.188   0.360  0.2729 -0.5578 -0.0676
   73fsi    SBT  900   0.389   2.181   0.399  0.1174  0.3945  0.4044
   73fsi    NBT  901   0.465   2.232   0.275 -0.8545 -0.0089 -0.2405
   73fsi    OBT  902   0.399   2.273   0.506  0.1709  0.2675 -0.0331
   73fsi    OBT  903   0.407   2.040   0.434  0.7995  0.4906 -0.2676
   73fsi    SBT  904   0.482   2.164   0.131  0.2064  0.5305  0.1708
   73fsi    OBT  905   0.513   2.023   0.129  0.5076  0.1567  0.0340
   73fsi    OBT  906   0.554   2.246   0.040  0.3994 -0.2811  0.3697
   73fsi    FSI  907   0.332   2.166   0.082  0.3297 -0.5294  0.6902
   74fsi    FSI  908   1.104   1.598   4.961  0.1752  0.6115  0.3788
   74fsi    SBT  909   1.072   1.678   5.087  0.3777 -0.1119  0.3536
   74fsi    NBT  910   1.041   1.819   5.031  0.4906 -0.0952  0.2984
   74fsi    OBT  911   0.957   1.612   5.143 -0.4952  0.3253 -0.0654
   74fsi    OBT  912   1.193   1.673   5.162  0.1939  0.1374  0.2696
   74fsi    SBT  913   0.932   1.853   4.927 -0.0668 -0.1607 -0.1874
   74fsi    OBT  914   0.875   1.989   4.937  0.2851  0.1786 -0.4902
   74fsi    OBT  915   0.842   1.745   4.912 -0.3164 -0.7743  0.3137
   74fsi    FSI  916   1.008   1.867   4.788  0.2232  0.0834  0.0174
   75fsi    FSI  917   3.272   1.904   1.172 -0.5233  0.2014  0.4237
   75fsi    SBT  918   3.120   1.915   1.201  0.1125  0.0481  0.3314
   75fsi    NBT  919   3.064   1.948   1.058 -0.3960  0.1353  0.3637
   75fsi    OBT  920   3.092   1.784   1.257 -0.0390  0.5914  0.6126
   75fsi    OBT  921   3.127   2.023   1.295  0.1085  0.4583 -0.9704
   75fsi    SBT  922   2.980   1.857   0.968  0.0120 -0.0114  0.1895
   75fsi    OBT  923   2.938   1.918   0.847 -0.1243 -0.1163 -0.8155
   75fsi    OBT  924   2.892   1.765   1.038 -0.6445 -0.1590 -0.3447
   75fsi    FSI  925   3.090   1.751   0.920  0.4760  0.2567  0.5523
   76fsi    FSI  926   2.275   2.639   0.538 -0.0615  0.8890  0.1532
   76fsi    SBT  927   2.203   2.557   0.650 -0.1487 -0.2466 -0.1426
   76fsi    NBT  928   2.216   2.653   0.778  0.2285 -0.9396 -0.0059
   76fsi    OBT  929   2.067   2.563   0.606 -0.3859  0.3464 -0.0603
   76fsi    OBT  930   2.266   2.425   0.655 -0.5872 -0.1715 -0.4713
   76fsi    SBT  931   2.297   2.639   0.914 -0.1231 -0.2458 -0.1206
   76fsi    OBT  932   2.346   2.505   0.943 -0.4054  0.1257 -0.3150
   76fsi    OBT  933   2.239   2.711   1.027 -0.0062  0.3350  0.8248
   76fsi    FSI  934   2.417   2.731   0.870  0.0458  0.4972 -0.3591
   77fsi    FSI  935   0.429   3.353   0.217 -0.5247 -0.0253 -0.3236
   77fsi    SBT  936   0.464   3.211   0.271  0.2312 -0.2607 -0.2082
   77fsi    NBT  937   0.601   3.162   0.202 -0.0224  0.0880 -0.0529
   77fsi    OBT  938   0.467   3.225   0.416  0.2817  0.0917 -0.2596
   77fsi    OBT  939   0.357   3.130   0.221  0.4636  0.2304 -0.0821
   77fsi    SBT  940   0.744   3.138   0.272 -0.1322  0.0639  0.4131
   77fsi    OBT  941   0.779   2.999   0.280 -0.0272  0.3995  0.3992
   77fsi    OBT  942   0.760   3.217   0.393  0.1153  0.1104  0.4702
   77fsi    FSI  943   0.837   3.205   0.167  0.3530  0.3087  0.1449
   78fsi    FSI  944   1.415   2.729   2.670  0.7175 -0.8232  0.2971
   78fsi    SBT  945   1.381   2.685   2.521  0.1281 -0.1421 -0.1585
   78fsi    NBT  946   1.488   2.768   2.446  0.2647 -0.1315  0.4340
   78fsi    OBT  947   1.402   2.542   2.512  0.0833 -0.6858 -0.2465
   78fsi    OBT  948   1.247   2.736   2.504  0.2394 -0.5020 -1.1975
   78fsi    SBT  949   1.491   2.875   2.329 -0.1267  0.1142 -0.2877
   78fsi    OBT  950   1.377   2.869   2.241 -0.0195 -0.3445  0.4274
   78fsi    OBT  951   1.618   2.895   2.267 -0.4900 -0.5129  0.2994
   78fsi    FSI  952   1.463   3.009   2.401 -0.3626  0.4209 -0.1996
   79fsi    FSI  953   0.172   2.610   1.045 -0.0678 -0.6246  0.0427
   79fsi    SBT  954   0.240   2.475   1.071 -0.0417  0.5681  0.0873
   79fsi    NBT  955   0.374   2.483   0.988 -0.1208  0.3905 -0.5889
   79fsi    OBT  956   0.265   2.472   1.211 -0.2774  0.7083  0.0941
   79fsi    OBT  957   0.147   2.385   1.009 -0.3515 -0.2495 -0.2406
   79fsi    SBT  958   0.525   2.529   1.021  0.1193 -0.1646 -0.0662
   79fsi    OBT  959   0.528   2.654   1.096 -0.9175 -1.0149  0.0444
   79fsi    OBT  960   0.609   2.503   0.917 -1.0200  0.1145 -0.8256
   79fsi    FSI  961   0.571   2.422   1.132  0.2255  0.1519  0.2725
   80fsi    FSI  962   0.824   3.720   0.546 -0.3195  0.5360  0.4367
   80fsi    SBT  963   0.820   3.572   0.494  0.1140  0.3824 -0.2000
   80fsi    NBT  964   0.787   3.582   0.344 -0.0859  0.1438  0.3681
   80fsi    OBT  965   0.953   3.519   0.534 -0.3481 -0.9956 -0.0342
   80fsi    OBT  966   0.705   3.520   0.562  0.5305  0.2822  0.1668
   80fsi    SBT  967   0.880   3.559   0.221  0.2701 -0.4649 -0.3047
   80fsi    OBT  968   0.811   3.540   0.097 -0.4586  0.2726  0.3422
   80fsi    OBT  969   0.990   3.467   0.245  0.2243  0.3459 -0.2656
   80fsi    FSI  970   0.953   3.696   0.207  0.7214 -0.2517  0.2957
   81fsi    FSI  971   1.013   3.791   1.347 -0.0274 -0.1081  0.0805
   81fsi    SBT  972   1.058   3.639   1.371  0.3372  0.3846  0.0086
   81fsi    NBT  973   0.929   3.548   1.356 -1.0147 -0.0593  0.3192
   81fsi    OBT  974   1.163   3.617   1.284 -0.3282  0.1539  0.0570
   81fsi    OBT  975   1.091   3.639   1.511  0.4366  0.1479 -0.0658
   81fsi    SBT  976   0.896   3.439   1.250 -0.1806  0.2666 -0.2392
   81fsi    OBT  977   0.783   3.356   1.289  0.1227  0.5096  0.4985
   81fsi    OBT  978   1.020   3.369   1.203 -0.5218 -0.3466 -0.3935
   81fsi    FSI  979   0.847   3.511   1.125 -0.5116 -0.4358  0.4568
   82fsi    FSI  980   0.762   2.844   1.748  0.2861 -0.4398  0.1026
   82fsi    SBT  981   0.823   2.761   1.860  0.1278 -0.2737  0.1958
   82fsi    NBT  982   0.765   2.616   1.841 -0.1036 -0.7294 -0.8151
   82fsi    OBT  983   0.964   2.772   1.839 -0.3791 -0.8173  0.1283
   82fsi    OBT  984   0.765   2.820   1.980  0.3293 -0.1760 -0.0832
   82fsi    SBT  985   0.611   2.569   1.828  0.0615 -0.2951 -0.0275
   82fsi    OBT  986   0.518   2.678   1.837 -0.5475 -0.3115  0.4711
   82fsi    OBT  987   0.583   2.452   1.904  0.2317 -0.3738  0.1769
   82fsi    FSI  988   0.588   2.523   1.681  0.5108 -0.2992  0.2818
   83fsi    FSI  989   0.859   2.464   4.557  0.4909 -0.1936  0.7301
   83fsi    SBT  990   0.715   2.451   4.626  0.5008 -0.0386  0.0163
   83fsi    NBT  991   0.621   2.499   4.507 -0.5928  0.1767 -0.2041
   83fsi    OBT  992   0.714   2.311   4.659 -0.0131 -0.5507  0.0330
   83fsi    OBT  993   0.729   2.539   4.741 -0.6104  0.4793 -0.4006
   83fsi    SBT  994   0.518   2.618   4.506  0.2398  0.3839 -0.0970
   83fsi    OBT  995   0.545   2.715   4.412 -0.2725  0.0427  0.2270
   83fsi    OBT  996   0.483   2.658   4.639 -0.1586 -0.0546 -0.4028
   83fsi    FSI  997   0.383   2.554   4.453  0.5985 -0.2795 -0.1381
   84fsi    FSI  998   0.804   2.171   0.518 -0.4885  0.1127  0.1915
   84fsi    SBT  999   0.803   2.011   0.535  0.2952  0.4749  0.3054
   84fsi    NBT 1000   0.942   1.980   0.482  0.7616  1.1856 -0.8272
   84fsi    OBT 1001   0.776   1.995   0.673 -0.6058  0.0099 -0.7085
   84fsi    OBT 1002   0.695   1.972   0.443 -0.5876  0.2136  0.0078
   84fsi    SBT 1003   1.071   1.958   0.574  0.7604 -0.0526 -0.0416
   84fsi    OBT 1004   1.181   1.917   0.501  0.8881  0.5131 -0.1043
   84fsi    OBT 1005   1.050   1.892   0.700 -0.0407  0.5227 -0.5708
   84fsi    FSI 1006   1.099   2.105   0.629  0.7744 -0.4555  0.2643
   85fsi    FSI 1007   0.829   2.833   1.091 -0.1440 -0.2491  0.3238
   85fsi    SBT 1008   0.931   2.889   1.192 -0.0833  0.1915 -0.2502
   85fsi    NBT 1009   0.989   2.771   1.280 -0.3824  0.5163  0.2178
   85fsi    OBT 1010   1.032   2.955   1.113 -0.0673  0.3182  0.3661
   85fsi    OBT 1011   0.852   2.974   1.280 -0.7473 -0.0264 -0.5383
   85fsi    SBT 1012   0.915   2.666   1.367 -0.3242 -0.2317  0.5840
   85fsi    OBT 1013   0.972   2.537   1.331  0.0398  0.8263  0.3194
   85fsi    OBT 1014   0.771   2.668   1.362 -0.2144  0.2836 -0.7027
   85fsi    FSI 1015   0.960   2.695   1.512  0.0643  0.0405  0.0894
   86fsi    FSI 1016   2.234   2.690   2.246  0.5690 -0.0444 -0.2865
   86fsi    SBT 1017   2.185   2.725   2.099 -0.0787  0.5940 -0.2019
   86fsi    NBT 1018   2.133   2.585   2.045 -0.0337 -0.0932  0.4120
   86fsi    OBT 1019   2.081   2.818   2.122 -0.8100  0.0065  0.0131
   86fsi    OBT 1020   2.302   2.770   2.019 -0.3260 -0.6632  0.1216
   86fsi    SBT 1021   2.162   2.493   1.921 -0.2342 -0.3248  0.0674
   86fsi    OBT 1022   2.085   2.374   1.915  0.1261  0.7750 -0.3372
   86fsi    OBT 1023   2.298   2.481   1.879 -0.0771 -0.7624 -0.2971
   86fsi    FSI 1024   2.099   2.577   1.802  0.4583  0.2284  0.0042
   87fsi    FSI 1025   0.518   3.479   0.947  0.2713 -0.5378  0.3114
   87fsi    SBT 1026   0.517   3.325   0.878  0.0325  0.3020  0.0658
   87fsi    NBT 1027   0.659   3.279   0.920 -0.9934  0.1941  0.1264
   87fsi    OBT 1028   0.403   3.262   0.946  0.0830 -0.0835 -0.0846
   87fsi    OBT 1029   0.502   3.347   0.734 -0.0704 -0.6271  0.0764
   87fsi    SBT 1030   0.787   3.263   0.829  0.4488  0.4226  0.2274
   87fsi    OBT 1031   0.769   3.238   0.690  0.8266  0.1947 -0.0981
   87fsi    OBT 1032   0.890   3.184   0.894 -0.2004  0.3362  0.2434
   87fsi    FSI 1033   0.861   3.402   0.831 -0.0514 -0.1111 -0.8511
   88fsi    FSI 1034   0.416   1.642   4.793 -0.2476  0.2294  0.0742
   88fsi    SBT 1035   0.428   1.622   4.954 -0.1065  0.3839 -0.3863
   88fsi    NBT 1036   0.525   1.737   4.986 -0.5323 -0.3189 -0.0754
   88fsi    OBT 1037   0.293   1.629   4.996  0.1872  0.5612  0.0565
   88fsi    OBT 1038   0.499   1.499   4.974  0.4677 -0.3097  0.3563
   88fsi    SBT 1039   0.493   1.891   5.003  0.4910  0.1810  0.0558
   88fsi    OBT 1040   0.353   1.926   5.022  0.3595  0.1774  0.7873
   88fsi    OBT 1041   0.563   1.974   4.906  0.0176  0.3409 -0.1976
   88fsi    FSI 1042   0.557   1.921   5.138 -0.0671 -0.4398 -0.1400
   89fsi    FSI 1043   0.278   2.598   2.359  0.5727  0.0960  0.0317
   89fsi    SBT 1044   0.352   2.730   2.311  0.1263 -0.3492 -0.6416
   89fsi    NBT 1045   0.478   2.737   2.405  0.0645 -0.6526  0.0186
   89fsi    OBT 1046   0.384   2.710   2.176  0.5313  0.3554  0.2142
   89fsi    OBT 1047   0.251   2.835   2.334 -0.1793 -0.5575 -0.4548
   89fsi    SBT 1048   0.625   2.681   2.381 -0.1912  0.1165  0.0112
   89fsi    OBT 1049   0.706   2.729   2.488 -0.7128  0.5869 -0.2975
   89fsi    OBT 1050   0.676   2.679   2.244  0.0588 -0.4506  0.4872
   89fsi    FSI 1051   0.605   2.530   2.410 -0.8345 -0.1152 -0.4424
   90fsi    FSI 1052   1.394   2.245   0.414 -0.0137 -0.2515 -0.0290
   90fsi    SBT 1053   1.506   2.151   0.471  0.4417 -0.0908 -0.0489
   90fsi    NBT 1054   1.642   2.232   0.451 -0.4338 -0.4048  0.6613
   90fsi    OBT 1055   1.467   2.131   0.604  0.6222  0.6806 -0.6281
   90fsi    OBT 1056   1.506   2.035   0.385 -0.0404 -0.1584  0.1737
   90fsi    SBT 1057   1.749   2.294   0.549  0.5254  0.1505  0.4049
   90fsi    OBT 1058   1.734   2.261   0.684  0.4761 -0.1822  0.0852
   90fsi    OBT 1059   1.795   2.428   0.510 -0.5115  0.1662  0.2539
   90fsi    FSI 1060   1.877   2.213   0.506  0.3184  0.3088 -0.9279
   91fsi    FSI 1061   0.565   2.789   3.526  0.0628 -0.2962 -0.0637
   91fsi    SBT 1062   0.596   2.756   3.682 -0.0273  0.3008  0.0693
   91fsi    NBT 1063   0.718   2.854   3.708  0.2651 -0.4664  0.8262
   91fsi    OBT 1064   0.474   2.790   3.749  0.1804  0.1298 -0.0745
   91fsi    OBT 1065   0.628   2.611   3.684 -0.0006 -0.5595 -0.6309
   91fsi    SBT 1066   0.873   2.824   3.697 -0.6818 -0.1243  0.1165
   91fsi    OBT 1067   0.918   2.687   3.711 -0.2700  0.4846 -0.3075
   91fsi    OBT 1068   0.951   2.930   3.759  0.2217 -0.1579 -0.0226
   91fsi    FSI 1069   0.901   2.848   3.542  0.1705  0.2244  0.2156
   92fsi    FSI 1070   1.292   2.527   0.350 -0.0269 -0.1125  0.7460
   92fsi    SBT 1071   1.146   2.498   0.298  0.0970  0.0371 -0.0701
   92fsi    NBT 1072   1.167   2.466   0.146  0.3060 -0.1791  0.1219
   92fsi    OBT 1073   1.099   2.383   0.371 -0.7109  0.4624 -0.1528
   92fsi    OBT 1074   1.076   2.618   0.323 -0.2423  0.1972  0.2860
   92fsi    SBT 1075   1.204   2.561   0.027  0.1542  0.1633 -0.1331
   92fsi    OBT 1076   1.344   2.562  -0.014  0.1996 -0.1065 -0.1192
   92fsi    OBT 1077   1.125   2.684   0.026  0.1578  0.4321 -0.2454
   92fsi    FSI 1078   1.135   2.482  -0.091 -0.3470 -0.7258 -0.1732
   93fsi    FSI 1079   2.494   2.997   1.779  0.0753 -0.2605 -0.8593
   93fsi    SBT 1080   2.585   2.873   1.729 -0.0211 -0.2857 -0.0006
   93fsi    NBT 1081   2.496   2.815   1.615 -0.3214  0.7395  0.5029
   93fsi    OBT 1082   2.704   2.933   1.675  0.2691  0.2327  0.2039
   93fsi    OBT 1083   2.602   2.791   1.845  0.0337 -0.6124  0.6294
   93fsi    SBT 1084   2.439   2.664   1.598  0.1921  0.0840 -0.2231
   93fsi    OBT 1085   2.491   2.576   1.695  0.0815 -0.0397  0.1694
   93fsi    OBT 1086   2.436   2.624   1.463  0.1066 -0.2691  0.9289
   93fsi    FSI 1087   2.292   2.674   1.642 -0.3474  0.4491 -0.3200
   94fsi    FSI 1088   2.627   2.051   1.786  0.0259  0.1671  0.3509
   94fsi    SBT 1089   2.523   2.180   1.785  0.0858  0.1341  0.6923
   94fsi    NBT 1090   2.578   2.281   1.885  0.1270 -0.0540 -0.4709
   94fsi    OBT 1091   2.536   2.229   1.653  0.0154 -0.6057 -0.2796
   94fsi    OBT 1092   2.398   2.117   1.821 -0.2328  0.1549 -0.7815
   94fsi    SBT 1093   2.534   2.321   2.027 -0.0045  0.3675  0.5151
   94fsi    OBT 1094   2.410   2.261   2.072  0.0082  0.3719 -0.4622
   94fsi    OBT 1095   2.554   2.461   2.049 -0.4314  0.6237  0.0393
   94fsi    FSI 1096   2.651   2.266   2.120  0.4194 -0.0657 -0.6795
   95fsi    FSI 1097   0.910   1.381   0.555  0.0069  0.0454 -0.0805
   95fsi    SBT 1098   0.890   1.525   0.489  0.0863 -0.4240  0.3753
   95fsi    NBT 1099   0.732   1.544   0.490  0.0765  0.0560 -0.2922
   95fsi    OBT 1100   0.963   1.607   0.579 -0.0969 -0.3749  0.5634
   95fsi    OBT 1101   0.933   1.496   0.354  0.6149 -0.2691  0.4965
   95fsi    SBT 1102   0.629   1.624   0.581 -0.1731  0.1479 -0.2895
   95fsi    OBT 1103   0.543   1.716   0.513 -0.3376 -0.2988  0.2048
   95fsi    OBT 1104   0.692   1.678   0.699 -0.5462 -0.1711 -0.3309
   95fsi    FSI 1105   0.538   1.511   0.635 -0.6810  0.1537  0.2490
   96fsi    FSI 1106   2.787   2.682   1.053  0.3269 -0.2936  0.1128
   96fsi    SBT 1107   2.696   2.692   1.198 -0.5724  0.0462  0.3459
   96fsi    NBT 1108   2.745   2.571   1.278  1.0162 -0.2722  0.4273
   96fsi    OBT 1109   2.732   2.824   1.249  0.0115  0.5505 -0.2567
   96fsi    OBT 1110   2.562   2.669   1.160  1.1909  0.4571 -0.6376
   96fsi    SBT 1111   2.786   2.564   1.427 -0.3621 -0.0767 -0.2939
   96fsi    OBT 1112   2.732   2.445   1.491 -0.3796  0.5221 -0.3954
   96fsi    OBT 1113   2.777   2.688   1.500  0.2885 -0.1254  0.8325
   96fsi    FSI 1114   2.950   2.539   1.421 -0.2836 -0.9360  0.2310
   97fsi    FSI 1115   0.849   3.774   3.980  0.3867  0.4155  0.0409
   97fsi    SBT 1116   0.889   3.625   4.004 -0.1123  0.1645  0.2080
   97fsi    NBT 1117   0.761   3.542   3.988  0.4820 -0.1888 -0.2161
   97fsi    OBT 1118   0.979   3.600   3.893 -0.2683 -0.5680 -0.4437
   97fsi    OBT 1119   0.950   3.621   4.138  0.5821 -0.1854 -0.4172
   97fsi    SBT 1120   0.674   3.462   4.087  0.2647  0.1892 -0.4308
   97fsi    OBT 1121   0.736   3.447   4.212 -0.3437 -0.5396  0.4802
   97fsi    OBT 1122   0.626   3.346   4.020  0.0439 -0.1219 -0.0807
   97fsi    FSI 1123   0.544   3.548   4.116  0.1951  0.1601 -0.1586
   98fsi    FSI 1124   1.786   3.382   1.848 -0.0159 -0.5032 -0.4156
   98fsi    SBT 1125   1.664   3.278   1.856  0.0886 -0.1230 -0.0342
   98fsi    NBT 1126   1.542   3.351   1.924  0.1522  0.2351  0.0030
   98fsi    OBT 1127   1.633   3.254   1.720 -0.1301 -0.0365  0.2729
   98fsi    OBT 1128   1.714   3.169   1.933 -0.0709 -0.1149 -0.5097
   98fsi    SBT 1129   1.475   3.329   2.063  0.1916 -0.1010  0.4136
   98fsi    OBT 1130   1.512   3.207   2.130 -0.0748 -0.7723  0.2253
   98fsi    OBT 1131   1.340   3.375   2.074 -0.5968 -0.2105  0.0841
   98fsi    FSI 1132   1.549   3.429   2.159 -0.1308  0.0062  0.1707
   99fsi    FSI 1133   1.756   2.884   1.502 -0.5576 -0.2226  0.1806
   99fsi    SBT 1134   1.757   2.806   1.367 -0.0599  0.2228  0.0635
   99fsi    NBT 1135   1.913   2.792   1.340  0.0315  0.7967  0.5503
   99fsi    OBT 1136   1.682   2.687   1.401 -0.2009 -0.2976 -0.7099
   99fsi    OBT 1137   1.692   2.896   1.279  0.4290  0.2831  1.0951
   99fsi    SBT 1138   2.015   2.686   1.384  0.0567  0.0047 -0.0591
   99fsi    OBT 1139   2.011   2.652   1.525 -0.3360 -0.4872 -0.1214
   99fsi    OBT 1140   2.145   2.708   1.326 -0.6343  0.0373 -0.7875
   99fsi    FSI 1141   1.975   2.553   1.311  0.7603 -0.2132 -0.6801
  100fsi    FSI 1142   0.417   2.420   5.118  0.0234  0.3421 -0.5231
  100fsi    SBT 1143   0.521   2.431   5.003 -0.0379  0.1090  0.2855
  100fsi    NBT 1144   0.657   2.443   5.087  0.0114 -0.1056 -0.4086
  100fsi    OBT 1145   0.508   2.311   4.926  0.1592  0.1592 -0.2739
  100fsi    OBT 1146   0.492   2.555   4.939  0.3754 -0.0408  0.0257
  100fsi    SBT 1147   0.801   2.367   5.084 -0.0175 -0.5257  0.0291
  100fsi    OBT 1148   0.821   2.263   4.992 -0.0844  0.0060  0.5939
  100fsi    OBT 1149   0.852   2.342   5.214 -0.4060  0.3220 -1.1315
  100fsi    FSI 1150   0.895   2.482   5.030 -0.2547 -0.1699  0.2861
   5.28770   5.28770   5.28770
