L1P1 short trajectory practice
 1150
    1Li+     Li    1  83.048 139.640 128.390  1.0750 -0.1568  1.2562
    2Li+     Li    2  82.926 138.994 128.314  1.2454 -0.9943 -0.3934
    3Li+     Li    3   8.798 167.830 206.534 -0.1638 -0.6727 -0.1020
    4Li+     Li    4  82.591 138.735 128.224  0.6000  0.5859  0.4669
    5Li+     Li    5  83.094 139.370 128.667 -0.2652 -0.0693 -0.9517
    6Li+     Li    6  35.945  58.973 278.111 -0.1932  0.2898 -0.6069
    7Li+     Li    7   8.700 167.961 206.914 -0.2214  0.6753 -0.1483
    8Li+     Li    8  36.048  59.154 277.652  0.3518 -0.0931  0.2453
    9Li+     Li    9  36.219  58.967 277.336 -0.0333 -0.0181  0.1880
   10Li+     Li   10  35.608  58.397 278.177 -0.1947  0.0366 -0.1482
   11Li+     Li   11  35.891  58.417 277.090 -0.5472  0.6671 -0.2693
   12Li+     Li   12  14.229 190.672  59.696  0.0887 -0.1405  0.4552
   13Li+     Li   13  83.028 139.482 128.043  0.1667 -1.4054  0.6811
   14Li+     Li   14  13.724 190.405  59.641  0.4724  0.3842 -0.9954
   15Li+     Li   15  35.351  58.528 277.141  0.3222  0.0815 -0.1493
   16Li+     Li   16  82.807 138.862 127.808  0.5990 -0.2276  0.2669
   17Li+     Li   17  13.163 190.753  59.595  1.2173  0.7856  0.1442
   18Li+     Li   18  35.834  58.791 277.037  0.1640  0.5419 -0.2616
   19Li+     Li   19   9.057 168.215 206.738 -0.1262 -0.2174  1.1808
   20Li+     Li   20  36.308  58.611 277.507  0.7838 -0.3803 -0.3244
   21Li+     Li   21  82.540 139.356 128.001 -1.1790 -0.4215  0.0332
   22Li+     Li   22  83.318 139.044 127.870  0.1564 -0.6677  1.4977
   23Li+     Li   23  14.117 190.725  59.222  1.0693  0.0407 -0.1986
   24Li+     Li   24  13.634 190.875  59.444  0.4198  0.0004 -1.4200
   25Li+     Li   25  82.597 139.654 128.380  0.0556  1.6426 -0.3965
   26c3c     N4   26  82.690 139.320 127.176  0.9233 -0.1115  0.6155
   26c3c     C1   27  82.602 139.433 127.124 -0.8160  0.1729 -1.1210
   26c3c     C1   28  82.699 139.365 127.311 -0.4243 -0.3044 -0.9576
   26c3c     C2   29  82.655 139.567 127.179  0.5055  0.0535  0.0229
   26c3c     C2   30  82.716 139.512 127.315  1.3608 -0.3133  0.1486
   26c3c     C1   31  82.619 139.193 127.200 -0.1876 -0.7267  0.1291
   26c3c     C1   32  82.809 139.300 127.100  0.0112 -0.4756  0.6773
   26c3c     H1   33  82.508 139.406 127.172 -0.7909 -3.4914 -2.9574
   26c3c     H1   34  82.571 139.457 127.022 -1.2150  3.7850 -0.2078
   26c3c     H1   35  82.610 139.354 127.374 -0.9444 -0.3039 -1.6849
   26c3c     H1   36  82.775 139.308 127.363 -0.2105  0.8962  0.0545
   26c3c     HC   37  82.583 139.650 127.184  1.0882  0.7509 -2.2936
   26c3c     HC   38  82.737 139.604 127.118  0.3813 -0.2409 -0.3422
   26c3c     HC   39  82.665 139.542 127.406  4.2813  0.4828  1.5527
   26c3c     HC   40  82.822 139.534 127.308  1.5281 -0.8884  0.9794
   26c3c     H1   41  82.522 139.217 127.245  1.8282  3.5760  2.4991
   26c3c     H1   42  82.588 139.139 127.111 -2.3765  0.5971  0.0374
   26c3c     H1   43  82.668 139.120 127.263 -1.6392 -0.3247  1.7976
   26c3c     H1   44  82.867 139.392 127.103  5.7537 -3.8450  0.1079
   26c3c     H1   45  82.862 139.213 127.137  2.0133 -1.7861 -4.8205
   26c3c     C2   46  82.806 139.271 126.947  0.9655  1.1375  1.1812
   26c3c     HC   47  82.801 139.368 126.897 -1.9418 -1.1448 -3.2845
   26c3c     HC   48  82.716 139.213 126.930  2.0564 -0.7252  1.6773
   26c3c     CT   49  82.947 139.200 126.889  1.1455 -0.0439 -0.4321
   26c3c     HC   50  82.942 139.193 126.780 -0.6363 -2.1898 -0.2365
   26c3c     HC   51  82.928 139.099 126.924 -1.5586 -0.0991 -1.9407
   26c3c     HC   52  83.043 139.236 126.927  0.8570  1.2389 -0.9106
   27c3c     N4   53  36.200  58.323 277.975 -0.1005  0.0878  0.2506
   27c3c     C1   54  36.213  58.260 278.108  0.1208 -0.3081 -0.2254
   27c3c     C1   55  36.061  58.375 277.975 -0.2999 -0.1212  0.0496
   27c3c     C2   56  36.135  58.353 278.202  0.1689 -0.1470 -0.1095
   27c3c     C2   57  36.041  58.436 278.114  0.0648 -0.2643  0.2096
   27c3c     C1   58  36.296  58.434 277.962 -0.1208 -0.0351 -0.2380
   27c3c     C1   59  36.220  58.234 277.859 -0.0430  0.0612  0.1579
   27c3c     H1   60  36.316  58.245 278.140 -0.0530 -0.5653  0.2138
   27c3c     H1   61  36.164  58.163 278.114  0.5170 -0.5149 -0.3187
   27c3c     H1   62  36.042  58.447 277.895 -0.3872 -0.2787 -0.0704
   27c3c     H1   63  35.987  58.296 277.963 -0.3687 -0.0755  0.2169
   27c3c     HC   64  36.205  58.418 278.255  0.2397 -0.2546 -0.1140
   27c3c     HC   65  36.078  58.299 278.277  0.0595 -0.1289 -0.1999
   27c3c     HC   66  36.071  58.541 278.111 -0.2762 -0.1814 -0.3187
   27c3c     HC   67  35.937  58.432 278.144  0.1237 -0.4184  0.4061
   27c3c     H1   68  36.398  58.395 277.958 -0.2177 -0.2919 -0.1042
   27c3c     H1   69  36.279  58.490 277.870  0.2422  0.4705  0.0136
   27c3c     H1   70  36.294  58.507 278.043 -1.3230  0.6909 -0.9028
   27c3c     H1   71  36.191  58.292 277.771  1.0092  0.3443  0.0350
   27c3c     H1   72  36.327  58.216 277.845 -0.0540 -0.1687  0.4520
   27c3c     C2   73  36.151  58.095 277.856 -0.0292 -0.1944  0.2535
   27c3c     HC   74  36.043  58.108 277.859  0.0438  0.3483  0.6386
   27c3c     HC   75  36.180  58.033 277.941  0.1661 -0.1427  0.2143
   27c3c     CT   76  36.185  58.014 277.730 -0.1862  0.0191  0.1299
   27c3c     HC   77  36.285  57.971 277.736 -0.2749 -0.2123 -0.0654
   27c3c     HC   78  36.183  58.074 277.639 -0.9997 -0.5383 -0.2594
   27c3c     HC   79  36.112  57.933 277.719 -0.3359  0.2072 -0.2267
   28c3c     N4   80  36.469  59.119 278.234  0.1179 -0.1175  0.0768
   28c3c     C1   81  36.327  59.103 278.269  0.0561 -0.4285 -0.0340
   28c3c     C1   82  36.537  59.085 278.359  0.1700 -0.3996  0.1954
   28c3c     C2   83  36.321  58.975 278.355  0.3128 -0.5736 -0.0812
   28c3c     C2   84  36.459  58.966 278.419  0.0607 -0.3149  0.1710
   28c3c     C1   85  36.508  59.021 278.131 -0.0338 -0.0984  0.1614
   28c3c     C1   86  36.507  59.252 278.180  0.3035 -0.2624  0.1579
   28c3c     H1   87  36.264  59.098 278.181 -0.1164 -0.6960  0.1171
   28c3c     H1   88  36.290  59.186 278.328  0.1727 -0.5835  0.2571
   28c3c     H1   89  36.642  59.063 278.345  0.0828 -0.4147 -0.4685
   28c3c     H1   90  36.533  59.167 278.431  0.8043 -0.7357  0.6209
   28c3c     HC   91  36.303  58.888 278.293  0.1985 -0.6340  0.0202
   28c3c     HC   92  36.243  58.980 278.431  0.6123 -0.3773  0.1967
   28c3c     HC   93  36.505  58.870 278.396  0.3155 -0.1513 -0.0016
   28c3c     HC   94  36.453  58.977 278.528  0.1511  0.1065  0.1588
   28c3c     H1   95  36.446  59.035 278.042 -0.2737 -0.5156  0.2601
   28c3c     H1   96  36.612  59.032 278.101 -0.0655 -0.3025 -0.0310
   28c3c     H1   97  36.494  58.917 278.161  0.8714 -0.2246  0.1304
   28c3c     H1   98  36.615  59.256 278.168  0.2816 -0.0290  0.0490
   28c3c     H1   99  36.466  59.262 278.079  0.4774 -0.0441  0.0848
   28c3c     C2  100  36.463  59.375 278.260  0.2785 -0.3518  0.1328
   28c3c     HC  101  36.498  59.373 278.363  0.1241 -0.8820  0.1606
   28c3c     HC  102  36.354  59.384 278.264  0.2267 -0.9746  0.0348
   28c3c     CT  103  36.521  59.501 278.194 -0.0050 -0.2131 -0.0351
   28c3c     HC  104  36.484  59.591 278.243  0.3013 -0.2937  0.3290
   28c3c     HC  105  36.491  59.506 278.089 -0.8825  0.3980  0.2362
   28c3c     HC  106  36.630  59.503 278.201  0.0470 -0.0054 -0.7923
   29c3c     N4  107  89.913 140.421 103.044 -0.1387 -0.0572 -0.2341
   29c3c     C1  108  89.994 140.523 102.982 -0.5081  0.4161 -0.0876
   29c3c     C1  109  89.869 140.327 102.940  0.3163  0.0119 -0.3604
   29c3c     C2  110  90.078 140.443 102.870  0.2507 -1.1131 -0.3106
   29c3c     C2  111  89.999 140.313 102.857  1.4528 -0.5076  0.7576
   29c3c     C1  112  89.999 140.336 103.134  0.5548 -0.6434 -0.3947
   29c3c     C1  113  89.795 140.473 103.122 -0.8257 -0.0426  0.5792
   29c3c     H1  114  90.047 140.580 103.058 -0.8752  2.2348 -1.1739
   29c3c     H1  115  89.919 140.592 102.942  3.2756  2.3261 -4.3513
   29c3c     H1  116  89.817 140.239 102.978 -1.3066  1.7946  1.6281
   29c3c     H1  117  89.791 140.385 102.891 -0.8762  0.7208  2.2989
   29c3c     HC  118  90.183 140.415 102.878  0.8018 -0.2232 -3.5134
   29c3c     HC  119  90.091 140.502 102.779  2.1530 -1.2197 -0.1247
   29c3c     HC  120  90.054 140.229 102.899  1.3277 -1.4868 -1.0009
   29c3c     HC  121  89.985 140.285 102.753  0.3420  4.6171 -0.6162
   29c3c     H1  122  89.977 140.354 103.239 -1.9865  1.9210 -1.3025
   29c3c     H1  123  89.964 140.234 103.145 -2.4550 -0.0367 -3.5031
   29c3c     H1  124  90.105 140.362 103.123  0.6435  0.0444  1.8835
   29c3c     H1  125  89.724 140.515 103.051  0.8421  0.4117 -0.8794
   29c3c     H1  126  89.762 140.393 103.187 -0.9206  1.4162  2.3657
   29c3c     C2  127  89.821 140.584 103.236  0.5655 -0.3084 -0.5604
   29c3c     HC  128  89.908 140.643 103.206 -0.2884  0.4899 -1.5338
   29c3c     HC  129  89.850 140.529 103.325  1.4146  1.2895  0.1569
   29c3c     CT  130  89.706 140.671 103.240 -0.0771  1.2449 -1.0674
   29c3c     HC  131  89.668 140.715 103.147  0.5533  2.9017 -0.5495
   29c3c     HC  132  89.726 140.768 103.285  2.4977  2.6925 -4.9986
   29c3c     HC  133  89.616 140.644 103.295 -1.2146  4.6623 -1.1114
   30c3c     N4  134  35.712  58.194 277.514  0.0663  0.0633 -0.0189
   30c3c     C1  135  35.820  58.183 277.613 -0.0346  0.1790 -0.1521
   30c3c     C1  136  35.613  58.097 277.566  0.0221  0.1513 -0.1146
   30c3c     C2  137  35.751  58.164 277.751 -0.2453  0.4166 -0.0837
   30c3c     C2  138  35.609  58.120 277.716 -0.0821 -0.0662 -0.2481
   30c3c     C1  139  35.659  58.330 277.519 -0.1127  0.2046  0.0400
   30c3c     C1  140  35.754  58.170 277.375 -0.5452 -0.1988 -0.1313
   30c3c     H1  141  35.886  58.270 277.617  0.1781  0.0097  0.1031
   30c3c     H1  142  35.883  58.097 277.594 -0.3156  0.0347 -0.4495
   30c3c     H1  143  35.514  58.104 277.520  0.1086 -0.0072 -0.3216
   30c3c     H1  144  35.649  57.995 277.553  0.6832  0.4219 -0.4304
   30c3c     HC  145  35.747  58.258 277.806 -0.3824  0.5697 -0.3655
   30c3c     HC  146  35.803  58.092 277.815 -0.3039  0.0350 -0.4527
   30c3c     HC  147  35.537  58.196 277.747 -0.1491 -0.1414 -0.2310
   30c3c     HC  148  35.584  58.028 277.768  0.0904 -0.2696 -0.5054
   30c3c     H1  149  35.733  58.403 277.486 -0.2647 -0.0104 -0.8103
   30c3c     H1  150  35.573  58.340 277.453 -0.7346 -0.7192  0.6889
   30c3c     H1  151  35.626  58.362 277.618  0.6713  0.5764  0.1768
   30c3c     H1  152  35.670  58.195 277.310 -0.6156 -0.1219 -0.0033
   30c3c     H1  153  35.836  58.235 277.345 -1.1120 -0.0181 -1.3031
   30c3c     C2  154  35.794  58.026 277.341 -0.0322  0.2849  0.0728
   30c3c     HC  155  35.709  57.958 277.352  0.8701 -0.8684  0.0750
   30c3c     HC  156  35.874  57.990 277.406  0.6789  1.3007 -0.2346
   30c3c     CT  157  35.835  58.013 277.196 -0.3649  0.5150 -0.1687
   30c3c     HC  158  35.920  58.077 277.168 -0.1228  0.1068 -0.3948
   30c3c     HC  159  35.753  58.038 277.129 -0.3554  0.3988 -0.2224
   30c3c     HC  160  35.862  57.910 277.173 -0.5177  0.6370 -0.9318
   31c3c     N4  161  79.414 138.191 125.482 -0.4455  0.1369 -0.9484
   31c3c     C1  162  79.488 138.228 125.367 -0.7420 -0.6278  0.4606
   31c3c     C1  163  79.509 138.225 125.588 -0.0985  1.3068 -0.3746
   31c3c     C2  164  79.635 138.182 125.384  0.6499  0.5302  0.0160
   31c3c     C2  165  79.637 138.162 125.538 -0.4520  0.0659 -0.2305
   31c3c     C1  166  79.304 138.291 125.483 -0.2961  0.1415  1.1626
   31c3c     C1  167  79.365 138.052 125.493 -1.0046 -1.0247 -0.0700
   31c3c     H1  168  79.495 138.336 125.351 -0.1367 -0.8035 -0.4798
   31c3c     H1  169  79.442 138.199 125.272  2.3780 -0.3839 -1.1688
   31c3c     H1  170  79.535 138.330 125.575 -3.1494  2.0152 -1.4040
   31c3c     H1  171  79.471 138.208 125.689 -4.0160 -0.0397 -1.9816
   31c3c     HC  172  79.704 138.262 125.354 -0.4916  3.1852  3.9934
   31c3c     HC  173  79.662 138.087 125.337  1.8000  1.2648 -0.8113
   31c3c     HC  174  79.728 138.212 125.571  2.6326 -1.8883 -5.1650
   31c3c     HC  175  79.637 138.057 125.568  2.4345  0.1990  0.3151
   31c3c     H1  176  79.241 138.284 125.572 -0.2585  0.0480  1.1821
   31c3c     H1  177  79.319 138.398 125.471  2.0706 -0.3346 -0.3271
   31c3c     H1  178  79.238 138.265 125.401 -0.5886 -7.1940  3.4115
   31c3c     H1  179  79.434 138.003 125.561  0.9958 -0.6967 -1.8394
   31c3c     H1  180  79.277 138.061 125.556 -1.5984 -0.6686 -0.9334
   31c3c     C2  181  79.317 137.978 125.370  0.7823  0.3146  0.7526
   31c3c     HC  182  79.385 138.002 125.288 -1.2123  2.3025 -0.3654
   31c3c     HC  183  79.231 138.040 125.345  0.7515 -0.4988 -1.3124
   31c3c     CT  184  79.295 137.824 125.367  0.4459 -0.6287 -0.5252
   31c3c     HC  185  79.381 137.758 125.380 -1.4525 -3.1746 -0.3817
   31c3c     HC  186  79.244 137.787 125.278  0.7525  1.2905 -1.5010
   31c3c     HC  187  79.226 137.772 125.434 -0.1311 -2.6010 -2.5670
   32c3c     N4  188 181.844   2.803 117.155 -0.1614 -0.0490  0.2105
   32c3c     C1  189 181.821   2.762 117.294 -0.1062  0.1750  0.3804
   32c3c     C1  190 181.849   2.675 117.083 -0.3619  0.1691  0.0230
   32c3c     C2  191 181.723   2.644 117.287 -0.2623  0.2939  0.2989
   32c3c     C2  192 181.733   2.593 117.143 -0.2497  0.4868  0.2465
   32c3c     C1  193 181.726   2.882 117.111 -0.1589  0.2410  0.2762
   32c3c     C1  194 181.965   2.886 117.136 -0.1065 -0.0751 -0.1327
   32c3c     H1  195 181.786   2.844 117.357  0.1116  0.3714  0.2473
   32c3c     H1  196 181.913   2.724 117.340 -0.0017 -0.0741 -0.0190
   32c3c     H1  197 181.843   2.684 116.974 -0.4841 -0.1942 -0.0031
   32c3c     H1  198 181.940   2.620 117.106 -0.5505  0.0165  0.3839
   32c3c     HC  199 181.620   2.676 117.308 -0.1359  0.4529  0.6127
   32c3c     HC  200 181.748   2.566 117.358 -0.1164  0.3360  0.2896
   32c3c     HC  201 181.640   2.609 117.088 -0.2461  0.3056  0.2289
   32c3c     HC  202 181.754   2.486 117.142 -0.3850  0.4609  0.1705
   32c3c     H1  203 181.717   2.972 117.171  0.9462  0.6999 -0.2292
   32c3c     H1  204 181.736   2.915 117.007 -0.3415 -0.2908  0.0838
   32c3c     H1  205 181.630   2.831 117.119 -0.1489  0.4109  1.2452
   32c3c     H1  206 181.972   2.914 117.031 -0.0618 -0.6304 -0.2771
   32c3c     H1  207 181.954   2.978 117.192  0.0866 -0.0787 -0.0809
   32c3c     C2  208 182.104   2.826 117.177 -0.3001 -0.0830 -0.0882
   32c3c     HC  209 182.125   2.732 117.126 -0.3226  0.1728 -0.5655
   32c3c     HC  210 182.107   2.804 117.284 -0.4138  0.3017 -0.0094
   32c3c     CT  211 182.219   2.922 117.145 -0.5043  0.2685 -0.0093
   32c3c     HC  212 182.208   3.015 117.200 -0.3603 -0.0913  0.6218
   32c3c     HC  213 182.221   2.948 117.039 -0.6060  0.9374  0.1454
   32c3c     HC  214 182.315   2.878 117.170 -0.4241  0.2852 -0.3276
   33c3c     N4  215  35.351  58.699 276.623  0.0269  0.2717 -0.0095
   33c3c     C1  216  35.231  58.646 276.557  0.2938  0.5074  0.1832
   33c3c     C1  217  35.377  58.595 276.723  0.0373  0.2827 -0.1068
   33c3c     C2  218  35.251  58.493 276.547 -0.0966  0.3699  0.2001
   33c3c     C2  219  35.361  58.462 276.649 -0.1994  0.3170  0.2867
   33c3c     C1  220  35.460  58.710 276.526  0.1465  0.2591 -0.1016
   33c3c     C1  221  35.334  58.833 276.686 -0.1610  0.2391  0.1829
   33c3c     H1  222  35.210  58.691 276.460 -0.4563  0.2729  0.2580
   33c3c     H1  223  35.144  58.663 276.620  0.1740  0.3333  0.0481
   33c3c     H1  224  35.473  58.604 276.773  0.2983 -0.0818 -0.5215
   33c3c     H1  225  35.299  58.595 276.799  0.3650  0.8127  0.2556
   33c3c     HC  226  35.284  58.461 276.448 -0.0555  0.6903  0.0805
   33c3c     HC  227  35.159  58.440 276.572  0.1024  0.1719  0.4831
   33c3c     HC  228  35.455  58.435 276.600 -0.2386  0.2976  0.2249
   33c3c     HC  229  35.334  58.380 276.715 -0.3235  0.1143 -0.0349
   33c3c     H1  230  35.486  58.617 276.475  0.1726  0.1814  0.0702
   33c3c     H1  231  35.437  58.781 276.447  0.2252  0.0992 -0.2731
   33c3c     H1  232  35.551  58.746 276.574 -0.1119  0.8256 -0.0066
   33c3c     H1  233  35.430  58.855 276.732 -0.0562  0.3615 -0.0985
   33c3c     H1  234  35.319  58.909 276.610  0.8303  0.3995  0.1317
   33c3c     C2  235  35.220  58.852 276.791 -0.4965  0.3182  0.1053
   33c3c     HC  236  35.231  58.780 276.872 -0.4041  0.3770  0.1580
   33c3c     HC  237  35.120  58.841 276.749 -0.5204  0.8954  0.0348
   33c3c     CT  238  35.232  58.990 276.855 -0.2713  0.3346  0.3432
   33c3c     HC  239  35.212  59.071 276.784 -0.4213  0.8310  0.9545
   33c3c     HC  240  35.332  59.005 276.897 -0.3127  0.1823  0.4724
   33c3c     HC  241  35.162  59.003 276.937  0.0817  0.0114  0.6868
   34c3c     N4  242  84.626 136.509 134.651 -1.1033 -0.8467 -0.8148
   34c3c     C1  243  84.577 136.558 134.781  0.3606 -0.4082  0.0008
   34c3c     C1  244  84.553 136.588 134.553  1.3624  0.4969  0.4042
   34c3c     C2  245  84.581 136.711 134.769  0.7166 -0.0805  1.6044
   34c3c     C2  246  84.530 136.723 134.621 -0.3053 -0.1388  0.5353
   34c3c     C1  247  84.775 136.541 134.654  1.3240  0.3894 -0.4624
   34c3c     C1  248  84.588 136.371 134.635 -1.2182  0.8941  0.0925
   34c3c     H1  249  84.633 136.531 134.870 -0.7068  1.4473  1.2738
   34c3c     H1  250  84.482 136.520 134.820 -0.1265  1.4826  0.7188
   34c3c     H1  251  84.615 136.615 134.467  2.2901  0.0218  0.9108
   34c3c     H1  252  84.469 136.532 134.513  0.3080 -0.1772  3.4360
   34c3c     HC  253  84.681 136.746 134.795  1.2934 -1.5821  1.4857
   34c3c     HC  254  84.516 136.753 134.846  0.5753  1.1207  0.8275
   34c3c     HC  255  84.577 136.803 134.564  3.5130 -1.9476  1.0998
   34c3c     HC  256  84.422 136.742 134.618  0.0600  1.7992 -1.0085
   34c3c     H1  257  84.844 136.513 134.574  4.4541 -1.2836  2.7204
   34c3c     H1  258  84.802 136.646 134.639  2.0306  0.6136  2.0919
   34c3c     H1  259  84.814 136.491 134.742 -1.0128 -1.9023 -0.6777
   34c3c     H1  260  84.479 136.360 134.637 -1.0079 -1.5778  3.6780
   34c3c     H1  261  84.625 136.338 134.538 -0.2275 -0.2821  0.8621
   34c3c     C2  262  84.650 136.276 134.751 -0.7077 -0.5483 -0.5259
   34c3c     HC  263  84.640 136.304 134.856 -7.3364 -0.0783 -1.0347
   34c3c     HC  264  84.753 136.248 134.729  0.0761 -0.0426  2.3285
   34c3c     CT  265  84.587 136.137 134.753 -0.0337  0.3621  0.0811
   34c3c     HC  266  84.604 136.095 134.852 -0.2026 -1.2230 -0.5465
   34c3c     HC  267  84.627 136.070 134.677 -0.1375 -0.9931  1.2106
   34c3c     HC  268  84.478 136.139 134.751 -0.0588 -0.7368 -1.2580
   35c3c     N4  269 152.158 209.656 118.188 -0.2079 -0.0192 -0.1225
   35c3c     C1  270 152.169 209.542 118.096 -0.2666  0.0764 -0.1781
   35c3c     C1  271 152.205 209.600 118.315 -0.0335  0.0916 -0.1838
   35c3c     C2  272 152.302 209.474 118.132 -0.2478  0.1425 -0.3548
   35c3c     C2  273 152.326 209.513 118.279 -0.0483  0.0939 -0.2824
   35c3c     C1  274 152.247 209.765 118.144 -0.3831  0.1124 -0.1686
   35c3c     C1  275 152.022 209.714 118.196 -0.2756 -0.0114  0.0003
   35c3c     H1  276 152.162 209.570 117.991 -0.2387  0.2591 -0.1268
   35c3c     H1  277 152.091 209.468 118.114 -0.1414 -0.0089  0.1138
   35c3c     H1  278 152.227 209.674 118.392  0.0870  0.1182 -0.2583
   35c3c     H1  279 152.131 209.532 118.358 -0.0153  0.1047 -0.1179
   35c3c     HC  280 152.383 209.511 118.070 -0.1956  0.0491 -0.3513
   35c3c     HC  281 152.297 209.366 118.120 -0.0499  0.1237 -0.3029
   35c3c     HC  282 152.419 209.568 118.288  0.0259 -0.0108 -0.4169
   35c3c     HC  283 152.334 209.425 118.343  0.0163  0.0957 -0.2832
   35c3c     H1  284 152.216 209.805 118.047 -0.5241  0.2543 -0.0629
   35c3c     H1  285 152.246 209.848 118.214 -0.2635  0.1017 -0.1717
   35c3c     H1  286 152.352 209.735 118.133 -0.3545  0.2014 -0.2619
   35c3c     H1  287 152.024 209.800 118.263 -0.2769 -0.0125 -0.0085
   35c3c     H1  288 151.995 209.753 118.098 -0.2470  0.0607  0.0159
   35c3c     C2  289 151.907 209.622 118.244 -0.1538 -0.0693 -0.0194
   35c3c     HC  290 151.923 209.589 118.346 -0.1345 -0.2356 -0.0597
   35c3c     HC  291 151.899 209.532 118.182 -0.2555 -0.0442 -0.0458
   35c3c     CT  292 151.772 209.693 118.238 -0.1972 -0.0994  0.0895
   35c3c     HC  293 151.771 209.783 118.301 -0.1290 -0.0808  0.0808
   35c3c     HC  294 151.692 209.628 118.274 -0.2149 -0.0596  0.0831
   35c3c     HC  295 151.746 209.723 118.136 -0.1684  0.0002  0.1165
   36c3c     N4  296 150.681 250.069  12.365  0.0712 -0.2768  0.2697
   36c3c     C1  297 150.654 250.210  12.397 -0.0039 -0.2490  0.2967
   36c3c     C1  298 150.553 250.003  12.392  0.1751 -0.3654  0.2671
   36c3c     C2  299 150.511 250.237  12.348 -0.1395 -0.3686  0.4807
   36c3c     C2  300 150.444 250.100  12.345  0.1109 -0.4186  0.2443
   36c3c     C1  301 150.715 250.058  12.222 -0.0784 -0.2353  0.1925
   36c3c     C1  302 150.796 250.012  12.439  0.2085 -0.3311  0.0430
   36c3c     H1  303 150.727 250.279  12.355 -0.1555 -0.1242  0.2928
   36c3c     H1  304 150.653 250.227  12.505  0.1760 -0.3834  0.3203
   36c3c     H1  305 150.545 249.904  12.346  0.3041 -0.4137  0.3553
   36c3c     H1  306 150.539 249.989  12.499  0.2420 -0.4447  0.2668
   36c3c     HC  307 150.511 250.281  12.248 -0.1797 -0.2154  0.5402
   36c3c     HC  308 150.458 250.306  12.413  0.1122 -0.4617  0.8015
   36c3c     HC  309 150.412 250.077  12.243  0.3181 -0.5003  0.2015
   36c3c     HC  310 150.356 250.096  12.409  0.0397 -0.6576  0.1285
   36c3c     H1  311 150.808 250.110  12.199 -0.4269  0.2622 -0.0724
   36c3c     H1  312 150.730 249.954  12.192  0.1358 -0.2212  0.2579
   36c3c     H1  313 150.640 250.099  12.155 -0.3155 -0.5793  0.2334
   36c3c     H1  314 150.812 249.910  12.404  0.0438 -0.2928 -0.0949
   36c3c     H1  315 150.886 250.067  12.412  0.1804 -0.3158  0.0233
   36c3c     C2  316 150.789 250.009  12.593  0.3625 -0.5071  0.0383
   36c3c     HC  317 150.708 249.945  12.627  0.3153 -0.4701 -0.0122
   36c3c     HC  318 150.771 250.108  12.636  0.0217 -0.6306  0.1867
   36c3c     CT  319 150.920 249.956  12.653  0.4901 -0.3942 -0.1314
   36c3c     HC  320 151.004 250.019  12.626  0.4277 -0.4355 -0.3638
   36c3c     HC  321 150.942 249.856  12.617  0.3558 -0.4728  0.0255
   36c3c     HC  322 150.914 249.953  12.762  0.6125 -0.2205 -0.1182
   37c3c     N4  323  12.937 190.735  60.234 -0.3336 -0.2661 -0.1368
   37c3c     C1  324  13.063 190.776  60.302  0.1101  0.4450  0.6823
   37c3c     C1  325  12.866 190.643  60.336  0.9252 -0.1604  0.2714
   37c3c     C2  326  13.026 190.790  60.454  0.6513 -0.8339 -0.0218
   37c3c     C2  327  12.899 190.707  60.472  0.3067 -0.8794 -0.1817
   37c3c     C1  328  12.845 190.846  60.206  1.2245  0.4769 -0.2697
   37c3c     C1  329  12.956 190.659  60.109 -0.4722  0.5240 -0.1234
   37c3c     H1  330  13.093 190.872  60.260 -0.4268  1.2300  2.0365
   37c3c     H1  331  13.142 190.703  60.286  0.2477  0.9134 -0.8097
   37c3c     H1  332  12.760 190.644  60.311  1.2521  1.0828 -1.1310
   37c3c     H1  333  12.901 190.540  60.334 -0.2635 -0.5845  0.1847
   37c3c     HC  334  13.010 190.897  60.462  1.7736 -0.6431 -0.2914
   37c3c     HC  335  13.111 190.761  60.516  0.3611 -0.9546  0.3195
   37c3c     HC  336  12.834 190.786  60.508  1.9359 -0.7343  2.5893
   37c3c     HC  337  12.895 190.630  60.549  3.7560 -1.7675 -0.7728
   37c3c     H1  338  12.747 190.807  60.178 -0.0867  3.0347  0.5988
   37c3c     H1  339  12.812 190.911  60.287 -0.5508  0.3230 -0.8367
   37c3c     H1  340  12.895 190.907  60.131 -0.8608 -0.4519 -2.4742
   37c3c     H1  341  12.864 190.653  60.051  1.3776 -0.9374 -2.9988
   37c3c     H1  342  13.015 190.711  60.034 -2.0671 -0.1085 -1.8389
   37c3c     C2  343  13.026 190.519  60.114  0.5113  0.0381 -0.4898
   37c3c     HC  344  12.950 190.448  60.145  0.8293 -0.1529 -0.1135
   37c3c     HC  345  13.107 190.506  60.187 -0.5199 -0.9966  0.4852
   37c3c     CT  346  13.072 190.482  59.976  0.1120  0.2685 -0.5518
   37c3c     HC  347  13.162 190.535  59.945  0.9166  1.3030  3.2150
   37c3c     HC  348  13.000 190.491  59.895 -0.7370 -0.1227  0.1604
   37c3c     HC  349  13.094 190.376  59.986 -3.3188 -0.7330 -3.1501
   38c3c     N4  350   9.489 167.893 206.620 -0.2105 -0.0784 -0.4598
   38c3c     C1  351   9.374 167.880 206.529 -0.1028 -0.1147 -0.4857
   38c3c     C1  352   9.598 167.825 206.547  0.0742 -0.1814 -0.6709
   38c3c     C2  353   9.428 167.887 206.385  0.0137  0.4749 -0.5576
   38c3c     C2  354   9.580 167.869 206.401  0.0176  0.3507 -0.2939
   38c3c     C1  355   9.521 168.035 206.642  0.1364 -0.0415 -0.4396
   38c3c     C1  356   9.469 167.840 206.756  0.3854 -0.0035 -0.4910
   38c3c     H1  357   9.296 167.954 206.545  0.1171 -0.0919  0.4828
   38c3c     H1  358   9.325 167.783 206.541  0.3618 -0.4009 -0.8075
   38c3c     H1  359   9.696 167.848 206.588 -0.1276 -0.3755 -0.0717
   38c3c     H1  360   9.587 167.716 206.547 -1.0398 -0.0945 -1.6014
   38c3c     HC  361   9.406 167.981 206.335  0.0600  0.4910 -0.5394
   38c3c     HC  362   9.383 167.808 206.323 -0.3110  1.0645 -1.0726
   38c3c     HC  363   9.633 167.963 206.385  0.3118  0.2101 -0.0829
   38c3c     HC  364   9.620 167.796 206.331 -0.3842  0.9611 -1.1565
   38c3c     H1  365   9.441 168.084 206.699  0.4993  0.2181 -0.1541
   38c3c     H1  366   9.612 168.048 206.700  0.4553  0.0896 -0.9806
   38c3c     H1  367   9.533 168.089 206.549 -0.3594  0.0387 -0.4554
   38c3c     H1  368   9.554 167.866 206.819  0.9388 -0.8501 -0.9147
   38c3c     H1  369   9.385 167.890 206.804  0.7131 -0.1403  0.2228
   38c3c     C2  370   9.445 167.689 206.772 -0.0372 -0.1699 -0.0834
   38c3c     HC  371   9.541 167.637 206.766  0.3890  0.6711 -0.5947
   38c3c     HC  372   9.387 167.648 206.689  0.3595 -0.2603 -0.3198
   38c3c     CT  373   9.375 167.648 206.902  0.3671  0.2626  0.1727
   38c3c     HC  374   9.424 167.691 206.989  1.3054  0.0228 -0.2338
   38c3c     HC  375   9.378 167.540 206.917 -0.0164  0.2606  0.2103
   38c3c     HC  376   9.271 167.679 206.904  0.5855  0.9618  0.7784
   39c3c     N4  377  91.020 154.948  96.734  0.1499 -0.0916 -0.1523
   39c3c     C1  378  91.157 154.905  96.760  0.5454 -0.1477 -0.3778
   39c3c     C1  379  90.946 154.824  96.698 -0.0287 -0.0942 -0.0146
   39c3c     C2  380  91.139 154.771  96.828  0.6059  0.6922 -0.6754
   39c3c     C2  381  91.000 154.721  96.795  0.2960 -0.6599 -0.1502
   39c3c     C1  382  90.964 155.007  96.854  0.2681  0.4985  0.1683
   39c3c     C1  383  91.012 155.058  96.639 -0.3836  0.4476 -0.0014
   39c3c     H1  384  91.225 154.976  96.808 -0.0198 -0.4237  0.8513
   39c3c     H1  385  91.201 154.881  96.663  0.3095  2.8290 -1.2726
   39c3c     H1  386  90.839 154.844  96.702 -0.2697 -1.4644  0.8447
   39c3c     H1  387  90.964 154.793  96.595 -0.1261 -3.0802  0.8139
   39c3c     HC  388  91.145 154.777  96.936  0.7204 -0.0043 -0.6368
   39c3c     HC  389  91.214 154.696  96.803  2.6330  1.5016  2.8047
   39c3c     HC  390  90.931 154.712  96.879  1.1689 -1.5931  0.4724
   39c3c     HC  391  90.999 154.621  96.752 -0.9059 -0.5384 -0.4459
   39c3c     H1  392  91.022 155.091  96.891 -0.3419  0.5053  1.0836
   39c3c     H1  393  90.858 155.033  96.850  0.1418 -0.1697 -1.1996
   39c3c     H1  394  90.967 154.942  96.942  2.4807  0.0582 -0.2061
   39c3c     H1  395  90.914 155.105  96.631 -0.5641 -0.2583 -2.1537
   39c3c     H1  396  91.077 155.137  96.676 -1.9189  0.7511  2.1340
   39c3c     C2  397  91.048 155.029  96.494  0.1721  0.7452 -0.2355
   39c3c     HC  398  90.966 154.982  96.440 -0.3305 -0.3786  1.4720
   39c3c     HC  399  91.137 154.966  96.483 -0.7991 -0.3137 -2.2452
   39c3c     CT  400  91.072 155.155  96.425 -0.1869 -0.5124 -0.6819
   39c3c     HC  401  91.158 155.209  96.464 -0.3191  0.9000 -2.3084
   39c3c     HC  402  90.984 155.218  96.440 -0.6486 -1.2731 -0.2131
   39c3c     HC  403  91.085 155.151  96.317 -1.1281 -0.4327 -0.8081
   40c3c     N4  404  35.398  58.952 277.536 -0.0181  0.0391  0.0220
   40c3c     C1  405  35.342  58.826 277.487 -0.0982 -0.0069  0.0567
   40c3c     C1  406  35.364  58.948 277.678  0.4242  0.1442 -0.1431
   40c3c     C2  407  35.365  58.718 277.595  0.0009  0.2797 -0.0475
   40c3c     C2  408  35.377  58.801 277.723 -0.0407  0.2456 -0.1269
   40c3c     C1  409  35.546  58.953 277.523  0.1031  0.1828  0.1151
   40c3c     C1  410  35.352  59.072 277.466  0.2467  0.0996  0.1126
   40c3c     H1  411  35.380  58.798 277.389 -0.6100  0.4268 -0.2615
   40c3c     H1  412  35.233  58.835 277.477 -0.1705 -0.0450  0.8188
   40c3c     H1  413  35.420  59.020 277.738  0.6192 -0.3334  0.2292
   40c3c     H1  414  35.259  58.975 277.693  0.6713  0.7992  0.4086
   40c3c     HC  415  35.457  58.664 277.578 -0.1214  0.0795 -0.0462
   40c3c     HC  416  35.282  58.647 277.600 -0.4302  0.7847  0.1054
   40c3c     HC  417  35.475  58.783 277.767 -0.1566  0.1278  0.0842
   40c3c     HC  418  35.302  58.773 277.797 -0.0315  0.6048  0.0200
   40c3c     H1  419  35.577  58.967 277.419  0.2366 -0.2324  0.1074
   40c3c     H1  420  35.592  59.036 277.577 -0.0981  0.0781  0.4312
   40c3c     H1  421  35.591  58.861 277.560  0.0411  0.2650  0.4233
   40c3c     H1  422  35.410  59.159 277.498 -0.4296  0.4612  0.3955
   40c3c     H1  423  35.374  59.064 277.359  0.3721  0.9420  0.0783
   40c3c     C2  424  35.201  59.110 277.479  0.0888 -0.1252  0.1939
   40c3c     HC  425  35.179  59.148 277.578  0.7775  0.7916 -0.0260
   40c3c     HC  426  35.134  59.026 277.461 -0.0933 -0.0215  0.3550
   40c3c     CT  427  35.166  59.221 277.377  0.2313 -0.1363  0.0470
   40c3c     HC  428  35.185  59.187 277.275 -1.2526 -0.9581  0.0600
   40c3c     HC  429  35.227  59.310 277.392  1.0200 -0.6017 -0.3800
   40c3c     HC  430  35.062  59.250 277.383  0.5386  0.8595  0.6595
   41c3c     N4  431 197.549 225.020  17.591 -0.1116  0.0499  0.1796
   41c3c     C1  432 197.508 225.153  17.638 -0.1494  0.0582  0.1790
   41c3c     C1  433 197.696 225.025  17.604 -0.0824  0.0078  0.2121
   41c3c     C2  434 197.598 225.184  17.759 -0.0105  0.3028  0.1042
   41c3c     C2  435 197.724 225.099  17.736 -0.0445  0.1298  0.1555
   41c3c     C1  436 197.495 224.916  17.680 -0.0543  0.0195  0.1500
   41c3c     C1  437 197.501 224.986  17.455 -0.0818  0.1274  0.1649
   41c3c     H1  438 197.402 225.161  17.661 -0.1089 -0.1614  0.3454
   41c3c     H1  439 197.529 225.228  17.561 -0.5112  0.0276  0.0458
   41c3c     H1  440 197.743 224.927  17.599 -0.2703 -0.0701  0.4941
   41c3c     H1  441 197.741 225.085  17.524  0.1979 -0.2798  0.1495
   41c3c     HC  442 197.550 225.156  17.852 -0.0769  0.5761  0.1522
   41c3c     HC  443 197.622 225.290  17.765 -0.0268  0.3428 -0.4317
   41c3c     HC  444 197.736 225.029  17.818  0.1614  0.2787  0.2558
   41c3c     HC  445 197.813 225.161  17.730 -0.0444  0.0966  0.1452
   41c3c     H1  446 197.386 224.913  17.675 -0.0346 -0.1194  0.0270
   41c3c     H1  447 197.531 224.817  17.653  0.0224  0.0408  0.1457
   41c3c     H1  448 197.519 224.931  17.785 -0.1191  0.2141  0.1395
   41c3c     H1  449 197.533 224.885  17.431 -0.1598  0.1572  0.0423
   41c3c     H1  450 197.392 224.985  17.455 -0.0740  0.2542  0.2733
   41c3c     C2  451 197.545 225.077  17.337 -0.0506  0.0210  0.1484
   41c3c     HC  452 197.654 225.079  17.328 -0.0427 -0.0177  0.2257
   41c3c     HC  453 197.512 225.179  17.351 -0.2586 -0.0050 -0.0161
   41c3c     CT  454 197.490 225.027  17.202 -0.0225 -0.2912  0.2734
   41c3c     HC  455 197.381 225.028  17.201 -0.0155 -0.3099  0.2934
   41c3c     HC  456 197.523 224.926  17.180  0.1539 -0.2544  0.3614
   41c3c     HC  457 197.525 225.092  17.122 -0.0550 -0.1986  0.3321
   42c3c     N4  458  35.769  59.274 276.925  0.0727  0.1270  0.2254
   42c3c     C1  459  35.753  59.377 276.821  0.0423  0.0556  0.3988
   42c3c     C1  460  35.780  59.152 276.843  0.0961  0.1688  0.4538
   42c3c     C2  461  35.856  59.338 276.712  0.0407  0.1621  0.0791
   42c3c     C2  462  35.865  59.187 276.720 -0.0108  0.1246  0.2446
   42c3c     C1  463  35.898  59.298 276.996  0.2285  0.2885 -0.0194
   42c3c     C1  464  35.661  59.274 277.026 -0.0196  0.1251  0.4857
   42c3c     H1  465  35.764  59.480 276.856  0.4329  0.1576 -0.0127
   42c3c     H1  466  35.653  59.370 276.778  0.0617  0.3329  0.2851
   42c3c     H1  467  35.823  59.071 276.901  0.7143  0.1761  0.0224
   42c3c     H1  468  35.683  59.115 276.808  0.1749 -0.3169  0.7619
   42c3c     HC  469  35.953  59.384 276.728  0.4071 -0.4024 -0.4877
   42c3c     HC  470  35.822  59.372 276.614  0.8729  0.4618 -0.0692
   42c3c     HC  471  35.968  59.155 276.736 -0.3168 -0.8380  0.3323
   42c3c     HC  472  35.827  59.139 276.630 -0.3394 -0.3418  0.6368
   42c3c     H1  473  35.985  59.293 276.931  0.0413  0.5985 -0.3183
   42c3c     H1  474  35.897  59.398 277.039 -0.0171  0.3230 -0.1196
   42c3c     H1  475  35.915  59.225 277.075  0.5193  0.5275  0.1159
   42c3c     H1  476  35.679  59.191 277.096 -0.1196 -0.0775  0.2431
   42c3c     H1  477  35.667  59.365 277.086  0.7454 -0.0827  0.7323
   42c3c     C2  478  35.513  59.261 276.976  0.0349  0.1321  0.2773
   42c3c     HC  479  35.501  59.167 276.923 -0.2732  0.0674  0.4591
   42c3c     HC  480  35.486  59.340 276.906  0.1000  0.8117  1.0139
   42c3c     CT  481  35.413  59.258 277.092  0.1104  0.3423  0.3183
   42c3c     HC  482  35.422  59.349 277.151 -0.3040  0.4847  0.1363
   42c3c     HC  483  35.433  59.171 277.155  0.2119  0.4087  0.3595
   42c3c     HC  484  35.311  59.251 277.054  0.0208 -0.5356  0.7201
   43c3c     N4  485  36.456  58.302 277.075 -0.1873  0.1459 -0.0677
   43c3c     C1  486  36.580  58.229 277.039 -0.1733 -0.0724 -0.3789
   43c3c     C1  487  36.499  58.386 277.186 -0.3244  0.1257  0.1477
   43c3c     C2  488  36.696  58.330 277.060 -0.0184  0.0445 -0.2337
   43c3c     C2  489  36.641  58.438 277.152 -0.0265 -0.2620  0.3233
   43c3c     C1  490  36.422  58.390 276.963 -0.1287  0.2420 -0.1790
   43c3c     C1  491  36.333  58.224 277.106 -0.3298  0.2179  0.0708
   43c3c     H1  492  36.574  58.188 276.938 -0.1452 -0.3713 -0.2613
   43c3c     H1  493  36.596  58.145 277.106  0.1108 -0.0628 -0.4292
   43c3c     H1  494  36.427  58.465 277.207 -0.5132  0.0018  0.0040
   43c3c     H1  495  36.508  58.325 277.276 -0.1234 -0.3422 -0.1612
   43c3c     HC  496  36.731  58.372 276.966 -0.1902  0.4171 -0.1528
   43c3c     HC  497  36.782  58.280 277.105  0.2439 -0.1971 -1.0032
   43c3c     HC  498  36.638  58.533 277.099 -0.5312 -0.2595  0.3816
   43c3c     HC  499  36.700  58.451 277.242 -0.1156 -0.2813  0.4182
   43c3c     H1  500  36.402  58.333 276.872 -0.3944  0.1617 -0.0504
   43c3c     H1  501  36.329  58.441 276.986 -0.1331  0.3030 -0.3240
   43c3c     H1  502  36.497  58.465 276.940 -0.0157  0.0962 -0.3189
   43c3c     H1  503  36.253  58.294 277.132 -0.0950  0.6684 -0.4171
   43c3c     H1  504  36.296  58.176 277.015  0.3445  0.0157 -0.0669
   43c3c     C2  505  36.343  58.117 277.218 -0.1802  0.0485  0.1082
   43c3c     HC  506  36.363  58.163 277.315  0.0430  0.2413 -0.0291
   43c3c     HC  507  36.427  58.050 277.199  0.1087  0.3521  0.3248
   43c3c     CT  508  36.216  58.033 277.227 -0.3359  0.2382  0.1135
   43c3c     HC  509  36.192  57.983 277.133 -1.1669  0.7784  0.0600
   43c3c     HC  510  36.129  58.092 277.256 -0.3476  0.1034  0.3567
   43c3c     HC  511  36.233  57.954 277.301  0.5066 -0.4161 -0.7655
   44c3c     N4  512  13.292 191.336  61.811  0.3931 -0.3596 -0.0278
   44c3c     C1  513  13.365 191.390  61.693  0.3428 -0.6126  0.5367
   44c3c     C1  514  13.161 191.303  61.751  0.8858  0.0886 -0.3242
   44c3c     C2  515  13.338 191.294  61.574 -0.0469 -0.6511  0.2296
   44c3c     C2  516  13.200 191.243  61.616 -0.5763 -0.4487 -0.2560
   44c3c     C1  517  13.342 191.205  61.859  0.2985 -0.2909 -0.5515
   44c3c     C1  518  13.280 191.444  61.920 -0.1416 -0.2444  0.3288
   44c3c     H1  519  13.472 191.395  61.713  0.4045 -1.4218  0.4182
   44c3c     H1  520  13.344 191.493  61.664  1.5843 -0.9227 -1.5984
   44c3c     H1  521  13.089 191.243  61.806  1.8785 -0.2914  0.5590
   44c3c     H1  522  13.108 191.398  61.746  0.8351  0.0533 -0.6573
   44c3c     HC  523  13.405 191.209  61.561 -2.4755 -3.0877  2.7654
   44c3c     HC  524  13.344 191.351  61.482  0.5496  0.1041  0.7358
   44c3c     HC  525  13.201 191.134  61.620 -0.4212 -0.4318  0.0440
   44c3c     HC  526  13.130 191.268  61.537  0.3143 -0.1947 -0.9776
   44c3c     H1  527  13.277 191.156  61.931  1.0320 -2.3808 -1.2931
   44c3c     H1  528  13.370 191.125  61.790  2.4060 -0.3877  0.3494
   44c3c     H1  529  13.436 191.212  61.914  0.1694  1.8091 -0.5617
   44c3c     H1  530  13.381 191.465  61.955  0.3083  1.5381 -1.9469
   44c3c     H1  531  13.253 191.547  61.896  0.3928 -0.3337 -0.6772
   44c3c     C2  532  13.199 191.403  62.045  0.4811  0.1504 -0.1341
   44c3c     HC  533  13.241 191.318  62.100  0.1417 -1.2269 -1.9208
   44c3c     HC  534  13.094 191.387  62.019 -0.2472  0.4363  2.4849
   44c3c     CT  535  13.187 191.516  62.152  1.0133 -0.1753 -0.2310
   44c3c     HC  536  13.109 191.495  62.225  1.6164  0.1480  0.5123
   44c3c     HC  537  13.151 191.613  62.117  1.5977  1.1769  2.7971
   44c3c     HC  538  13.276 191.528  62.214 -1.5372 -1.8552  3.9186
   45c3c     N4  539 181.792   3.369 116.968  0.1611 -0.0516 -0.0215
   45c3c     C1  540 181.897   3.405 116.872  0.1430 -0.2021 -0.2305
   45c3c     C1  541 181.855   3.257 117.040 -0.1442 -0.0731  0.0247
   45c3c     C2  542 182.029   3.400 116.952  0.2357 -0.1636 -0.1667
   45c3c     C2  543 182.003   3.295 117.058 -0.1707  0.0861 -0.0440
   45c3c     C1  544 181.770   3.482 117.061  0.2844 -0.0894 -0.0597
   45c3c     C1  545 181.661   3.337 116.906  0.1500 -0.1032 -0.1461
   45c3c     H1  546 181.882   3.501 116.823 -0.1142 -0.3700 -0.4788
   45c3c     H1  547 181.906   3.330 116.794 -0.2930 -0.6186  0.1268
   45c3c     H1  548 181.808   3.235 117.136 -0.3004  0.2181  0.0335
   45c3c     H1  549 181.852   3.165 116.983 -0.1088 -0.3341  0.4461
   45c3c     HC  550 182.051   3.497 116.997  0.3451 -0.0567 -0.4512
   45c3c     HC  551 182.114   3.374 116.889  0.1809 -0.3604 -0.1509
   45c3c     HC  552 182.023   3.335 117.157 -0.0685  0.7907 -0.3415
   45c3c     HC  553 182.068   3.209 117.043  0.2340  0.2782  0.5737
   45c3c     H1  554 181.735   3.570 117.007  0.1170  0.0611  0.3044
   45c3c     H1  555 181.696   3.458 117.136  0.2813  0.1107 -0.0072
   45c3c     H1  556 181.859   3.511 117.118  0.3769  0.0231 -0.2445
   45c3c     H1  557 181.592   3.309 116.987  0.0876 -0.0187 -0.1706
   45c3c     H1  558 181.618   3.426 116.862  0.0823 -0.0081  0.1099
   45c3c     C2  559 181.660   3.226 116.799  0.0516 -0.1149  0.0285
   45c3c     HC  560 181.697   3.132 116.841  0.1645 -0.0279  0.1298
   45c3c     HC  561 181.724   3.250 116.715 -0.5311 -0.2318 -0.4559
   45c3c     CT  562 181.520   3.201 116.744  0.0248  0.1540  0.1745
   45c3c     HC  563 181.458   3.146 116.815  0.0472  0.0786  0.1350
   45c3c     HC  564 181.524   3.141 116.653  0.0768  0.5057 -0.0548
   45c3c     HC  565 181.466   3.293 116.720  0.0271  0.2940  0.6954
   46c3c     N4  566  64.959 140.904 119.181  0.2484 -0.2206 -0.5349
   46c3c     C1  567  64.823 140.944 119.156 -1.4028  0.1895 -0.9747
   46c3c     C1  568  64.949 140.816 119.305 -0.5427  0.0592  0.4609
   46c3c     C2  569  64.734 140.843 119.221  0.1000  1.3782 -0.3790
   46c3c     C2  570  64.824 140.741 119.294  0.2722 -0.8754 -0.3506
   46c3c     C1  571  65.006 140.830 119.070  0.0441 -0.1036  0.1004
   46c3c     C1  572  65.038 141.020 119.194 -0.3861 -0.4949 -0.3770
   46c3c     H1  573  64.803 140.981 119.056  0.5612  1.0262 -1.0745
   46c3c     H1  574  64.798 141.041 119.199 -3.0041  0.8523 -3.3774
   46c3c     H1  575  65.019 140.734 119.318 -2.5238 -2.0568 -1.5720
   46c3c     H1  576  64.941 140.872 119.398 -1.7607 -1.3751  1.2223
   46c3c     HC  577  64.661 140.812 119.147 -0.7372  0.6708  0.7237
   46c3c     HC  578  64.686 140.890 119.307 -1.2123  3.6603 -2.3318
   46c3c     HC  579  64.824 140.642 119.249 -0.3506 -2.5925  3.2670
   46c3c     HC  580  64.799 140.725 119.398 -1.7440  1.7226 -0.3684
   46c3c     H1  581  65.110 140.795 119.076  0.9049  2.2202 -0.6767
   46c3c     H1  582  64.943 140.745 119.044  0.3326 -0.5144  0.7383
   46c3c     H1  583  65.012 140.885 118.976  2.0565  0.3388  0.4659
   46c3c     H1  584  65.040 141.057 119.092  0.4455  2.2675  0.5925
   46c3c     H1  585  65.004 141.103 119.257 -1.1776 -0.1802 -1.2049
   46c3c     C2  586  65.186 140.991 119.232 -0.3429  0.0880  0.9051
   46c3c     HC  587  65.244 140.912 119.184 -0.0511  1.8801 -1.7515
   46c3c     HC  588  65.191 140.981 119.341  2.2872  1.6333  0.9920
   46c3c     CT  589  65.270 141.109 119.191  0.4861 -0.2604 -0.0816
   46c3c     HC  590  65.308 141.107 119.088  0.3295  1.9885 -0.2169
   46c3c     HC  591  65.365 141.108 119.244  1.3706  0.0745 -1.5952
   46c3c     HC  592  65.241 141.214 119.203 -6.9830 -1.9669 -0.5270
   47c3c     N4  593  13.657 190.299  58.923  0.5378  0.0911  0.3590
   47c3c     C1  594  13.723 190.322  59.055 -0.3418  0.4295 -0.2152
   47c3c     C1  595  13.767 190.290  58.821 -1.0692 -0.7653  0.0007
   47c3c     C2  596  13.848 190.231  59.041  0.1949 -0.5053 -0.5096
   47c3c     C2  597  13.884 190.217  58.891  0.0185 -0.7816 -0.1814
   47c3c     C1  598  13.589 190.172  58.924 -0.9957 -0.6143 -0.2475
   47c3c     C1  599  13.558 190.401  58.883 -0.0697 -0.5663  0.3857
   47c3c     H1  600  13.657 190.314  59.142 -1.7746 -1.7764 -1.4620
   47c3c     H1  601  13.762 190.423  59.057  2.2189 -0.5295 -0.0021
   47c3c     H1  602  13.743 190.247  58.724 -2.7776  0.4090 -0.1101
   47c3c     H1  603  13.796 190.394  58.809 -0.1952 -0.9811  0.0042
   47c3c     HC  604  13.842 190.138  59.098  1.8920  0.5592  1.4466
   47c3c     HC  605  13.930 190.283  59.090 -1.4419  2.4900 -0.8315
   47c3c     HC  606  13.871 190.112  58.863  1.2641 -0.5681 -1.6579
   47c3c     HC  607  13.979 190.257  58.858 -1.0150  1.8310 -0.1109
   47c3c     H1  608  13.508 190.176  58.997 -1.1289  1.0902 -0.4813
   47c3c     H1  609  13.539 190.170  58.827 -0.2620  1.9988 -0.6928
   47c3c     H1  610  13.653 190.085  58.941  0.5130  0.3578 -0.8087
   47c3c     H1  611  13.560 190.396  58.774  0.0427 -0.4659  0.3799
   47c3c     H1  612  13.462 190.376  58.927 -0.4556 -0.0301 -0.1394
   47c3c     C2  613  13.597 190.543  58.910 -0.0010 -0.1694 -0.1910
   47c3c     HC  614  13.688 190.572  58.857  1.4049  1.9716  3.2462
   47c3c     HC  615  13.599 190.577  59.013 -0.2550  1.1369 -0.6061
   47c3c     CT  616  13.486 190.640  58.854 -0.1246  0.3193  0.6952
   47c3c     HC  617  13.389 190.601  58.886 -0.7159  0.2340 -1.1615
   47c3c     HC  618  13.485 190.653  58.746  1.6613  1.5407  0.8049
   47c3c     HC  619  13.483 190.741  58.895 -2.0403  0.4095  0.4011
   48c3c     N4  620  36.771  58.727 277.736  0.0558 -0.1920  0.0040
   48c3c     C1  621  36.907  58.728 277.790  0.1871 -0.5698 -0.3421
   48c3c     C1  622  36.786  58.638 277.619 -0.1633 -0.2412 -0.1096
   48c3c     C2  623  36.959  58.585 277.778  0.0372 -0.4744 -0.1687
   48c3c     C2  624  36.876  58.523 277.667 -0.2843 -0.4852 -0.0566
   48c3c     C1  625  36.671  58.671 277.827  0.0048 -0.3772  0.1326
   48c3c     C1  626  36.732  58.862 277.692 -0.0108  0.0292  0.1024
   48c3c     H1  627  36.912  58.764 277.892  0.6736 -0.6266 -0.3322
   48c3c     H1  628  36.975  58.793 277.735  0.1866 -0.8281 -0.6455
   48c3c     H1  629  36.692  58.606 277.575 -0.0131 -0.1397 -0.5086
   48c3c     H1  630  36.839  58.689 277.539  0.3330 -0.3638  0.1187
   48c3c     HC  631  36.945  58.531 277.871 -0.1806 -0.6272 -0.3024
   48c3c     HC  632  37.066  58.583 277.754 -0.0425 -0.8944 -0.5126
   48c3c     HC  633  36.819  58.439 277.707  0.1559 -0.5587  0.4125
   48c3c     HC  634  36.938  58.487 277.584 -0.2735 -0.1465 -0.2007
   48c3c     H1  635  36.673  58.722 277.923  0.1698 -1.0363  0.4724
   48c3c     H1  636  36.571  58.682 277.784 -0.0532  0.0571  0.3713
   48c3c     H1  637  36.683  58.565 277.849  0.0255 -0.3696  0.1596
   48c3c     H1  638  36.802  58.899 277.618 -0.0477 -0.4897 -0.1534
   48c3c     H1  639  36.636  58.856 277.640 -0.3221  0.2276  0.6783
   48c3c     C2  640  36.724  58.963 277.807  0.1948 -0.1031 -0.0497
   48c3c     HC  641  36.805  58.951 277.879 -0.0939 -0.5886  0.1976
   48c3c     HC  642  36.632  58.946 277.863  0.2521  0.1002  0.0787
   48c3c     CT  643  36.729  59.107 277.756  0.3306  0.0588  0.2983
   48c3c     HC  644  36.709  59.177 277.838  0.0535 -0.2710  0.4926
   48c3c     HC  645  36.656  59.123 277.678  0.3116  0.3277  0.3723
   48c3c     HC  646  36.828  59.132 277.716  0.2233  0.1406  0.0772
   49c3c     N4  647 151.577 209.405 118.641  0.1345 -0.1456  0.0914
   49c3c     C1  648 151.633 209.508 118.551  0.0551 -0.0779  0.0870
   49c3c     C1  649 151.678 209.396 118.747  0.2592 -0.1384  0.0014
   49c3c     C2  650 151.696 209.614 118.643  0.0915 -0.0671  0.0582
   49c3c     C2  651 151.725 209.540 118.773  0.2024 -0.1338  0.0155
   49c3c     C1  652 151.448 209.448 118.697  0.1807 -0.2078  0.2357
   49c3c     C1  653 151.565 209.274 118.575  0.1331 -0.1009  0.0499
   49c3c     H1  654 151.559 209.550 118.483  0.0535 -0.1478  0.0659
   49c3c     H1  655 151.712 209.465 118.490  0.0293  0.0024  0.0090
   49c3c     H1  656 151.642 209.347 118.837  0.3393 -0.2015  0.0036
   49c3c     H1  657 151.765 209.339 118.714  0.2462 -0.0635 -0.1111
   49c3c     HC  658 151.627 209.696 118.661 -0.0301 -0.1829  0.1347
   49c3c     HC  659 151.787 209.655 118.599  0.0193 -0.0281 -0.0719
   49c3c     HC  660 151.670 209.585 118.855  0.1847 -0.1753  0.0203
   49c3c     HC  661 151.831 209.543 118.799  0.2281 -0.1752 -0.1011
   49c3c     H1  662 151.407 209.373 118.764  0.3096 -0.2679  0.2603
   49c3c     H1  663 151.455 209.541 118.754  0.1648 -0.2676  0.3180
   49c3c     H1  664 151.374 209.466 118.619  0.1113 -0.2214  0.2867
   49c3c     H1  665 151.663 209.239 118.543  0.0801 -0.1082 -0.0336
   49c3c     H1  666 151.530 209.200 118.647  0.2492 -0.1032  0.1058
   49c3c     C2  667 151.473 209.269 118.451  0.0399 -0.0408  0.1070
   49c3c     HC  668 151.506 209.342 118.376  0.0557 -0.0149  0.1445
   49c3c     HC  669 151.370 209.294 118.477  0.0832 -0.0339  0.2223
   49c3c     CT  670 151.473 209.130 118.385 -0.0265 -0.0107  0.0768
   49c3c     HC  671 151.437 209.053 118.453 -0.0892 -0.0563 -0.0096
   49c3c     HC  672 151.573 209.102 118.353 -0.0646 -0.1155  0.1229
   49c3c     HC  673 151.409 209.129 118.297 -0.0143 -0.0518  0.0643
   50c3c     N4  674  20.253 129.568  34.181  0.0041 -0.5390 -0.1905
   50c3c     C1  675  20.328 129.664  34.099 -0.0527 -0.4006 -0.1243
   50c3c     C1  676  20.201 129.473  34.082  0.1282 -0.5546 -0.2779
   50c3c     C2  677  20.398 129.580  33.991  0.1590 -0.4198 -0.0864
   50c3c     C2  678  20.316 129.451  33.983  0.2607 -0.5110  0.0221
   50c3c     C1  679  20.345 129.499  34.273  0.0145 -0.4793 -0.1559
   50c3c     C1  680  20.148 129.629  34.266 -0.0370 -0.6422 -0.2561
   50c3c     H1  681  20.397 129.725  34.156 -0.0577 -0.3897 -0.1169
   50c3c     H1  682  20.260 129.732  34.048 -0.1092 -0.4622 -0.1430
   50c3c     H1  683  20.163 129.381  34.125  0.0556 -0.5265 -0.2777
   50c3c     H1  684  20.119 129.517  34.025  0.1984 -0.6283 -0.4373
   50c3c     HC  685  20.501 129.558  34.018  0.1199 -0.2001  0.2276
   50c3c     HC  686  20.399 129.633  33.895  0.1809 -0.3770 -0.0611
   50c3c     HC  687  20.377 129.366  34.013  0.4230 -0.3124  0.2502
   50c3c     HC  688  20.280 129.433  33.882  0.5462 -0.6903 -0.0461
   50c3c     H1  689  20.390 129.569  34.344  0.1075 -0.4160 -0.2758
   50c3c     H1  690  20.294 129.423  34.332  0.0476 -0.4251 -0.0659
   50c3c     H1  691  20.428 129.450  34.224  0.0869 -0.5242  0.0280
   50c3c     H1  692  20.100 129.551  34.325 -0.0325 -0.7176 -0.3384
   50c3c     H1  693  20.195 129.696  34.338 -0.1803 -0.6140 -0.1749
   50c3c     C2  694  20.034 129.709  34.196  0.0172 -0.6993 -0.4636
   50c3c     HC  695  19.980 129.647  34.124  0.1038 -0.6542 -0.5713
   50c3c     HC  696  20.075 129.794  34.141  0.1460 -0.6716 -0.3133
   50c3c     CT  697  19.932 129.763  34.297 -0.0944 -0.9204 -0.5535
   50c3c     HC  698  19.877 129.683  34.346 -0.0881 -1.0217 -0.7138
   50c3c     HC  699  19.859 129.827  34.247 -0.0755 -0.9641 -0.6398
   50c3c     HC  700  19.981 129.822  34.374 -0.1548 -1.1120 -0.3691
   51fsi    FSI  701 181.613   3.782 116.577 -0.8125 -0.0600 -0.4691
   51fsi    SBT  702 181.685   3.700 116.697  0.1768 -0.4206 -0.1035
   51fsi    NBT  703 181.830   3.768 116.700  0.3093 -0.1475  0.2339
   51fsi    OBT  704 181.607   3.731 116.812  0.3866 -0.3937  0.2125
   51fsi    OBT  705 181.680   3.562 116.650  0.3681  0.1496 -0.2436
   51fsi    SBT  706 181.905   3.845 116.814  0.3448 -0.0415 -0.3515
   51fsi    OBT  707 182.046   3.856 116.785 -0.4232 -0.3000 -0.9086
   51fsi    OBT  708 181.866   3.808 116.945 -0.2716  0.1032 -0.6248
   51fsi    FSI  709 181.853   3.993 116.790 -0.0950 -0.3607 -0.6734
   52fsi    FSI  710  83.135 138.995 127.559 -0.2883  0.3597 -0.5865
   52fsi    SBT  711  83.159 138.868 127.651 -0.7902 -0.1759 -0.0814
   52fsi    NBT  712  83.189 138.751 127.545 -0.6034 -0.8276 -0.0167
   52fsi    OBT  713  83.277 138.897 127.722  0.4184 -0.7523  0.7417
   52fsi    OBT  714  83.044 138.859 127.729  0.5336  0.3777 -0.2351
   52fsi    SBT  715  83.147 138.596 127.566 -0.6702  0.2168  0.7230
   52fsi    OBT  716  83.196 138.531 127.451  0.4168  1.6335 -0.4706
   52fsi    OBT  717  83.021 138.578 127.632  0.2544  0.0919  0.4485
   52fsi    FSI  718  83.253 138.558 127.686 -0.8224  0.2202 -0.4529
   53fsi    FSI  719   8.507 167.563 206.967  0.3523 -0.6640  0.7321
   53fsi    SBT  720   8.637 167.615 206.899  0.1865  0.3220  0.3235
   53fsi    NBT  721   8.592 167.612 206.751  0.1713  0.1394  1.0113
   53fsi    OBT  722   8.662 167.742 206.954  0.1929  0.2323  0.3233
   53fsi    OBT  723   8.734 167.511 206.931 -0.0516 -0.1923  0.3836
   53fsi    SBT  724   8.528 167.727 206.665  0.0220  0.0296  0.4544
   53fsi    OBT  725   8.588 167.732 206.534 -0.2039  0.0349  0.3430
   53fsi    OBT  726   8.506 167.855 206.728  0.4003  0.2440  0.1576
   53fsi    FSI  727   8.383 167.674 206.630  0.4085  0.0446 -0.2499
   54fsi    FSI  728   9.276 168.265 207.094  0.0964 -0.0498 -0.1769
   54fsi    SBT  729   9.266 168.141 207.003  0.1300  0.2607 -0.4690
   54fsi    NBT  730   9.131 168.074 207.049  0.6074  0.3051  0.0679
   54fsi    OBT  731   9.259 168.199 206.871 -0.5437  0.1833  0.0984
   54fsi    OBT  732   9.378 168.058 207.035  0.0204  0.0947 -0.6077
   54fsi    SBT  733   8.984 168.132 207.041  0.4301 -0.3253 -0.1070
   54fsi    OBT  734   8.889 168.032 206.999  0.1124 -0.0296  0.2849
   54fsi    OBT  735   8.970 168.256 206.974 -0.5169  0.4608 -0.3931
   54fsi    FSI  736   8.950 168.164 207.189  0.2605 -0.1164  0.2494
   55fsi    FSI  737   9.144 168.406 206.390 -0.4310  0.1412  0.2095
   55fsi    SBT  738   9.177 168.288 206.492 -0.6282 -0.3855 -0.2651
   55fsi    NBT  739   9.043 168.204 206.496  0.1806  1.1023  0.3910
   55fsi    OBT  740   9.294 168.230 206.430 -0.1984  0.0232 -0.0631
   55fsi    OBT  741   9.201 168.352 206.617 -0.7781  0.2282 -0.0939
   55fsi    SBT  742   8.989 168.096 206.394 -0.3473 -0.2819 -0.3822
   55fsi    OBT  743   8.893 168.001 206.451 -1.0909  0.5487 -0.0597
   55fsi    OBT  744   9.092 168.040 206.310 -0.3635 -0.2066 -0.3213
   55fsi    FSI  745   8.894 168.175 206.299 -0.3788  0.3804 -0.0085
   56fsi    FSI  746 151.229 250.331  12.279 -0.1648  0.4537  0.1812
   56fsi    SBT  747 151.106 250.232  12.274 -0.2449  0.0511 -0.2194
   56fsi    NBT  748 151.161 250.110  12.352  0.2519 -0.3083 -0.2808
   56fsi    OBT  749 150.998 250.302  12.344 -0.4955  0.4057  0.2735
   56fsi    OBT  750 151.085 250.215  12.133 -0.3357 -0.1583 -0.0581
   56fsi    SBT  751 151.173 249.959  12.305  0.3541  0.3285 -0.2157
   56fsi    OBT  752 151.060 249.907  12.232  0.2664  0.2685 -0.0674
   56fsi    OBT  753 151.217 249.875  12.413 -0.1464  0.5817 -0.7775
   56fsi    FSI  754 151.294 249.959  12.208 -0.1654  0.5944 -0.4993
   57fsi    FSI  755  13.874 190.859  59.719  0.3276 -0.6607 -0.3773
   57fsi    SBT  756  13.932 190.811  59.590 -0.4059 -0.4729  0.2680
   57fsi    NBT  757  14.022 190.929  59.534 -0.6331 -0.0585 -0.3744
   57fsi    OBT  758  13.999 190.697  59.634  0.1939 -0.6414 -0.3911
   57fsi    OBT  759  13.822 190.789  59.497 -0.2635 -0.0841  0.1858
   57fsi    SBT  760  14.172 190.952  59.515  0.0531 -0.7623 -0.1084
   57fsi    OBT  761  14.206 190.999  59.380  0.3350 -0.0119 -0.2957
   57fsi    OBT  762  14.265 190.855  59.566 -0.7106 -0.0999  0.3661
   57fsi    FSI  763  14.195 191.082  59.609 -0.1505  0.3566  0.2462
   58fsi    FSI  764  36.266  58.887 276.885  0.3444  0.3070 -0.5049
   58fsi    SBT  765  36.141  58.926 276.976 -0.3510 -0.0900  0.0474
   58fsi    NBT  766  36.182  58.871 277.119  0.3263 -0.4534  0.0871
   58fsi    OBT  767  36.144  59.064 276.970 -0.0492  0.2918  0.1906
   58fsi    OBT  768  36.029  58.861 276.911 -0.0560 -0.0171 -0.2210
   58fsi    SBT  769  36.133  58.746 277.195 -0.1118 -0.0681  0.1488
   58fsi    OBT  770  35.999  58.703 277.159 -0.2176 -0.3860 -0.6828
   58fsi    OBT  771  36.170  58.751 277.335 -0.0838  0.3771  0.0823
   58fsi    FSI  772  36.225  58.631 277.135 -0.2319  0.2298 -0.2768
   59fsi    FSI  773  35.833  58.902 277.377  0.0413 -0.1515 -0.0941
   59fsi    SBT  774  35.884  59.022 277.293  0.0471  0.2193  0.0069
   59fsi    NBT  775  35.786  59.138 277.332  0.3471  0.1281  0.1298
   59fsi    OBT  776  36.018  59.038 277.341  0.2340 -0.1070  0.2471
   59fsi    OBT  777  35.867  58.978 277.158  0.3224 -0.0652 -0.3518
   59fsi    SBT  778  35.798  59.259 277.431 -0.0731 -0.1216 -0.1017
   59fsi    OBT  779  35.901  59.250 277.530  0.3316 -0.0790  0.3282
   59fsi    OBT  780  35.665  59.300 277.467  0.3918  0.0634  0.4209
   59fsi    FSI  781  35.854  59.371 277.337  0.0502 -0.0432  0.0936
   60fsi    FSI  782  35.364  58.568 277.957 -0.3155  0.0453 -0.2452
   60fsi    SBT  783  35.424  58.434 277.896  0.3102 -0.1505  0.0387
   60fsi    NBT  784  35.321  58.324 277.945 -0.0659  0.1222 -0.1572
   60fsi    OBT  785  35.417  58.454 277.756 -0.4570 -0.3835  0.0656
   60fsi    OBT  786  35.557  58.423 277.957  0.0152 -0.2514 -0.8034
   60fsi    SBT  787  35.325  58.237 278.078 -0.2081  0.3340 -0.1374
   60fsi    OBT  788  35.192  58.201 278.116  0.0223 -0.3802  0.2003
   60fsi    OBT  789  35.415  58.292 278.175  0.2822  0.2847 -0.0717
   60fsi    FSI  790  35.387  58.100 278.022 -0.3836  0.1981  0.0828
   61fsi    FSI  791  35.559  58.225 276.860 -0.0027  0.2668  0.2635
   61fsi    SBT  792  35.572  58.293 277.003 -0.0464  0.4734 -0.2282
   61fsi    NBT  793  35.501  58.192 277.100  0.0045 -0.0669 -0.2798
   61fsi    OBT  794  35.714  58.294 277.023 -0.2494 -0.0086 -0.1866
   61fsi    OBT  795  35.506  58.422 276.991 -0.1178  0.4378 -0.5087
   61fsi    SBT  796  35.375  58.198 277.189 -0.1388  0.2174  0.0105
   61fsi    OBT  797  35.335  58.332 277.230 -0.4124  0.0796 -0.0360
   61fsi    OBT  798  35.375  58.090 277.287 -0.4384  0.1196 -0.5127
   61fsi    FSI  799  35.264  58.149 277.088 -0.4742  0.3003  0.0323
   62fsi    FSI  800  13.596 190.310  60.125  0.3072  0.0953 -0.4209
   62fsi    SBT  801  13.494 190.378  60.020 -0.0389 -0.3296 -0.7858
   62fsi    NBT  802  13.555 190.354  59.876 -0.1611 -0.1391 -1.0438
   62fsi    OBT  803  13.372 190.308  60.057 -0.7269  0.4055  0.6101
   62fsi    OBT  804  13.500 190.517  60.055  0.4876 -0.0418 -0.6391
   62fsi    SBT  805  13.528 190.219  59.799  0.2013  0.0478 -0.5867
   62fsi    OBT  806  13.510 190.102  59.884  0.1134  0.7072  0.2517
   62fsi    OBT  807  13.604 190.203  59.674  0.5217  0.0395 -0.6335
   62fsi    FSI  808  13.386 190.235  59.744  0.0406  0.0351  0.1224
   63fsi    FSI  809  66.561 141.585 122.380  0.1627  0.4312 -0.3767
   63fsi    SBT  810  66.433 141.525 122.452 -0.0444 -0.8360 -0.1011
   63fsi    NBT  811  66.473 141.461 122.591  0.5926 -0.7159 -0.2391
   63fsi    OBT  812  66.340 141.642 122.456 -0.3102  0.8021 -0.3902
   63fsi    OBT  813  66.394 141.423 122.353  0.1646  0.1928 -0.1973
   63fsi    SBT  814  66.454 141.513 122.738 -0.9092  0.3134  0.5960
   63fsi    OBT  815  66.362 141.430 122.817 -0.8452  0.2944  0.2295
   63fsi    OBT  816  66.445 141.655 122.757  0.1418 -0.8123  0.1535
   63fsi    FSI  817  66.600 141.510 122.805 -0.5033  0.4869  0.0942
   64fsi    FSI  818  35.813  58.620 278.006 -0.0428 -0.1376 -0.2922
   64fsi    SBT  819  35.738  58.681 278.129 -0.1719 -0.0064 -0.1041
   64fsi    NBT  820  35.831  58.789 278.189 -0.2446 -0.2743  0.0359
   64fsi    OBT  821  35.626  58.743 278.068  0.0998 -0.1627  0.3852
   64fsi    OBT  822  35.710  58.567 278.214 -0.2776 -0.3881  0.0984
   64fsi    SBT  823  35.921  58.789 278.314  0.4475 -0.2828  0.0411
   64fsi    OBT  824  35.999  58.914 278.316  0.3967 -0.2627  0.1383
   64fsi    OBT  825  35.983  58.664 278.342 -0.1105 -0.0960 -0.0983
   64fsi    FSI  826  35.814  58.809 278.431 -0.2745 -0.0429  0.2823
   65fsi    FSI  827  14.056 190.797  58.831 -0.6421 -1.2170 -0.3468
   65fsi    SBT  828  14.025 190.719  58.961 -0.3772  0.3434  0.4889
   65fsi    NBT  829  13.969 190.815  59.077  0.3896 -0.0663  0.1887
   65fsi    OBT  830  13.937 190.615  58.918  0.6327  0.7311  0.1474
   65fsi    OBT  831  14.155 190.676  59.002  0.0711  0.4288  0.0030
   65fsi    SBT  832  13.827 190.881  59.060  0.6117  0.1484  0.3868
   65fsi    OBT  833  13.750 190.872  59.178  0.4143  0.9697 -0.8379
   65fsi    OBT  834  13.765 190.854  58.934 -0.6816  0.8447  0.0475
   65fsi    FSI  835  13.865 191.034  59.061  0.0383 -0.0057  0.4253
   66fsi    FSI  836  82.680 139.216 127.726  0.1704  0.1356  0.3974
   66fsi    SBT  837  82.808 139.134 127.737  1.0320 -0.6669  0.2510
   66fsi    NBT  838  82.815 139.087 127.886  1.0002  1.1787 -0.1600
   66fsi    OBT  839  82.782 139.021 127.651  0.8241 -1.6809  0.2531
   66fsi    OBT  840  82.903 139.232 127.707 -0.4854  0.8454 -0.4060
   66fsi    SBT  841  82.886 139.159 127.998 -0.2091  0.1261  0.1272
   66fsi    OBT  842  82.825 139.110 128.127  0.8916  0.0203 -0.1146
   66fsi    OBT  843  82.900 139.304 127.989 -0.1435  0.6048  0.8367
   66fsi    FSI  844  83.028 139.097 127.985 -0.8869  0.6155 -0.0434
   67fsi    FSI  845  13.511 191.232  59.539  0.0591  0.5931  0.2197
   67fsi    SBT  846  13.621 191.135  59.595 -0.4100 -0.0817 -0.2720
   67fsi    NBT  847  13.540 191.003  59.621  0.3146  0.3810 -0.0492
   67fsi    OBT  848  13.709 191.103  59.478  0.1880  0.0968  0.4451
   67fsi    OBT  849  13.680 191.205  59.707  0.1355 -0.0719 -0.6507
   67fsi    SBT  850  13.447 190.949  59.739  0.2890  0.0335  0.0963
   67fsi    OBT  851  13.329 190.890  59.689  0.0844  0.2074  0.0052
   67fsi    OBT  852  13.440 191.039  59.853 -0.1136 -0.1908  0.3677
   67fsi    FSI  853  13.539 190.824  59.788  0.0257  0.0664  0.1009
   68fsi    FSI  854  82.445 138.149 128.111  0.1142 -0.8393  1.0843
   68fsi    SBT  855  82.405 138.241 127.994 -0.2604 -0.0548  0.4937
   68fsi    NBT  856  82.442 138.373 128.049  0.3101 -0.2648  0.3669
   68fsi    OBT  857  82.478 138.182 127.882  0.6032 -0.3941 -0.1705
   68fsi    OBT  858  82.265 138.230 127.991  0.8252 -0.1849  0.1807
   68fsi    SBT  859  82.573 138.465 128.036  0.1014  0.0733 -0.0985
   68fsi    OBT  860  82.569 138.574 128.123  0.0874 -1.0708 -0.8910
   68fsi    OBT  861  82.611 138.476 127.899  0.0623  0.1827 -0.0285
   68fsi    FSI  862  82.696 138.390 128.108  1.0649  0.2548  0.0650
   69fsi    FSI  863  83.286 139.353 127.651 -0.0243  0.0794  0.3868
   69fsi    SBT  864  83.353 139.297 127.770 -0.2908 -0.5426  0.5433
   69fsi    NBT  865  83.445 139.412 127.819 -1.0155  0.5415  0.7080
   69fsi    OBT  866  83.248 139.249 127.850  0.4218  0.7847  0.4722
   69fsi    OBT  867  83.437 139.195 127.723 -0.0912  0.3738 -0.6886
   69fsi    SBT  868  83.414 139.521 127.931  0.0679  0.3262 -0.1814
   69fsi    OBT  869  83.530 139.548 128.012 -0.0105  0.5471  0.3897
   69fsi    OBT  870  83.286 139.496 127.994  0.1601  1.1398  0.5316
   69fsi    FSI  871  83.372 139.653 127.841  0.1201 -0.0849 -0.5505
   70fsi    FSI  872  82.736 139.143 128.720 -0.0473  1.3048  0.0656
   70fsi    SBT  873  82.855 139.160 128.623  0.2298 -0.5832 -0.5704
   70fsi    NBT  874  82.802 139.258 128.513  0.6960 -0.3950 -0.1733
   70fsi    OBT  875  82.963 139.208 128.700  0.5340 -0.1319  0.4217
   70fsi    OBT  876  82.868 139.032 128.559 -0.1558 -0.3606  0.3365
   70fsi    SBT  877  82.823 139.412 128.496  0.9159  0.0258  0.1347
   70fsi    OBT  878  82.735 139.478 128.396 -1.1637 -0.3413  1.0879
   70fsi    OBT  879  82.959 139.456 128.501 -0.3322  0.1819  1.0932
   70fsi    FSI  880  82.749 139.470 128.623  0.6337 -0.2400 -0.5707
   71fsi    FSI  881  34.941  58.468 277.055  0.3403  0.4550  0.1658
   71fsi    SBT  882  35.051  58.556 276.985 -0.2303  0.4524  0.2000
   71fsi    NBT  883  35.031  58.695 277.056  0.3755  0.3523  0.2207
   71fsi    OBT  884  35.176  58.486 277.014 -0.3535  0.0854 -0.2703
   71fsi    OBT  885  35.007  58.560 276.845  0.0364  0.2885 -0.0585
   71fsi    SBT  886  35.093  58.744 277.195 -0.3342  0.1575 -0.0452
   71fsi    OBT  887  35.124  58.883 277.195 -0.1069  0.7878  0.0130
   71fsi    OBT  888  35.194  58.658 277.257 -0.1292  0.1878 -0.0128
   71fsi    FSI  889  34.972  58.742 277.290 -0.1106  0.3137 -0.0772
   72fsi    FSI  890  85.790 141.869 114.303 -0.5555  0.5007 -0.0413
   72fsi    SBT  891  85.876 141.796 114.201  0.0515  0.0907 -0.0954
   72fsi    NBT  892  85.798 141.809 114.070  1.1279  0.1901 -0.2003
   72fsi    OBT  893  86.005 141.862 114.196  0.3559  0.2942 -0.8403
   72fsi    OBT  894  85.884 141.663 114.249  0.9944 -0.3962 -0.4977
   72fsi    SBT  895  85.832 141.851 113.920  0.0318 -0.1406 -0.6439
   72fsi    OBT  896  85.721 141.822 113.832 -0.0850 -0.5369  0.1825
   72fsi    OBT  897  85.969 141.831 113.874 -0.6616  0.0478 -0.2431
   72fsi    FSI  898  85.825 141.997 113.934 -0.1757 -0.3611 -0.6176
   73fsi    FSI  899  36.549  58.342 277.747 -0.1224 -0.4019 -0.2553
   73fsi    SBT  900  36.512  58.353 277.593 -0.3227  0.0621  0.0893
   73fsi    NBT  901  36.649  58.336 277.516  0.1334 -0.2883  0.1193
   73fsi    OBT  902  36.416  58.250 277.570  0.2230  0.1061 -0.3734
   73fsi    OBT  903  36.466  58.487 277.585  0.1664 -0.3347 -0.4019
   73fsi    SBT  904  36.723  58.208 277.473 -0.1091 -0.4466  0.1039
   73fsi    OBT  905  36.825  58.234 277.375 -0.1667  0.0217 -0.5011
   73fsi    OBT  906  36.637  58.094 277.447  0.1360  0.2228 -0.3727
   73fsi    FSI  907  36.799  58.162 277.603 -0.0316 -0.1940 -0.1104
   74fsi    FSI  908  36.522  58.789 277.159 -0.0652  0.1167  0.0247
   74fsi    SBT  909  36.533  58.810 277.317  0.3985 -0.0822  0.4824
   74fsi    NBT  910  36.433  58.931 277.341 -0.4864 -0.2776  0.4203
   74fsi    OBT  911  36.479  58.684 277.368 -0.2777 -0.1474  0.1551
   74fsi    OBT  912  36.670  58.838 277.348 -0.4682 -0.3845  0.0533
   74fsi    SBT  913  36.467  59.080 277.311  0.0924 -0.1952 -0.2153
   74fsi    OBT  914  36.346  59.159 277.321 -0.2555  0.4491  0.2715
   74fsi    OBT  915  36.551  59.101 277.196  0.2071 -0.2615  0.0359
   74fsi    FSI  916  36.552  59.125 277.439 -0.0244 -0.2939  0.2279
   75fsi    FSI  917 182.091   2.850 116.778 -0.3870  0.2187  0.3206
   75fsi    SBT  918 181.997   2.967 116.727 -0.2466 -0.4055  0.0611
   75fsi    NBT  919 181.853   2.917 116.772  0.1412 -0.2953  0.2621
   75fsi    OBT  920 182.040   3.080 116.803 -0.1997 -0.5620 -0.4103
   75fsi    OBT  921 182.019   2.974 116.586  0.0319 -0.4551 -0.0488
   75fsi    SBT  922 181.762   2.815 116.700 -0.0345  0.2512  0.3235
   75fsi    OBT  923 181.657   2.764 116.787 -0.0369  0.0068  0.6045
   75fsi    OBT  924 181.830   2.725 116.615  0.0637 -0.1386  0.8829
   75fsi    FSI  925 181.677   2.906 116.601 -0.2134 -0.0318  0.0873
   76fsi    FSI  926  82.598 139.718 127.961  0.4203 -0.4025 -0.7859
   76fsi    SBT  927  82.696 139.624 128.042 -0.2631  0.1931 -0.3743
   76fsi    NBT  928  82.839 139.701 128.051  0.1579  0.0634  0.5033
   76fsi    OBT  929  82.617 139.613 128.158  0.3725 -0.4159 -0.6037
   76fsi    OBT  930  82.696 139.524 127.941 -0.5100  0.6603  0.0338
   76fsi    SBT  931  82.941 139.743 128.162 -0.3280 -0.8703 -0.0406
   76fsi    OBT  932  83.070 139.683 128.147  1.3132 -0.1501 -0.0783
   76fsi    OBT  933  82.890 139.744 128.295 -0.3793 -0.2930  0.8077
   76fsi    FSI  934  82.966 139.898 128.124 -1.0064 -0.4763 -0.0680
   77fsi    FSI  935  35.890  58.353 278.441  0.0174 -0.2271  0.3355
   77fsi    SBT  936  35.791  58.233 278.425  0.0582 -0.1328  0.2834
   77fsi    NBT  937  35.848  58.137 278.319  0.2682 -0.4705  0.2574
   77fsi    OBT  938  35.796  58.174 278.559  0.4995 -0.3807 -0.0274
   77fsi    OBT  939  35.663  58.296 278.388  0.3349 -0.0373 -0.4519
   77fsi    SBT  940  35.811  58.124 278.168 -0.2511 -0.1427 -0.2888
   77fsi    OBT  941  35.917  58.062 278.097  0.3437 -0.0751  0.4246
   77fsi    OBT  942  35.755  58.241 278.106 -0.4395  0.4059  0.2719
   77fsi    FSI  943  35.699  58.014 278.167 -0.1222  0.2820 -0.1785
   78fsi    FSI  944 197.473 225.665  17.498 -0.0250 -0.1728 -0.2232
   78fsi    SBT  945 197.495 225.513  17.519 -0.0954 -0.3488 -0.1074
   78fsi    NBT  946 197.637 225.510  17.588  0.4179 -0.1298 -0.5579
   78fsi    OBT  947 197.390 225.473  17.607  0.0421  0.3640 -0.2528
   78fsi    OBT  948 197.497 225.460  17.383  0.0925  0.0774  0.2689
   78fsi    SBT  949 197.775 225.452  17.540 -0.2828  0.1045  0.0852
   78fsi    OBT  950 197.761 225.342  17.450  0.2018 -0.1652 -0.1236
   78fsi    OBT  951 197.869 225.441  17.653 -0.0790  0.0516  0.0604
   78fsi    FSI  952 197.828 225.573  17.458  0.1001  0.0508 -0.0490
   79fsi    FSI  953 152.035 209.316 118.735  0.2325 -0.1912 -0.2630
   79fsi    SBT  954 152.062 209.389 118.597 -0.0699  0.2877 -0.2033
   79fsi    NBT  955 151.944 209.343 118.508 -0.0856  0.0235 -0.2566
   79fsi    OBT  956 152.054 209.528 118.633  0.3999 -0.5024 -0.2385
   79fsi    OBT  957 152.193 209.339 118.559  0.3787 -0.0298 -0.1088
   79fsi    SBT  958 151.939 209.258 118.376  0.0513 -0.0202 -0.1063
   79fsi    OBT  959 152.058 209.267 118.293 -0.3028  0.2013 -0.0523
   79fsi    OBT  960 151.812 209.268 118.311 -0.1184  0.2021  0.0762
   79fsi    FSI  961 151.942 209.110 118.430  0.0159  0.0691 -0.2742
   80fsi    FSI  962  14.233 190.279  59.793 -0.9659  0.3036 -0.0932
   80fsi    SBT  963  14.193 190.388  59.897  0.1616  0.1672  0.2121
   80fsi    NBT  964  14.034 190.362  59.890  0.6270 -0.2062  0.4445
   80fsi    OBT  965  14.257 190.348  60.022 -0.3694  0.4267  0.0312
   80fsi    OBT  966  14.250 190.507  59.834 -0.3823 -0.3952 -0.0101
   80fsi    SBT  967  13.920 190.470  59.918  0.1533 -0.0832  1.0205
   80fsi    OBT  968  13.814 190.459  59.820 -0.0798  0.4872  0.0928
   80fsi    OBT  969  13.967 190.604  59.936 -0.0100 -0.4732 -0.0714
   80fsi    FSI  970  13.853 190.425  60.045 -0.2452 -0.2693  1.0595
   81fsi    FSI  971  35.999  58.703 277.556 -0.1619  0.2909  0.3418
   81fsi    SBT  972  36.014  58.553 277.599 -0.0111  0.0830 -0.0431
   81fsi    NBT  973  35.989  58.477 277.465 -0.2818  0.1772  0.1569
   81fsi    OBT  974  36.150  58.542 277.642  0.8076  0.0192  0.4653
   81fsi    OBT  975  35.910  58.533 277.693 -0.1031 -0.4017  0.1101
   81fsi    SBT  976  36.090  58.399 277.378  0.2330  0.0477 -0.2254
   81fsi    OBT  977  36.227  58.444 277.379 -0.0260 -0.0672  0.1281
   81fsi    OBT  978  36.034  58.371 277.251 -0.1987  0.2282 -0.3016
   81fsi    FSI  979  36.101  58.258 277.447 -0.3004  0.0204 -0.2461
   82fsi    FSI  980  13.345 190.790  59.155 -0.2154  0.2532  0.4829
   82fsi    SBT  981  13.361 190.806  59.325 -0.4000  0.2686 -0.3251
   82fsi    NBT  982  13.461 190.690  59.382  0.3378  0.8598  0.7861
   82fsi    OBT  983  13.435 190.927  59.339  0.6736 -0.2171  0.2833
   82fsi    OBT  984  13.225 190.813  59.378  0.0835  0.7134  0.5649
   82fsi    SBT  985  13.443 190.573  59.493  0.2866  0.2874 -0.2812
   82fsi    OBT  986  13.325 190.588  59.568  0.4407  0.4461  0.0189
   82fsi    OBT  987  13.557 190.532  59.566  0.4049  0.0700  0.5810
   82fsi    FSI  988  13.399 190.445  59.408  0.3329  0.0757  0.1670
   83fsi    FSI  989  82.412 139.926 128.566 -0.0723 -0.8040  0.2984
   83fsi    SBT  990  82.415 139.813 128.450  0.4098  0.4179  0.2615
   83fsi    NBT  991  82.259 139.795 128.415  0.0431  0.6663  0.0840
   83fsi    OBT  992  82.490 139.857 128.335  0.2338  0.0910 -0.4592
   83fsi    OBT  993  82.463 139.707 128.523  0.1452  0.8313 -0.6426
   83fsi    SBT  994  82.194 139.704 128.305 -0.0593 -0.0257  0.1160
   83fsi    OBT  995  82.072 139.646 128.358 -0.5302 -0.4414  0.2558
   83fsi    OBT  996  82.288 139.632 128.239 -0.6813 -0.8653 -0.5120
   83fsi    FSI  997  82.151 139.809 128.216  0.4950 -0.5204 -0.2919
   84fsi    FSI  998  36.152  58.722 277.894  0.1518 -0.1319 -0.0535
   84fsi    SBT  999  36.240  58.840 277.939  0.0243 -0.1335 -0.2264
   84fsi    NBT 1000  36.231  58.938 277.818  0.1639 -0.2888  0.2616
   84fsi    OBT 1001  36.174  58.888 278.058  0.0201 -0.3874  0.2459
   84fsi    OBT 1002  36.369  58.782 277.958  0.1929 -0.2352 -0.1349
   84fsi    SBT 1003  36.278  58.917 277.668  0.3093 -0.2535 -0.1479
   84fsi    OBT 1004  36.192  58.984 277.575 -0.2858 -0.2407 -0.1956
   84fsi    OBT 1005  36.318  58.786 277.633  0.0148 -0.2714  0.3365
   84fsi    FSI 1006  36.414  58.998 277.659 -0.2424  0.0725 -0.0345
   85fsi    FSI 1007  35.752  58.803 277.754  0.2169  0.2264 -0.3766
   85fsi    SBT 1008  35.818  58.935 277.803 -0.1155  0.1485  0.1752
   85fsi    NBT 1009  35.697  59.018 277.849  0.1612  0.4442  0.3151
   85fsi    OBT 1010  35.909  58.893 277.908 -0.4239 -0.2257  0.3016
   85fsi    OBT 1011  35.877  58.987 277.682  0.2508  0.0476 -0.0327
   85fsi    SBT 1012  35.655  59.091 277.986  0.2907 -0.1619  0.3206
   85fsi    OBT 1013  35.750  59.072 278.092  0.1796  0.2900  0.1187
   85fsi    OBT 1014  35.515  59.079 278.017 -0.2944  0.0888  0.5439
   85fsi    FSI 1015  35.668  59.240 277.953  0.1085 -0.0319  0.1780
   86fsi    FSI 1016  83.270 138.838 128.247  0.4857  0.1438 -0.2227
   86fsi    SBT 1017  83.182 138.798 128.131 -0.4200  0.1150  0.5676
   86fsi    NBT 1018  83.043 138.793 128.191 -0.3671 -0.3926 -0.6439
   86fsi    OBT 1019  83.195 138.883 128.023 -0.6777 -0.4518  0.3452
   86fsi    OBT 1020  83.243 138.674 128.104 -0.3939  0.2001  0.9850
   86fsi    SBT 1021  82.913 138.739 128.113  0.8893  0.6763  0.1974
   86fsi    OBT 1022  82.907 138.772 127.968 -0.7535  0.3078  0.1700
   86fsi    OBT 1023  82.792 138.764 128.196  0.3095 -0.2337 -0.9974
   86fsi    FSI 1024  82.934 138.586 128.120 -0.0584  0.1217  0.6943
   87fsi    FSI 1025  14.366 190.372  59.417 -0.1212  0.0696  0.3330
   87fsi    SBT 1026  14.285 190.503  59.432  0.3557 -0.0719 -0.1099
   87fsi    NBT 1027  14.151 190.452  59.485 -0.2661  0.1065 -0.0636
   87fsi    OBT 1028  14.360 190.580  59.531 -0.2300 -0.2595 -0.3479
   87fsi    OBT 1029  14.276 190.561  59.302  0.1343 -0.7081 -0.1794
   87fsi    SBT 1030  14.019 190.439  59.406 -1.2498 -0.5992 -0.2384
   87fsi    OBT 1031  14.003 190.531  59.293 -0.1195  0.3847 -0.8307
   87fsi    OBT 1032  13.905 190.421  59.501 -0.6137 -0.4314  0.5485
   87fsi    FSI 1033  14.024 190.303  59.331 -0.3668  0.6651 -0.8936
   88fsi    FSI 1034  82.390 138.534 128.854 -0.5838  0.3428  0.6495
   88fsi    SBT 1035  82.426 138.454 128.731 -0.5185 -0.4487  1.0525
   88fsi    NBT 1036  82.457 138.557 128.618  0.6986 -0.4185  0.5457
   88fsi    OBT 1037  82.540 138.394 128.792 -0.7331 -0.1144 -1.3226
   88fsi    OBT 1038  82.306 138.375 128.701 -0.3473 -0.0482 -0.6668
   88fsi    SBT 1039  82.448 138.551 128.463  0.2099 -0.7331 -0.6507
   88fsi    OBT 1040  82.460 138.430 128.392 -0.2139  0.1165  0.4587
   88fsi    OBT 1041  82.518 138.659 128.399  0.5326 -0.8534  0.6287
   88fsi    FSI 1042  82.298 138.590 128.459  0.0581 -0.4557 -0.5869
   89fsi    FSI 1043  92.480 142.983 101.487  0.3501 -0.2028  0.2583
   89fsi    SBT 1044  92.498 142.938 101.343  0.7009 -0.3406 -0.4065
   89fsi    NBT 1045  92.649 142.891 101.339  0.5424  0.6443 -0.8122
   89fsi    OBT 1046  92.395 142.836 101.326 -1.1432 -0.4920 -0.6067
   89fsi    OBT 1047  92.489 143.067 101.264  0.7838 -0.9088 -0.7975
   89fsi    SBT 1048  92.761 142.958 101.430 -0.5753  0.7031 -0.5836
   89fsi    OBT 1049  92.743 143.088 101.497 -0.5629  0.5758  0.8637
   89fsi    OBT 1050  92.885 142.965 101.349 -0.2000  0.4484  0.1148
   89fsi    FSI 1051  92.794 142.837 101.547  0.8975  0.1424  0.1282
   90fsi    FSI 1052  36.013  59.403 278.009  0.4406 -0.0040  0.3170
   90fsi    SBT 1053  36.063  59.258 277.977  0.3960 -0.2289  0.3193
   90fsi    NBT 1054  36.218  59.282 277.954 -0.0021 -0.3778 -0.2025
   90fsi    OBT 1055  36.037  59.183 278.097  0.2120 -0.1929  0.1163
   90fsi    OBT 1056  35.988  59.224 277.859  0.1591 -0.2843 -0.0212
   90fsi    SBT 1057  36.299  59.295 277.819  0.1127 -0.4073  0.2802
   90fsi    OBT 1058  36.224  59.277 277.696  0.1867 -0.2749  0.0800
   90fsi    OBT 1059  36.429  59.234 277.819 -0.0533 -0.1460  0.2543
   90fsi    FSI 1060  36.337  59.454 277.818 -0.2050 -0.0185  0.3491
   91fsi    FSI 1061   8.580 168.365 207.046 -0.3202  0.4744  0.5164
   91fsi    SBT 1062   8.542 168.276 206.915  0.0797  0.0105  0.0974
   91fsi    NBT 1063   8.638 168.333 206.811 -0.4812  0.6545  0.3033
   91fsi    OBT 1064   8.572 168.139 206.955  0.3759  0.3848 -0.2725
   91fsi    OBT 1065   8.407 168.314 206.890 -0.3702 -0.1096 -0.0483
   91fsi    SBT 1066   8.746 168.270 206.716  0.0997  0.2960 -0.1536
   91fsi    OBT 1067   8.763 168.132 206.733 -0.0755 -0.0121  0.3123
   91fsi    OBT 1068   8.869 168.344 206.702 -0.1243 -0.1299  0.3408
   91fsi    FSI 1069   8.666 168.290 206.583 -0.2934 -0.1682 -0.4687
   92fsi    FSI 1070  36.593  58.489 278.371 -0.0493 -0.4440 -0.0239
   92fsi    SBT 1071  36.559  58.567 278.242 -0.2817 -0.2321  0.0080
   92fsi    NBT 1072  36.647  58.695 278.255 -0.2492 -0.6172 -0.2332
   92fsi    OBT 1073  36.591  58.477 278.140 -0.4630 -0.3804 -0.0651
   92fsi    OBT 1074  36.423  58.601 278.258  0.3618 -0.2388 -0.1402
   92fsi    SBT 1075  36.793  58.724 278.202  0.1451 -0.5116  0.0007
   92fsi    OBT 1076  36.798  58.856 278.145  0.2752 -0.2349 -0.1355
   92fsi    OBT 1077  36.861  58.620 278.128 -0.0798 -0.6349 -0.5811
   92fsi    FSI 1078  36.882  58.740 278.335  0.2976 -0.1706 -0.1210
   93fsi    FSI 1079  83.248 139.932 128.579 -0.9257  0.5933 -0.2164
   93fsi    SBT 1080  83.266 139.781 128.532 -0.2511 -0.5043  0.1528
   93fsi    NBT 1081  83.146 139.696 128.601 -0.4341  0.2085  0.2587
   93fsi    OBT 1082  83.248 139.796 128.388  0.0289  0.7184  0.5229
   93fsi    OBT 1083  83.402 139.753 128.581 -0.1932  1.2469 -0.7726
   93fsi    SBT 1084  83.119 139.642 128.745  0.7916  0.2036  0.1765
   93fsi    OBT 1085  83.204 139.523 128.771  0.5393 -0.5336  0.1623
   93fsi    OBT 1086  82.989 139.596 128.757 -0.1501  0.4702  0.8961
   93fsi    FSI 1087  83.140 139.747 128.864 -0.1253 -0.1668  0.3750
   94fsi    FSI 1088  82.376 138.756 127.916  0.5977  0.2873 -0.1276
   94fsi    SBT 1089  82.475 138.878 127.941 -0.6789  0.7902 -0.3440
   94fsi    NBT 1090  82.386 139.006 127.909  0.7869 -0.8007 -0.2889
   94fsi    OBT 1091  82.514 138.857 128.083  0.2191 -0.2419  0.7875
   94fsi    OBT 1092  82.568 138.859 127.838  0.2317  0.1880  0.0128
   94fsi    SBT 1093  82.361 139.127 128.015  0.0572  0.2480  0.1903
   94fsi    OBT 1094  82.324 139.242 127.933 -0.4984 -0.4705 -0.1335
   94fsi    OBT 1095  82.452 139.160 128.120  0.3086 -0.2386  0.4022
   94fsi    FSI 1096  82.227 139.096 128.093  0.1007  0.9628  0.4381
   95fsi    FSI 1097  35.840  58.739 276.722  0.0266  0.3418  0.1884
   95fsi    SBT 1098  35.827  58.589 276.775  0.0428  0.2016 -0.1005
   95fsi    NBT 1099  35.963  58.529 276.726 -0.2820  0.7402  0.2512
   95fsi    OBT 1100  35.819  58.603 276.921 -0.1643 -0.0812  0.5455
   95fsi    OBT 1101  35.712  58.541 276.705  0.0225  0.5800 -0.0109
   95fsi    SBT 1102  36.081  58.464 276.806 -0.2754 -0.0780 -0.0596
   95fsi    OBT 1103  36.165  58.381 276.725  0.0345  0.1955 -0.3653
   95fsi    OBT 1104  36.048  58.416 276.935 -0.0748  0.0907 -0.1455
   95fsi    FSI 1105  36.170  58.589 276.831 -0.1613 -0.0074 -0.0808
   96fsi    FSI 1106  83.243 139.195 128.157  0.2328 -0.1593 -0.7607
   96fsi    SBT 1107  83.165 139.259 128.284 -0.4838 -0.4055 -0.1068
   96fsi    NBT 1108  83.282 139.291 128.382  0.4719  0.0347  0.2879
   96fsi    OBT 1109  83.117 139.378 128.223  0.1626  0.2714 -0.9539
   96fsi    OBT 1110  83.066 139.164 128.337 -0.8473  0.0809  0.3536
   96fsi    SBT 1111  83.324 139.201 128.497 -0.7972 -0.2613 -0.2520
   96fsi    OBT 1112  83.326 139.055 128.478 -0.9961  0.6763  0.4074
   96fsi    OBT 1113  83.275 139.252 128.626  0.0451  0.4151 -0.3277
   96fsi    FSI 1114  83.480 139.217 128.516 -1.0619  1.0443 -0.5681
   97fsi    FSI 1115  12.846 190.976  59.437  0.7809  0.0415  0.1638
   97fsi    SBT 1116  12.847 190.917  59.588 -0.6583 -0.4401  0.5422
   97fsi    NBT 1117  12.774 190.778  59.578  0.2853  0.8957 -0.6555
   97fsi    OBT 1118  12.988 190.905  59.608 -0.0300  0.3493 -0.0539
   97fsi    OBT 1119  12.775 191.015  59.664  0.0742  1.1295  0.9762
   97fsi    SBT 1120  12.830 190.634  59.564  0.5606 -0.0180  0.3272
   97fsi    OBT 1121  12.742 190.539  59.621  0.1899  0.2660  0.5630
   97fsi    OBT 1122  12.967 190.620  59.597 -0.3284  0.6660 -0.0207
   97fsi    FSI 1123  12.828 190.611  59.407  0.2162  0.7356 -0.0448
   98fsi    FSI 1124  35.698  58.658 277.408  0.1181  0.0592  0.1990
   98fsi    SBT 1125  35.646  58.611 277.269  0.3081 -0.0724 -0.2455
   98fsi    NBT 1126  35.667  58.737 277.175 -0.2213  0.1119 -0.3138
   98fsi    OBT 1127  35.736  58.505 277.230  0.5229 -0.0902  0.0526
   98fsi    OBT 1128  35.508  58.572 277.293 -0.0005  0.0747 -0.0058
   98fsi    SBT 1129  35.564  58.804 277.075  0.0846  0.4989  0.1879
   98fsi    OBT 1130  35.453  58.718 277.042  0.1923  0.0133  0.0576
   98fsi    OBT 1131  35.630  58.867 276.966 -0.3000  0.0562  0.3996
   98fsi    FSI 1132  35.494  58.918 277.158 -0.2186  0.4221  0.2183
   99fsi    FSI 1133 181.895   3.209 117.589  0.0923  0.1985 -0.0737
   99fsi    SBT 1134 181.877   3.206 117.433  0.0315  0.0176  0.1512
   99fsi    NBT 1135 181.754   3.109 117.418  0.3020  0.0732 -0.1723
   99fsi    OBT 1136 181.850   3.342 117.402 -0.1328 -0.0187 -0.1410
   99fsi    OBT 1137 181.998   3.147 117.380  0.2171 -0.0713 -0.2995
   99fsi    SBT 1138 181.608   3.141 117.380 -0.0312  0.3490 -0.1503
   99fsi    OBT 1139 181.531   3.022 117.360  0.1390  0.2092  0.3213
   99fsi    OBT 1140 181.595   3.247 117.282 -0.1317  0.5621  0.1259
   99fsi    FSI 1141 181.548   3.204 117.513  0.3255  0.1166  0.2832
  100fsi    FSI 1142   9.016 167.536 206.662  0.0988 -0.3902  0.6982
  100fsi    SBT 1143   9.048 167.643 206.554 -0.5185  0.1574  0.0549
  100fsi    NBT 1144   9.087 167.765 206.644 -0.1096  1.1285  0.6089
  100fsi    OBT 1145   9.156 167.582 206.483 -0.4517 -0.2947 -0.0062
  100fsi    OBT 1146   8.923 167.665 206.487  0.3760 -0.1710  0.3030
  100fsi    SBT 1147   8.997 167.854 206.736  0.3270  0.3911 -0.1285
  100fsi    OBT 1148   8.852 167.831 206.734 -0.2458 -0.6704  0.3833
  100fsi    OBT 1149   9.044 167.988 206.738  0.3034 -0.2186  0.4495
  100fsi    FSI 1150   9.042 167.807 206.878  0.4682 -0.0814 -0.5237
 299.15686 299.15686 299.15686
