L3P1 short trajectory practice
 1650
    1Li+     Li    1   4.274   4.271   4.905
    2Li+     Li    2   0.846   5.105   5.317
    3Li+     Li    3   3.486   1.523   1.877
    4Li+     Li    4   3.631   1.332   0.496
    5Li+     Li    5   4.119   0.636   5.219
    6Li+     Li    6   2.308   1.521   2.205
    7Li+     Li    7   2.879   5.027   0.012
    8Li+     Li    8   3.066   5.432   0.923
    9Li+     Li    9   1.483   3.858   4.190
   10Li+     Li   10   5.841   4.478   4.712
   11Li+     Li   11   5.196   2.671   4.130
   12Li+     Li   12   4.840   2.148   5.328
   13Li+     Li   13   1.462   5.296   2.938
   14Li+     Li   14   3.583   1.163   2.345
   15Li+     Li   15   1.230   5.516   4.289
   16Li+     Li   16   3.892   5.273   3.739
   17Li+     Li   17   1.189   1.704   3.908
   18Li+     Li   18   4.973   5.024   4.533
   19Li+     Li   19   0.665   3.581   1.994
   20Li+     Li   20   4.968   1.769   1.093
   21Li+     Li   21   1.468   0.814   0.593
   22Li+     Li   22   5.249   5.515   4.646
   23Li+     Li   23   3.427   1.092   2.917
   24Li+     Li   24   4.727   4.928   5.235
   25Li+     Li   25   2.264   3.844   3.324
   26Li+     Li   26   4.408   0.373   1.579
   27Li+     Li   27   4.287   4.906   2.546
   28Li+     Li   28   1.102   3.082   5.658
   29Li+     Li   29   1.603   1.435   4.201
   30Li+     Li   30   5.388   2.832   1.282
   31Li+     Li   31   5.297   2.770   4.788
   32Li+     Li   32   1.172   1.736   0.925
   33Li+     Li   33   0.863   2.503   3.452
   34Li+     Li   34   1.320   5.717   5.023
   35Li+     Li   35   4.990   3.686   1.199
   36Li+     Li   36   4.869   1.897   4.416
   37Li+     Li   37   1.788   5.374   1.916
   38Li+     Li   38   1.302   5.002   2.054
   39Li+     Li   39   1.206   2.067   5.156
   40Li+     Li   40   0.380   0.998   0.477
   41Li+     Li   41   2.824   5.356   5.143
   42Li+     Li   42   5.396   1.872   5.013
   43Li+     Li   43   0.594   1.238   2.312
   44Li+     Li   44   2.566   4.713   1.607
   45Li+     Li   45   4.110   3.855   3.460
   46Li+     Li   46   4.434   5.574   0.743
   47Li+     Li   47   0.750   0.888   3.222
   48Li+     Li   48   1.930   1.273   3.170
   49Li+     Li   49   4.447   4.990   3.835
   50Li+     Li   50   4.632   5.145   3.373
   51Li+     Li   51   3.796   4.512   5.378
   52Li+     Li   52   3.321   0.494   1.585
   53Li+     Li   53   5.575   2.372   1.984
   54Li+     Li   54   1.218   4.265   1.820
   55Li+     Li   55   1.511   4.466   0.978
   56Li+     Li   56   2.086   3.785   2.045
   57Li+     Li   57   1.961   0.290   2.989
   58Li+     Li   58   2.365   4.220   0.909
   59Li+     Li   59   2.476   5.237   4.485
   60Li+     Li   60   2.423   0.290   2.602
   61Li+     Li   61   4.475   2.833   4.741
   62Li+     Li   62   3.510   5.418   2.248
   63Li+     Li   63   2.613   2.206   2.716
   64Li+     Li   64   3.075   4.645   4.918
   65Li+     Li   65   5.452   0.965   1.758
   66Li+     Li   66   4.511   3.654   3.150
   67Li+     Li   67   5.314   4.240   2.661
   68Li+     Li   68   5.237   3.270   1.984
   69Li+     Li   69   2.211   5.194   1.056
   70Li+     Li   70   3.672   5.053   0.333
   71Li+     Li   71   0.544   0.894   4.627
   72Li+     Li   72   0.667   5.341   3.205
   73Li+     Li   73   3.967   4.057   1.093
   74Li+     Li   74   1.572   3.354   2.475
   75Li+     Li   75   4.319   1.378   3.711
   76c3c     N4   76   2.445   1.340   1.049
   76c3c     C1   77   2.363   1.256   0.960
   76c3c     C1   78   2.541   1.406   0.959
   76c3c     C2   79   2.454   1.210   0.845
   76c3c     C2   80   2.570   1.308   0.844
   76c3c     C1   81   2.360   1.442   1.112
   76c3c     C1   82   2.509   1.265   1.160
   76c3c     H1   83   2.283   1.315   0.915
   76c3c     H1   84   2.314   1.174   1.011
   76c3c     H1   85   2.496   1.495   0.913
   76c3c     H1   86   2.631   1.441   1.010
   76c3c     HC   87   2.401   1.211   0.750
   76c3c     HC   88   2.490   1.108   0.860
   76c3c     HC   89   2.577   1.361   0.749
   76c3c     HC   90   2.665   1.256   0.859
   76c3c     H1   91   2.284   1.397   1.176
   76c3c     H1   92   2.418   1.510   1.175
   76c3c     H1   93   2.307   1.504   1.040
   76c3c     H1   94   2.563   1.335   1.223
   76c3c     H1   95   2.431   1.224   1.224
   76c3c     C2   96   2.605   1.150   1.125
   76c3c     HC   97   2.690   1.186   1.066
   76c3c     HC   98   2.555   1.073   1.067
   76c3c     CT   99   2.662   1.083   1.252
   76c3c     HC  100   2.583   1.041   1.313
   76c3c     HC  101   2.717   1.155   1.313
   76c3c     HC  102   2.730   1.002   1.225
   77c3c     N4  103   3.809   2.203   5.091
   77c3c     C1  104   3.789   2.348   5.108
   77c3c     C1  105   3.955   2.185   5.103
   77c3c     C2  106   3.912   2.418   5.050
   77c3c     C2  107   4.021   2.311   5.047
   77c3c     C1  108   3.741   2.130   5.199
   77c3c     C1  109   3.753   2.149   4.964
   77c3c     H1  110   3.785   2.373   5.214
   77c3c     H1  111   3.695   2.383   5.063
   77c3c     H1  112   3.984   2.178   5.208
   77c3c     H1  113   3.991   2.094   5.056
   77c3c     HC  114   3.942   2.503   5.111
   77c3c     HC  115   3.895   2.456   4.949
   77c3c     HC  116   4.107   2.341   5.108
   77c3c     HC  117   4.057   2.297   4.946
   77c3c     H1  118   3.633   2.145   5.196
   77c3c     H1  119   3.759   2.023   5.193
   77c3c     H1  120   3.775   2.161   5.298
   77c3c     H1  121   3.772   2.042   4.961
   77c3c     H1  122   3.645   2.159   4.966
   77c3c     C2  123   3.802   2.208   4.830
   77c3c     HC  124   3.909   2.195   4.818
   77c3c     HC  125   3.781   2.315   4.825
   77c3c     CT  126   3.732   2.141   4.711
   77c3c     HC  127   3.624   2.150   4.718
   77c3c     HC  128   3.757   2.035   4.705
   77c3c     HC  129   3.763   2.187   4.618
   78c3c     N4  130   1.798   2.766   3.986
   78c3c     C1  131   1.660   2.772   4.038
   78c3c     C1  132   1.881   2.738   4.104
   78c3c     C2  133   1.669   2.828   4.181
   78c3c     C2  134   1.814   2.807   4.224
   78c3c     C1  135   1.808   2.655   3.890
   78c3c     C1  136   1.839   2.887   3.912
   78c3c     H1  137   1.618   2.672   4.046
   78c3c     H1  138   1.592   2.828   3.974
   78c3c     H1  139   1.882   2.631   4.125
   78c3c     H1  140   1.985   2.768   4.091
   78c3c     HC  141   1.600   2.777   4.247
   78c3c     HC  142   1.643   2.934   4.184
   78c3c     HC  143   1.820   2.745   4.313
   78c3c     HC  144   1.861   2.902   4.248
   78c3c     H1  145   1.744   2.670   3.804
   78c3c     H1  146   1.910   2.642   3.852
   78c3c     H1  147   1.779   2.559   3.933
   78c3c     H1  148   1.939   2.872   3.872
   78c3c     H1  149   1.775   2.898   3.824
   78c3c     C2  150   1.840   3.023   3.985
   78c3c     HC  151   1.909   3.021   4.070
   78c3c     HC  152   1.741   3.048   4.023
   78c3c     CT  153   1.885   3.138   3.894
   78c3c     HC  154   1.819   3.148   3.808
   78c3c     HC  155   1.986   3.122   3.857
   78c3c     HC  156   1.884   3.233   3.947
   79c3c     N4  157   4.191   1.367   4.990
   79c3c     C1  158   4.190   1.410   5.130
   79c3c     C1  159   4.321   1.414   4.938
   79c3c     C2  160   4.270   1.541   5.138
   79c3c     C2  161   4.355   1.544   5.012
   79c3c     C1  162   4.185   1.221   4.984
   79c3c     C1  163   4.075   1.416   4.912
   79c3c     H1  164   4.244   1.338   5.192
   79c3c     H1  165   4.090   1.417   5.173
   79c3c     H1  166   4.399   1.342   4.963
   79c3c     H1  167   4.322   1.425   4.830
   79c3c     HC  168   4.332   1.545   5.228
   79c3c     HC  169   4.204   1.628   5.142
   79c3c     HC  170   4.461   1.549   5.036
   79c3c     HC  171   4.332   1.632   4.952
   79c3c     H1  172   4.093   1.182   5.027
   79c3c     H1  173   4.190   1.184   4.881
   79c3c     H1  174   4.267   1.173   5.038
   79c3c     H1  175   4.080   1.376   4.811
   79c3c     H1  176   3.984   1.374   4.954
   79c3c     C2  177   4.053   1.569   4.898
   79c3c     HC  178   4.138   1.616   4.850
   79c3c     HC  179   4.040   1.615   4.996
   79c3c     CT  180   3.929   1.602   4.815
   79c3c     HC  181   3.838   1.560   4.860
   79c3c     HC  182   3.937   1.562   4.714
   79c3c     HC  183   3.915   1.710   4.807
   80c3c     N4  184   3.438   5.591   4.545
   80c3c     C1  185   3.365   5.661   4.438
   80c3c     C1  186   3.568   5.659   4.551
   80c3c     C2  187   3.469   5.704   4.334
   80c3c     C2  188   3.602   5.704   4.408
   80c3c     C1  189   3.367   5.612   4.673
   80c3c     C1  190   3.447   5.445   4.526
   80c3c     H1  191   3.319   5.752   4.476
   80c3c     H1  192   3.284   5.601   4.395
   80c3c     H1  193   3.562   5.750   4.611
   80c3c     H1  194   3.647   5.598   4.596
   80c3c     HC  195   3.446   5.804   4.295
   80c3c     HC  196   3.472   5.637   4.249
   80c3c     HC  197   3.647   5.803   4.408
   80c3c     HC  198   3.672   5.636   4.359
   80c3c     H1  199   3.267   5.568   4.671
   80c3c     H1  200   3.422   5.567   4.756
   80c3c     H1  201   3.355   5.717   4.697
   80c3c     H1  202   3.499   5.401   4.612
   80c3c     H1  203   3.346   5.402   4.529
   80c3c     C2  204   3.516   5.390   4.399
   80c3c     HC  205   3.620   5.424   4.395
   80c3c     HC  206   3.466   5.425   4.309
   80c3c     CT  207   3.516   5.237   4.395
   80c3c     HC  208   3.415   5.197   4.395
   80c3c     HC  209   3.569   5.195   4.481
   80c3c     HC  210   3.566   5.200   4.306
   81c3c     N4  211   3.328   3.042   5.034
   81c3c     C1  212   3.346   2.996   4.895
   81c3c     C1  213   3.397   2.941   5.115
   81c3c     C2  214   3.349   2.843   4.898
   81c3c     C2  215   3.382   2.806   5.042
   81c3c     C1  216   3.394   3.172   5.051
   81c3c     C1  217   3.186   3.062   5.072
   81c3c     H1  218   3.442   3.029   4.856
   81c3c     H1  219   3.271   3.036   4.826
   81c3c     H1  220   3.504   2.962   5.119
   81c3c     H1  221   3.363   2.938   5.218
   81c3c     HC  222   3.424   2.804   4.829
   81c3c     HC  223   3.253   2.799   4.868
   81c3c     HC  224   3.474   2.748   5.047
   81c3c     HC  225   3.303   2.745   5.085
   81c3c     H1  226   3.349   3.249   4.988
   81c3c     H1  227   3.388   3.207   5.154
   81c3c     H1  228   3.499   3.169   5.026
   81c3c     H1  229   3.182   3.101   5.174
   81c3c     H1  230   3.144   3.141   5.010
   81c3c     C2  231   3.089   2.942   5.065
   81c3c     HC  232   3.122   2.861   5.129
   81c3c     HC  233   3.083   2.903   4.963
   81c3c     CT  234   2.947   2.980   5.108
   81c3c     HC  235   2.905   3.058   5.044
   81c3c     HC  236   2.944   3.016   5.211
   81c3c     HC  237   2.880   2.894   5.102
   82c3c     N4  238   4.199   2.153   2.782
   82c3c     C1  239   4.088   2.115   2.693
   82c3c     C1  240   4.319   2.101   2.716
   82c3c     C2  241   4.126   1.982   2.628
   82c3c     C2  242   4.278   1.972   2.643
   82c3c     C1  243   4.207   2.300   2.790
   82c3c     C1  244   4.183   2.106   2.922
   82c3c     H1  245   4.078   2.188   2.613
   82c3c     H1  246   3.992   2.112   2.744
   82c3c     H1  247   4.353   2.171   2.639
   82c3c     H1  248   4.403   2.087   2.784
   82c3c     HC  249   4.097   1.980   2.523
   82c3c     HC  250   4.078   1.897   2.676
   82c3c     HC  251   4.326   1.965   2.545
   82c3c     HC  252   4.305   1.883   2.699
   82c3c     H1  253   4.117   2.343   2.834
   82c3c     H1  254   4.291   2.333   2.851
   82c3c     H1  255   4.219   2.347   2.693
   82c3c     H1  256   4.266   2.143   2.982
   82c3c     H1  257   4.094   2.153   2.965
   82c3c     C2  258   4.171   1.954   2.948
   82c3c     HC  259   4.260   1.902   2.913
   82c3c     HC  260   4.085   1.912   2.896
   82c3c     CT  261   4.156   1.923   3.098
   82c3c     HC  262   4.067   1.970   3.139
   82c3c     HC  263   4.242   1.958   3.155
   82c3c     HC  264   4.147   1.815   3.114
   83c3c     N4  265   3.702   1.131   1.297
   83c3c     C1  266   3.585   1.128   1.386
   83c3c     C1  267   3.720   0.991   1.256
   83c3c     C2  268   3.587   0.993   1.459
   83c3c     C2  269   3.675   0.903   1.374
   83c3c     C1  270   3.671   1.213   1.179
   83c3c     C1  271   3.822   1.192   1.359
   83c3c     H1  272   3.493   1.130   1.328
   83c3c     H1  273   3.580   1.213   1.454
   83c3c     H1  274   3.655   0.967   1.172
   83c3c     H1  275   3.822   0.969   1.223
   83c3c     HC  276   3.486   0.952   1.468
   83c3c     HC  277   3.627   1.001   1.560
   83c3c     HC  278   3.621   0.815   1.338
   83c3c     HC  279   3.760   0.866   1.432
   83c3c     H1  280   3.652   1.317   1.206
   83c3c     H1  281   3.754   1.213   1.108
   83c3c     H1  282   3.584   1.177   1.125
   83c3c     H1  283   3.902   1.193   1.285
   83c3c     H1  284   3.802   1.296   1.381
   83c3c     C2  285   3.880   1.128   1.487
   83c3c     HC  286   3.910   1.025   1.469
   83c3c     HC  287   3.806   1.128   1.568
   83c3c     CT  288   4.003   1.204   1.538
   83c3c     HC  289   3.980   1.308   1.562
   83c3c     HC  290   4.083   1.205   1.464
   83c3c     HC  291   4.044   1.157   1.628
   84c3c     N4  292   3.460   1.728   3.717
   84c3c     C1  293   3.320   1.700   3.680
   84c3c     C1  294   3.536   1.613   3.667
   84c3c     C2  295   3.302   1.548   3.685
   84c3c     C2  296   3.444   1.490   3.676
   84c3c     C1  297   3.505   1.850   3.649
   84c3c     C1  298   3.479   1.753   3.862
   84c3c     H1  299   3.301   1.731   3.578
   84c3c     H1  300   3.248   1.753   3.742
   84c3c     H1  301   3.560   1.626   3.561
   84c3c     H1  302   3.631   1.597   3.718
   84c3c     HC  303   3.241   1.513   3.602
   84c3c     HC  304   3.254   1.515   3.777
   84c3c     HC  305   3.455   1.426   3.589
   84c3c     HC  306   3.466   1.429   3.764
   84c3c     H1  307   3.447   1.937   3.680
   84c3c     H1  308   3.610   1.872   3.670
   84c3c     H1  309   3.495   1.844   3.541
   84c3c     H1  310   3.584   1.777   3.880
   84c3c     H1  311   3.424   1.842   3.890
   84c3c     C2  312   3.440   1.642   3.962
   84c3c     HC  313   3.498   1.551   3.944
   84c3c     HC  314   3.334   1.617   3.954
   84c3c     CT  315   3.465   1.685   4.107
   84c3c     HC  316   3.407   1.773   4.134
   84c3c     HC  317   3.571   1.707   4.124
   84c3c     HC  318   3.437   1.605   4.177
   85c3c     N4  319   0.732   3.077   1.259
   85c3c     C1  320   0.808   2.997   1.357
   85c3c     C1  321   0.610   2.998   1.235
   85c3c     C2  322   0.779   2.849   1.328
   85c3c     C2  323   0.649   2.850   1.247
   85c3c     C1  324   0.695   3.206   1.320
   85c3c     C1  325   0.808   3.110   1.136
   85c3c     H1  326   0.773   3.016   1.458
   85c3c     H1  327   0.915   3.020   1.357
   85c3c     H1  328   0.536   3.017   1.312
   85c3c     H1  329   0.562   3.021   1.140
   85c3c     HC  330   0.767   2.793   1.420
   85c3c     HC  331   0.859   2.802   1.271
   85c3c     HC  332   0.571   2.793   1.298
   85c3c     HC  333   0.665   2.803   1.150
   85c3c     H1  334   0.783   3.265   1.345
   85c3c     H1  335   0.633   3.266   1.253
   85c3c     H1  336   0.638   3.194   1.412
   85c3c     H1  337   0.747   3.174   1.073
   85c3c     H1  338   0.894   3.171   1.164
   85c3c     C2  339   0.861   2.994   1.048
   85c3c     HC  340   0.779   2.932   1.013
   85c3c     HC  341   0.929   2.931   1.105
   85c3c     CT  342   0.937   3.046   0.925
   85c3c     HC  343   1.023   3.106   0.955
   85c3c     HC  344   0.873   3.108   0.862
   85c3c     HC  345   0.973   2.963   0.865
   86c3c     N4  346   1.837   1.990   3.062
   86c3c     C1  347   1.848   1.979   2.915
   86c3c     C1  348   1.742   2.100   3.084
   86c3c     C2  349   1.831   2.121   2.859
   86c3c     C2  350   1.761   2.200   2.969
   86c3c     C1  351   1.780   1.866   3.116
   86c3c     C1  352   1.968   2.007   3.129
   86c3c     H1  353   1.765   1.920   2.875
   86c3c     H1  354   1.939   1.931   2.882
   86c3c     H1  355   1.639   2.064   3.078
   86c3c     H1  356   1.752   2.146   3.182
   86c3c     HC  357   1.772   2.121   2.767
   86c3c     HC  358   1.927   2.167   2.835
   86c3c     HC  359   1.665   2.239   2.935
   86c3c     HC  360   1.822   2.285   3.000
   86c3c     H1  361   1.846   1.780   3.101
   86c3c     H1  362   1.762   1.874   3.223
   86c3c     H1  363   1.684   1.841   3.071
   86c3c     H1  364   1.951   2.009   3.237
   86c3c     H1  365   2.029   1.919   3.112
   86c3c     C2  366   2.053   2.131   3.095
   86c3c     HC  367   1.999   2.223   3.118
   86c3c     HC  368   2.079   2.133   2.989
   86c3c     CT  369   2.185   2.133   3.174
   86c3c     HC  370   2.247   2.046   3.151
   86c3c     HC  371   2.166   2.132   3.281
   86c3c     HC  372   2.242   2.223   3.152
   87c3c     N4  373   1.166   1.843   2.629
   87c3c     C1  374   1.231   1.895   2.751
   87c3c     C1  375   1.158   1.698   2.652
   87c3c     C2  376   1.330   1.787   2.799
   87c3c     C2  377   1.282   1.658   2.734
   87c3c     C1  378   1.031   1.898   2.619
   87c3c     C1  379   1.236   1.880   2.504
   87c3c     H1  380   1.158   1.907   2.831
   87c3c     H1  381   1.277   1.992   2.737
   87c3c     H1  382   1.071   1.673   2.712
   87c3c     H1  383   1.149   1.640   2.559
   87c3c     HC  384   1.330   1.779   2.907
   87c3c     HC  385   1.432   1.810   2.769
   87c3c     HC  386   1.256   1.584   2.810
   87c3c     HC  387   1.360   1.615   2.672
   87c3c     H1  388   1.032   2.007   2.609
   87c3c     H1  389   0.977   1.858   2.534
   87c3c     H1  390   0.970   1.877   2.707
   87c3c     H1  391   1.178   1.842   2.419
   87c3c     H1  392   1.233   1.989   2.493
   87c3c     C2  393   1.382   1.836   2.483
   87c3c     HC  394   1.391   1.728   2.487
   87c3c     HC  395   1.446   1.878   2.561
   87c3c     CT  396   1.438   1.882   2.348
   87c3c     HC  397   1.435   1.991   2.338
   87c3c     HC  398   1.381   1.840   2.265
   87c3c     HC  399   1.542   1.851   2.336
   88c3c     N4  400   2.768   4.046   5.463
   88c3c     C1  401   2.898   4.066   5.397
   88c3c     C1  402   2.733   3.906   5.433
   88c3c     C2  403   2.897   3.979   5.270
   88c3c     C2  404   2.789   3.874   5.294
   88c3c     C1  405   2.785   4.062   5.609
   88c3c     C1  406   2.664   4.144   5.423
   88c3c     H1  407   2.979   4.029   5.460
   88c3c     H1  408   2.920   4.171   5.377
   88c3c     H1  409   2.782   3.839   5.503
   88c3c     H1  410   2.626   3.886   5.442
   88c3c     HC  411   2.994   3.932   5.254
   88c3c     HC  412   2.875   4.037   5.180
   88c3c     HC  413   2.830   3.773   5.290
   88c3c     HC  414   2.712   3.880   5.217
   88c3c     H1  415   2.817   4.163   5.635
   88c3c     H1  416   2.693   4.042   5.663
   88c3c     H1  417   2.860   3.994   5.650
   88c3c     H1  418   2.574   4.125   5.481
   88c3c     H1  419   2.696   4.243   5.453
   88c3c     C2  420   2.623   4.151   5.274
   88c3c     HC  421   2.583   4.056   5.240
   88c3c     HC  422   2.708   4.176   5.212
   88c3c     CT  423   2.515   4.258   5.250
   88c3c     HC  424   2.550   4.357   5.279
   88c3c     HC  425   2.424   4.236   5.307
   88c3c     HC  426   2.487   4.262   5.145
   89c3c     N4  427   5.140   1.047   2.678
   89c3c     C1  428   5.231   1.041   2.793
   89c3c     C1  429   5.212   0.980   2.569
   89c3c     C2  430   5.374   1.048   2.737
   89c3c     C2  431   5.362   1.008   2.590
   89c3c     C1  432   5.017   0.972   2.709
   89c3c     C1  433   5.095   1.185   2.645
   89c3c     H1  434   5.223   0.944   2.843
   89c3c     H1  435   5.211   1.116   2.869
   89c3c     H1  436   5.200   0.872   2.575
   89c3c     H1  437   5.177   1.009   2.469
   89c3c     HC  438   5.441   0.980   2.790
   89c3c     HC  439   5.416   1.148   2.746
   89c3c     HC  440   5.421   0.920   2.568
   89c3c     HC  441   5.398   1.088   2.525
   89c3c     H1  442   4.963   1.014   2.793
   89c3c     H1  443   4.949   0.969   2.624
   89c3c     H1  444   5.038   0.868   2.735
   89c3c     H1  445   5.025   1.180   2.562
   89c3c     H1  446   5.038   1.225   2.729
   89c3c     C2  447   5.202   1.291   2.608
   89c3c     HC  448   5.258   1.259   2.520
   89c3c     HC  449   5.272   1.305   2.690
   89c3c     CT  450   5.139   1.427   2.577
   89c3c     HC  451   5.084   1.466   2.663
   89c3c     HC  452   5.070   1.421   2.493
   89c3c     HC  453   5.216   1.500   2.551
   90c3c     N4  454   2.062   2.607   4.707
   90c3c     C1  455   1.952   2.703   4.723
   90c3c     C1  456   2.156   2.639   4.816
   90c3c     C2  457   2.014   2.833   4.779
   90c3c     C2  458   2.147   2.790   4.840
   90c3c     C1  459   2.011   2.470   4.726
   90c3c     C1  460   2.124   2.609   4.572
   90c3c     H1  461   1.881   2.668   4.797
   90c3c     H1  462   1.896   2.719   4.632
   90c3c     H1  463   2.124   2.591   4.909
   90c3c     H1  464   2.257   2.604   4.797
   90c3c     HC  465   1.949   2.878   4.854
   90c3c     HC  466   2.030   2.907   4.701
   90c3c     HC  467   2.151   2.814   4.946
   90c3c     HC  468   2.229   2.844   4.792
   90c3c     H1  469   1.937   2.444   4.650
   90c3c     H1  470   2.090   2.396   4.720
   90c3c     H1  471   1.962   2.456   4.822
   90c3c     H1  472   2.202   2.532   4.568
   90c3c     H1  473   2.050   2.579   4.499
   90c3c     C2  474   2.188   2.740   4.522
   90c3c     HC  475   2.268   2.773   4.588
   90c3c     HC  476   2.114   2.820   4.517
   90c3c     CT  477   2.247   2.725   4.381
   90c3c     HC  478   2.170   2.697   4.308
   90c3c     HC  479   2.325   2.649   4.378
   90c3c     HC  480   2.291   2.818   4.347
   91c3c     N4  481   2.990   2.365   5.013
   91c3c     C1  482   3.093   2.451   4.953
   91c3c     C1  483   3.060   2.240   5.047
   91c3c     C2  484   3.190   2.358   4.879
   91c3c     C2  485   3.171   2.221   4.943
   91c3c     C1  486   2.939   2.428   5.136
   91c3c     C1  487   2.871   2.344   4.927
   91c3c     H1  488   3.150   2.502   5.030
   91c3c     H1  489   3.051   2.528   4.888
   91c3c     H1  490   3.108   2.248   5.144
   91c3c     H1  491   2.994   2.154   5.053
   91c3c     HC  492   3.293   2.393   4.888
   91c3c     HC  493   3.168   2.352   4.772
   91c3c     HC  494   3.263   2.187   4.991
   91c3c     HC  495   3.145   2.146   4.869
   91c3c     H1  496   2.890   2.523   5.117
   91c3c     H1  497   2.867   2.364   5.186
   91c3c     H1  498   3.019   2.447   5.209
   91c3c     H1  499   2.802   2.277   4.978
   91c3c     H1  500   2.817   2.438   4.916
   91c3c     C2  501   2.892   2.288   4.785
   91c3c     HC  502   2.945   2.193   4.787
   91c3c     HC  503   2.951   2.357   4.724
   91c3c     CT  504   2.758   2.265   4.713
   91c3c     HC  505   2.704   2.359   4.697
   91c3c     HC  506   2.694   2.199   4.771
   91c3c     HC  507   2.774   2.219   4.616
   92c3c     N4  508   4.975   2.102   2.641
   92c3c     C1  509   4.869   2.048   2.555
   92c3c     C1  510   5.060   1.985   2.671
   92c3c     C2  511   4.843   1.903   2.599
   92c3c     C2  512   4.969   1.862   2.675
   92c3c     C1  513   5.053   2.201   2.566
   92c3c     C1  514   4.925   2.171   2.762
   92c3c     H1  515   4.902   2.044   2.451
   92c3c     H1  516   4.779   2.110   2.555
   92c3c     H1  517   5.131   1.968   2.590
   92c3c     H1  518   5.120   1.997   2.761
   92c3c     HC  519   4.826   1.839   2.513
   92c3c     HC  520   4.755   1.895   2.663
   92c3c     HC  521   5.016   1.776   2.629
   92c3c     HC  522   4.943   1.834   2.777
   92c3c     H1  523   4.992   2.287   2.537
   92c3c     H1  524   5.137   2.239   2.625
   92c3c     H1  525   5.096   2.161   2.474
   92c3c     H1  526   5.010   2.211   2.817
   92c3c     H1  527   4.868   2.258   2.731
   92c3c     C2  528   4.839   2.093   2.863
   92c3c     HC  529   4.894   2.008   2.903
   92c3c     HC  530   4.749   2.054   2.815
   92c3c     CT  531   4.795   2.180   2.981
   92c3c     HC  532   4.737   2.266   2.948
   92c3c     HC  533   4.882   2.218   3.036
   92c3c     HC  534   4.735   2.123   3.052
   93c3c     N4  535   0.572   3.030   0.511
   93c3c     C1  536   0.644   3.017   0.639
   93c3c     C1  537   0.545   2.892   0.470
   93c3c     C2  538   0.727   2.889   0.631
   93c3c     C2  539   0.662   2.806   0.520
   93c3c     C1  540   0.444   3.100   0.534
   93c3c     C1  541   0.644   3.110   0.410
   93c3c     H1  542   0.574   3.004   0.721
   93c3c     H1  543   0.703   3.106   0.663
   93c3c     H1  544   0.456   2.853   0.519
   93c3c     H1  545   0.527   2.881   0.363
   93c3c     HC  546   0.727   2.835   0.726
   93c3c     HC  547   0.832   2.909   0.607
   93c3c     HC  548   0.628   2.710   0.558
   93c3c     HC  549   0.734   2.785   0.441
   93c3c     H1  550   0.459   3.201   0.571
   93c3c     H1  551   0.384   3.106   0.443
   93c3c     H1  552   0.381   3.049   0.608
   93c3c     H1  553   0.581   3.118   0.321
   93c3c     H1  554   0.654   3.213   0.446
   93c3c     C2  555   0.783   3.064   0.364
   93c3c     HC  556   0.778   2.964   0.320
   93c3c     HC  557   0.853   3.060   0.448
   93c3c     CT  558   0.844   3.158   0.259
   93c3c     HC  559   0.855   3.259   0.298
   93c3c     HC  560   0.781   3.164   0.170
   93c3c     HC  561   0.942   3.124   0.227
   94c3c     N4  562   3.367   4.594   2.980
   94c3c     C1  563   3.405   4.703   2.888
   94c3c     C1  564   3.239   4.637   3.037
   94c3c     C2  565   3.351   4.834   2.948
   94c3c     C2  566   3.243   4.791   3.047
   94c3c     C1  567   3.347   4.471   2.903
   94c3c     C1  568   3.471   4.563   3.081
   94c3c     H1  569   3.355   4.691   2.792
   94c3c     H1  570   3.511   4.707   2.866
   94c3c     H1  571   3.157   4.612   2.970
   94c3c     H1  572   3.216   4.589   3.132
   94c3c     HC  573   3.310   4.899   2.871
   94c3c     HC  574   3.429   4.890   2.999
   94c3c     HC  575   3.146   4.834   3.020
   94c3c     HC  576   3.267   4.825   3.147
   94c3c     H1  577   3.439   4.438   2.853
   94c3c     H1  578   3.314   4.388   2.966
   94c3c     H1  579   3.272   4.482   2.824
   94c3c     H1  580   3.438   4.479   3.141
   94c3c     H1  581   3.561   4.529   3.030
   94c3c     C2  582   3.515   4.674   3.180
   94c3c     HC  583   3.430   4.709   3.238
   94c3c     HC  584   3.555   4.760   3.126
   94c3c     CT  585   3.622   4.626   3.278
   94c3c     HC  586   3.712   4.593   3.225
   94c3c     HC  587   3.586   4.543   3.338
   94c3c     HC  588   3.651   4.706   3.346
   95c3c     N4  589   3.343   2.708   5.629
   95c3c     C1  590   3.238   2.744   5.532
   95c3c     C1  591   3.269   2.669   5.750
   95c3c     C2  592   3.122   2.804   5.612
   95c3c     C2  593   3.142   2.755   5.754
   95c3c     C1  594   3.418   2.592   5.579
   95c3c     C1  595   3.443   2.815   5.651
   95c3c     H1  596   3.200   2.654   5.483
   95c3c     H1  597   3.274   2.810   5.453
   95c3c     H1  598   3.237   2.565   5.745
   95c3c     H1  599   3.328   2.678   5.841
   95c3c     HC  600   3.026   2.771   5.572
   95c3c     HC  601   3.122   2.913   5.609
   95c3c     HC  602   3.056   2.696   5.788
   95c3c     HC  603   3.151   2.839   5.823
   95c3c     H1  604   3.471   2.614   5.486
   95c3c     H1  605   3.493   2.559   5.652
   95c3c     H1  606   3.355   2.506   5.559
   95c3c     H1  607   3.518   2.779   5.722
   95c3c     H1  608   3.498   2.834   5.559
   95c3c     C2  609   3.395   2.952   5.704
   95c3c     HC  610   3.347   2.941   5.802
   95c3c     HC  611   3.322   2.997   5.636
   95c3c     CT  612   3.511   3.051   5.719
   95c3c     HC  613   3.560   3.071   5.624
   95c3c     HC  614   3.586   3.014   5.789
   95c3c     HC  615   3.475   3.147   5.758
   96c3c     N4  616   2.258   2.211   1.909
   96c3c     C1  617   2.302   2.350   1.884
   96c3c     C1  618   2.112   2.216   1.894
   96c3c     C2  619   2.190   2.443   1.933
   96c3c     C2  620   2.066   2.354   1.941
   96c3c     C1  621   2.315   2.122   1.806
   96c3c     C1  622   2.303   2.157   2.039
   96c3c     H1  623   2.313   2.368   1.777
   96c3c     H1  624   2.399   2.374   1.928
   96c3c     H1  625   2.085   2.208   1.789
   96c3c     H1  626   2.061   2.134   1.945
   96c3c     HC  627   2.175   2.525   1.863
   96c3c     HC  628   2.213   2.486   2.030
   96c3c     HC  629   1.986   2.393   1.878
   96c3c     HC  630   2.028   2.352   2.043
   96c3c     H1  631   2.424   2.121   1.808
   96c3c     H1  632   2.281   2.019   1.818
   96c3c     H1  633   2.287   2.153   1.705
   96c3c     H1  634   2.269   2.053   2.047
   96c3c     H1  635   2.412   2.151   2.038
   96c3c     C2  636   2.262   2.230   2.168
   96c3c     HC  637   2.153   2.233   2.177
   96c3c     HC  638   2.298   2.333   2.167
   96c3c     CT  639   2.317   2.161   2.294
   96c3c     HC  640   2.426   2.157   2.292
   96c3c     HC  641   2.280   2.059   2.303
   96c3c     HC  642   2.287   2.215   2.384
   97c3c     N4  643   1.601   4.941   0.425
   97c3c     C1  644   1.516   5.019   0.334
   97c3c     C1  645   1.597   4.804   0.370
   97c3c     C2  646   1.404   4.926   0.285
   97c3c     C2  647   1.459   4.785   0.305
   97c3c     C1  648   1.738   4.992   0.419
   97c3c     C1  649   1.560   4.949   0.567
   97c3c     H1  650   1.572   5.050   0.246
   97c3c     H1  651   1.479   5.111   0.379
   97c3c     H1  652   1.670   4.793   0.290
   97c3c     H1  653   1.621   4.728   0.444
   97c3c     HC  654   1.381   4.944   0.180
   97c3c     HC  655   1.312   4.940   0.341
   97c3c     HC  656   1.467   4.732   0.211
   97c3c     HC  657   1.391   4.727   0.369
   97c3c     H1  658   1.744   5.096   0.453
   97c3c     H1  659   1.806   4.934   0.481
   97c3c     H1  660   1.780   4.991   0.318
   97c3c     H1  661   1.631   4.893   0.627
   97c3c     H1  662   1.569   5.052   0.600
   97c3c     C2  663   1.418   4.902   0.606
   97c3c     HC  664   1.401   4.799   0.574
   97c3c     HC  665   1.343   4.965   0.559
   97c3c     CT  666   1.395   4.906   0.757
   97c3c     HC  667   1.409   5.007   0.796
   97c3c     HC  668   1.465   4.841   0.810
   97c3c     HC  669   1.294   4.875   0.782
   98c3c     N4  670   3.521   0.308   3.970
   98c3c     C1  671   3.638   0.397   3.953
   98c3c     C1  672   3.405   0.396   3.951
   98c3c     C2  673   3.597   0.536   4.003
   98c3c     C2  674   3.444   0.535   4.002
   98c3c     C1  675   3.523   0.205   3.866
   98c3c     C1  676   3.521   0.236   4.100
   98c3c     H1  677   3.662   0.408   3.847
   98c3c     H1  678   3.728   0.359   4.001
   98c3c     H1  679   3.382   0.407   3.845
   98c3c     H1  680   3.314   0.358   3.997
   98c3c     HC  681   3.637   0.614   3.939
   98c3c     HC  682   3.634   0.555   4.104
   98c3c     HC  683   3.405   0.613   3.936
   98c3c     HC  684   3.405   0.555   4.102
   98c3c     H1  685   3.611   0.141   3.873
   98c3c     H1  686   3.435   0.140   3.872
   98c3c     H1  687   3.523   0.247   3.765
   98c3c     H1  688   3.434   0.170   4.103
   98c3c     H1  689   3.608   0.171   4.104
   98c3c     C2  690   3.519   0.318   4.231
   98c3c     HC  691   3.432   0.382   4.236
   98c3c     HC  692   3.608   0.382   4.238
   98c3c     CT  693   3.518   0.227   4.355
   98c3c     HC  694   3.606   0.164   4.358
   98c3c     HC  695   3.430   0.164   4.357
   98c3c     HC  696   3.517   0.287   4.446
   99c3c     N4  697   1.416   2.773   0.511
   99c3c     C1  698   1.287   2.799   0.576
   99c3c     C1  699   1.442   2.631   0.536
   99c3c     C2  700   1.278   2.707   0.699
   99c3c     C2  701   1.380   2.596   0.672
   99c3c     C1  702   1.404   2.796   0.367
   99c3c     C1  703   1.525   2.863   0.557
   99c3c     H1  704   1.205   2.771   0.510
   99c3c     H1  705   1.272   2.904   0.601
   99c3c     H1  706   1.392   2.568   0.462
   99c3c     H1  707   1.548   2.605   0.530
   99c3c     HC  708   1.178   2.666   0.711
   99c3c     HC  709   1.303   2.759   0.791
   99c3c     HC  710   1.332   2.498   0.670
   99c3c     HC  711   1.455   2.594   0.752
   99c3c     H1  712   1.379   2.900   0.344
   99c3c     H1  713   1.497   2.772   0.314
   99c3c     H1  714   1.326   2.734   0.321
   99c3c     H1  715   1.616   2.840   0.501
   99c3c     H1  716   1.500   2.966   0.530
   99c3c     C2  717   1.563   2.863   0.707
   99c3c     HC  718   1.596   2.764   0.738
   99c3c     HC  719   1.478   2.891   0.769
   99c3c     CT  720   1.677   2.962   0.735
   99c3c     HC  721   1.649   3.064   0.710
   99c3c     HC  722   1.766   2.937   0.678
   99c3c     HC  723   1.704   2.961   0.841
  100c3c     N4  724   2.744   3.805   4.618
  100c3c     C1  725   2.836   3.691   4.602
  100c3c     C1  726   2.800   3.882   4.731
  100c3c     C2  727   2.889   3.656   4.742
  100c3c     C2  728   2.866   3.781   4.826
  100c3c     C1  729   2.747   3.887   4.496
  100c3c     C1  730   2.602   3.765   4.638
  100c3c     H1  731   2.922   3.719   4.542
  100c3c     H1  732   2.790   3.606   4.551
  100c3c     H1  733   2.880   3.947   4.695
  100c3c     H1  734   2.727   3.946   4.780
  100c3c     HC  735   2.995   3.630   4.738
  100c3c     HC  736   2.837   3.570   4.785
  100c3c     HC  737   2.959   3.819   4.866
  100c3c     HC  738   2.802   3.758   4.911
  100c3c     H1  739   2.711   3.831   4.410
  100c3c     H1  740   2.685   3.976   4.506
  100c3c     H1  741   2.847   3.922   4.472
  100c3c     H1  742   2.541   3.855   4.642
  100c3c     H1  743   2.568   3.712   4.549
  100c3c     C2  744   2.566   3.678   4.760
  100c3c     HC  745   2.592   3.729   4.853
  100c3c     HC  746   2.618   3.583   4.757
  100c3c     CT  747   2.416   3.648   4.765
  100c3c     HC  748   2.383   3.594   4.676
  100c3c     HC  749   2.356   3.740   4.772
  100c3c     HC  750   2.391   3.586   4.852
  101fsi    FSI  751   0.466   2.423   3.404
  101fsi    SBT  752   0.582   2.519   3.358
  101fsi    NBT  753   0.507   2.637   3.287
  101fsi    OBT  754   0.652   2.555   3.479
  101fsi    OBT  755   0.658   2.439   3.266
  101fsi    SBT  756   0.432   2.759   3.352
  101fsi    OBT  757   0.386   2.737   3.486
  101fsi    OBT  758   0.341   2.822   3.260
  101fsi    FSI  759   0.547   2.866   3.367
  102fsi    FSI  760   5.035   1.880   5.439
  102fsi    SBT  761   5.049   1.979   5.317
  102fsi    NBT  762   5.047   2.121   5.383
  102fsi    OBT  763   5.171   1.943   5.251
  102fsi    OBT  764   4.925   1.962   5.245
  102fsi    SBT  765   5.164   2.196   5.457
  102fsi    OBT  766   5.251   2.110   5.532
  102fsi    OBT  767   5.117   2.316   5.520
  102fsi    FSI  768   5.252   2.249   5.338
  103fsi    FSI  769   2.635   2.323   1.418
  103fsi    SBT  770   2.561   2.241   1.530
  103fsi    NBT  771   2.669   2.229   1.644
  103fsi    OBT  772   2.446   2.320   1.563
  103fsi    OBT  773   2.535   2.114   1.467
  103fsi    SBT  774   2.708   2.332   1.756
  103fsi    OBT  775   2.654   2.464   1.739
  103fsi    OBT  776   2.846   2.320   1.796
  103fsi    FSI  777   2.631   2.276   1.881
  104fsi    FSI  778   3.381   2.580   3.368
  104fsi    SBT  779   3.483   2.698   3.390
  104fsi    NBT  780   3.621   2.624   3.392
  104fsi    OBT  781   3.462   2.783   3.275
  104fsi    OBT  782   3.447   2.749   3.519
  104fsi    SBT  783   3.718   2.594   3.272
  104fsi    OBT  784   3.653   2.560   3.148
  104fsi    OBT  785   3.828   2.509   3.311
  104fsi    FSI  786   3.787   2.733   3.245
  105fsi    FSI  787   1.689   0.191   0.807
  105fsi    SBT  788   1.710   0.304   0.699
  105fsi    NBT  789   1.568   0.370   0.689
  105fsi    OBT  790   1.811   0.388   0.756
  105fsi    OBT  791   1.745   0.232   0.580
  105fsi    SBT  792   1.514   0.504   0.750
  105fsi    OBT  793   1.578   0.549   0.871
  105fsi    OBT  794   1.371   0.517   0.744
  105fsi    FSI  795   1.561   0.611   0.644
  106fsi    FSI  796   3.469   4.965   2.583
  106fsi    SBT  797   3.605   5.006   2.515
  106fsi    NBT  798   3.612   4.911   2.390
  106fsi    OBT  799   3.588   5.146   2.484
  106fsi    OBT  800   3.703   4.973   2.615
  106fsi    SBT  801   3.547   4.928   2.248
  106fsi    OBT  802   3.451   5.036   2.238
  106fsi    OBT  803   3.513   4.803   2.188
  106fsi    FSI  804   3.668   4.980   2.161
  107fsi    FSI  805   3.316   0.755   5.112
  107fsi    SBT  806   3.161   0.783   5.117
  107fsi    NBT  807   3.154   0.940   5.116
  107fsi    OBT  808   3.110   0.718   5.000
  107fsi    OBT  809   3.122   0.728   5.244
  107fsi    SBT  810   3.160   1.038   4.993
  107fsi    OBT  811   3.219   0.984   4.874
  107fsi    OBT  812   3.199   1.171   5.033
  107fsi    FSI  813   3.008   1.056   4.955
  108fsi    FSI  814   2.162   1.655   2.043
  108fsi    SBT  815   2.045   1.759   2.024
  108fsi    NBT  816   1.921   1.665   1.999
  108fsi    OBT  817   2.042   1.831   2.148
  108fsi    OBT  818   2.084   1.832   1.907
  108fsi    SBT  819   1.822   1.601   2.103
  108fsi    OBT  820   1.876   1.585   2.236
  108fsi    OBT  821   1.748   1.490   2.049
  108fsi    FSI  822   1.712   1.713   2.120
  109fsi    FSI  823   1.000   3.390   2.517
  109fsi    SBT  824   1.154   3.422   2.534
  109fsi    NBT  825   1.223   3.289   2.485
  109fsi    OBT  826   1.176   3.535   2.448
  109fsi    OBT  827   1.169   3.442   2.675
  109fsi    SBT  828   1.259   3.244   2.339
  109fsi    OBT  829   1.186   3.311   2.235
  109fsi    OBT  830   1.274   3.102   2.328
  109fsi    FSI  831   1.406   3.298   2.324
  110fsi    FSI  832   1.186   3.943   5.311
  110fsi    SBT  833   1.036   3.981   5.343
  110fsi    NBT  834   1.045   4.134   5.378
  110fsi    OBT  835   0.965   3.951   5.223
  110fsi    OBT  836   1.007   3.901   5.459
  110fsi    SBT  837   1.048   4.256   5.279
  110fsi    OBT  838   1.112   4.231   5.153
  110fsi    OBT  839   1.080   4.380   5.346
  110fsi    FSI  840   0.895   4.275   5.243
  111fsi    FSI  841   1.163   3.790   4.434
  111fsi    SBT  842   1.107   3.912   4.351
  111fsi    NBT  843   1.193   4.032   4.405
  111fsi    OBT  844   1.135   3.874   4.215
  111fsi    OBT  845   0.969   3.920   4.391
  111fsi    SBT  846   1.313   4.108   4.337
  111fsi    OBT  847   1.385   4.033   4.238
  111fsi    OBT  848   1.393   4.181   4.432
  111fsi    FSI  849   1.241   4.221   4.255
  112fsi    FSI  850   2.170   5.022   1.426
  112fsi    SBT  851   2.308   5.031   1.352
  112fsi    NBT  852   2.401   5.097   1.460
  112fsi    OBT  853   2.340   4.895   1.320
  112fsi    OBT  854   2.281   5.120   1.242
  112fsi    SBT  855   2.496   5.028   1.565
  112fsi    OBT  856   2.456   4.897   1.609
  112fsi    OBT  857   2.542   5.119   1.666
  112fsi    FSI  858   2.626   5.000   1.481
  113fsi    FSI  859   2.940   4.406   0.517
  113fsi    SBT  860   2.947   4.480   0.378
  113fsi    NBT  861   2.797   4.484   0.332
  113fsi    OBT  862   3.005   4.608   0.407
  113fsi    OBT  863   3.025   4.390   0.296
  113fsi    SBT  864   2.689   4.595   0.358
  113fsi    OBT  865   2.705   4.672   0.478
  113fsi    OBT  866   2.556   4.551   0.324
  113fsi    FSI  867   2.720   4.699   0.243
  114fsi    FSI  868   3.951   1.585   3.571
  114fsi    SBT  869   4.021   1.540   3.704
  114fsi    NBT  870   3.912   1.450   3.772
  114fsi    OBT  871   4.139   1.469   3.659
  114fsi    OBT  872   4.043   1.663   3.774
  114fsi    SBT  873   3.884   1.296   3.758
  114fsi    OBT  874   3.953   1.233   3.648
  114fsi    OBT  875   3.746   1.264   3.777
  114fsi    FSI  876   3.955   1.236   3.886
  115fsi    FSI  877   4.739   4.688   3.107
  115fsi    SBT  878   4.891   4.677   3.145
  115fsi    NBT  879   4.910   4.524   3.172
  115fsi    OBT  880   4.961   4.727   3.029
  115fsi    OBT  881   4.900   4.756   3.265
  115fsi    SBT  882   4.930   4.407   3.069
  115fsi    OBT  883   4.876   4.430   2.938
  115fsi    OBT  884   4.905   4.278   3.128
  115fsi    FSI  885   5.086   4.406   3.046
  116fsi    FSI  886   1.597   5.118   2.235
  116fsi    SBT  887   1.485   5.228   2.226
  116fsi    NBT  888   1.528   5.310   2.099
  116fsi    OBT  889   1.364   5.151   2.209
  116fsi    OBT  890   1.501   5.303   2.347
  116fsi    SBT  891   1.476   5.299   1.952
  116fsi    OBT  892   1.403   5.179   1.921
  116fsi    OBT  893   1.578   5.342   1.859
  116fsi    FSI  894   1.368   5.414   1.944
  117fsi    FSI  895   5.583   2.784   1.806
  117fsi    SBT  896   5.641   2.755   1.662
  117fsi    NBT  897   5.750   2.645   1.690
  117fsi    OBT  898   5.528   2.708   1.586
  117fsi    OBT  899   5.699   2.880   1.623
  117fsi    SBT  900   5.728   2.493   1.724
  117fsi    OBT  901   5.611   2.467   1.805
  117fsi    OBT  902   5.849   2.427   1.765
  117fsi    FSI  903   5.695   2.428   1.585
  118fsi    FSI  904   4.730   5.401   4.512
  118fsi    SBT  905   4.775   5.551   4.499
  118fsi    NBT  906   4.931   5.542   4.512
  118fsi    OBT  907   4.728   5.591   4.370
  118fsi    OBT  908   4.715   5.613   4.614
  118fsi    SBT  909   5.035   5.507   4.399
  118fsi    OBT  910   4.996   5.399   4.313
  118fsi    OBT  911   5.168   5.503   4.453
  118fsi    FSI  912   5.036   5.636   4.308
  119fsi    FSI  913   3.446   2.564   1.265
  119fsi    SBT  914   3.401   2.605   1.410
  119fsi    NBT  915   3.407   2.762   1.406
  119fsi    OBT  916   3.269   2.549   1.423
  119fsi    OBT  917   3.504   2.549   1.493
  119fsi    SBT  918   3.301   2.865   1.350
  119fsi    OBT  919   3.201   2.807   1.264
  119fsi    OBT  920   3.362   2.987   1.307
  119fsi    FSI  921   3.221   2.906   1.479
  120fsi    FSI  922   2.692   4.536   1.234
  120fsi    SBT  923   2.696   4.573   1.387
  120fsi    NBT  924   2.845   4.614   1.412
  120fsi    OBT  925   2.603   4.681   1.402
  120fsi    OBT  926   2.661   4.451   1.454
  120fsi    SBT  927   2.912   4.756   1.403
  120fsi    OBT  928   2.849   4.846   1.310
  120fsi    OBT  929   3.055   4.752   1.404
  120fsi    FSI  930   2.876   4.818   1.544
  121fsi    FSI  931   1.197   2.375   3.669
  121fsi    SBT  932   1.070   2.465   3.694
  121fsi    NBT  933   1.117   2.606   3.642
  121fsi    OBT  934   0.967   2.405   3.613
  121fsi    OBT  935   1.053   2.462   3.836
  121fsi    SBT  936   1.104   2.668   3.498
  121fsi    OBT  937   1.069   2.574   3.395
  121fsi    OBT  938   1.206   2.765   3.469
  121fsi    FSI  939   0.974   2.755   3.510
  122fsi    FSI  940   4.446   0.340   4.368
  122fsi    SBT  941   4.313   0.409   4.319
  122fsi    NBT  942   4.201   0.326   4.391
  122fsi    OBT  943   4.325   0.545   4.362
  122fsi    OBT  944   4.314   0.385   4.177
  122fsi    SBT  945   4.153   0.336   4.541
  122fsi    OBT  946   4.257   0.372   4.634
  122fsi    OBT  947   4.066   0.227   4.577
  122fsi    FSI  948   4.057   0.460   4.539
  123fsi    FSI  949   2.840   5.594   3.477
  123fsi    SBT  950   2.935   5.712   3.518
  123fsi    NBT  951   3.079   5.654   3.491
  123fsi    OBT  952   2.897   5.821   3.432
  123fsi    OBT  953   2.910   5.728   3.659
  123fsi    SBT  954   3.158   5.649   3.355
  123fsi    OBT  955   3.077   5.643   3.237
  123fsi    OBT  956   3.271   5.561   3.362
  123fsi    FSI  957   3.225   5.792   3.349
  124fsi    FSI  958   3.634   4.877   0.531
  124fsi    SBT  959   3.766   4.934   0.596
  124fsi    NBT  960   3.783   5.070   0.519
  124fsi    OBT  961   3.735   4.946   0.736
  124fsi    OBT  962   3.866   4.838   0.557
  124fsi    SBT  963   3.754   5.215   0.572
  124fsi    OBT  964   3.624   5.231   0.630
  124fsi    OBT  965   3.796   5.314   0.476
  124fsi    FSI  966   3.855   5.234   0.692
  125fsi    FSI  967   4.812   4.728   5.575
  125fsi    SBT  968   4.909   4.770   5.459
  125fsi    NBT  969   4.906   4.644   5.364
  125fsi    OBT  970   4.848   4.887   5.403
  125fsi    OBT  971   5.036   4.786   5.524
  125fsi    SBT  972   4.835   4.620   5.226
  125fsi    OBT  973   4.738   4.721   5.190
  125fsi    OBT  974   4.797   4.483   5.206
  125fsi    FSI  975   4.951   4.642   5.123
  126fsi    FSI  976   4.560   0.604   1.335
  126fsi    SBT  977   4.422   0.641   1.401
  126fsi    NBT  978   4.318   0.577   1.302
  126fsi    OBT  979   4.429   0.578   1.531
  126fsi    OBT  980   4.420   0.785   1.398
  126fsi    SBT  981   4.229   0.448   1.315
  126fsi    OBT  982   4.262   0.363   1.427
  126fsi    OBT  983   4.206   0.383   1.189
  126fsi    FSI  984   4.088   0.507   1.353
  127fsi    FSI  985   3.813   0.792   5.444
  127fsi    SBT  986   3.907   0.774   5.319
  127fsi    NBT  987   3.822   0.827   5.199
  127fsi    OBT  988   4.025   0.851   5.348
  127fsi    OBT  989   3.929   0.632   5.313
  127fsi    SBT  990   3.798   0.974   5.148
  127fsi    OBT  991   3.850   1.077   5.235
  127fsi    OBT  992   3.667   0.994   5.094
  127fsi    FSI  993   3.892   0.984   5.022
  128fsi    FSI  994   3.314   0.258   1.333
  128fsi    SBT  995   3.426   0.368   1.337
  128fsi    NBT  996   3.544   0.306   1.255
  128fsi    OBT  997   3.364   0.485   1.281
  128fsi    OBT  998   3.456   0.378   1.478
  128fsi    SBT  999   3.551   0.276   1.101
  128fsi    OBT 1000   3.423   0.278   1.035
  128fsi    OBT 1001   3.640   0.167   1.071
  128fsi    FSI 1002   3.625   0.402   1.044
  129fsi    FSI 1003   5.216   3.502   1.316
  129fsi    SBT 1004   5.140   3.382   1.248
  129fsi    NBT 1005   5.024   3.354   1.350
  129fsi    OBT 1006   5.097   3.439   1.122
  129fsi    OBT 1007   5.239   3.278   1.245
  129fsi    SBT 1008   4.881   3.419   1.359
  129fsi    OBT 1009   4.870   3.544   1.288
  129fsi    OBT 1010   4.828   3.415   1.492
  129fsi    FSI 1011   4.790   3.320   1.278
  130fsi    FSI 1012   5.389   1.888   1.352
  130fsi    SBT 1013   5.240   1.939   1.355
  130fsi    NBT 1014   5.170   1.835   1.450
  130fsi    OBT 1015   5.251   2.073   1.407
  130fsi    OBT 1016   5.196   1.923   1.219
  130fsi    SBT 1017   5.136   1.844   1.603
  130fsi    OBT 1018   5.220   1.933   1.680
  130fsi    OBT 1019   5.110   1.715   1.661
  130fsi    FSI 1020   4.995   1.914   1.604
  131fsi    FSI 1021   4.089   2.001   4.802
  131fsi    SBT 1022   4.199   2.066   4.710
  131fsi    NBT 1023   4.123   2.084   4.574
  131fsi    OBT 1024   4.232   2.188   4.780
  131fsi    OBT 1025   4.300   1.964   4.705
  131fsi    SBT 1026   4.053   2.211   4.511
  131fsi    OBT 1027   4.027   2.318   4.604
  131fsi    OBT 1028   3.947   2.175   4.422
  131fsi    FSI 1029   4.164   2.268   4.415
  132fsi    FSI 1030   2.327   0.536   2.923
  132fsi    SBT 1031   2.272   0.390   2.905
  132fsi    NBT 1032   2.350   0.307   3.012
  132fsi    OBT 1033   2.130   0.399   2.930
  132fsi    OBT 1034   2.312   0.355   2.771
  132fsi    SBT 1035   2.335   0.312   3.169
  132fsi    OBT 1036   2.267   0.429   3.217
  132fsi    OBT 1037   2.453   0.270   3.238
  132fsi    FSI 1038   2.232   0.196   3.197
  133fsi    FSI 1039   1.012   1.560   0.612
  133fsi    SBT 1040   1.082   1.700   0.612
  133fsi    NBT 1041   0.963   1.799   0.640
  133fsi    OBT 1042   1.177   1.691   0.720
  133fsi    OBT 1043   1.135   1.713   0.479
  133fsi    SBT 1044   0.918   1.871   0.772
  133fsi    OBT 1045   0.978   1.818   0.892
  133fsi    OBT 1046   0.778   1.902   0.775
  133fsi    FSI 1047   0.986   2.013   0.758
  134fsi    FSI 1048   1.535   5.203   0.908
  134fsi    SBT 1049   1.439   5.320   0.866
  134fsi    NBT 1050   1.539   5.426   0.806
  134fsi    OBT 1051   1.350   5.260   0.770
  134fsi    OBT 1052   1.382   5.363   0.991
  134fsi    SBT 1053   1.591   5.441   0.658
  134fsi    OBT 1054   1.574   5.324   0.575
  134fsi    OBT 1055   1.718   5.507   0.651
  134fsi    FSI 1056   1.492   5.546   0.597
  135fsi    FSI 1057   5.224   4.519   2.401
  135fsi    SBT 1058   5.277   4.458   2.536
  135fsi    NBT 1059   5.317   4.582   2.624
  135fsi    OBT 1060   5.170   4.379   2.588
  135fsi    OBT 1061   5.393   4.381   2.498
  135fsi    SBT 1062   5.225   4.670   2.716
  135fsi    OBT 1063   5.085   4.663   2.683
  135fsi    OBT 1064   5.282   4.800   2.739
  135fsi    FSI 1065   5.237   4.598   2.855
  136fsi    FSI 1066   2.278   3.511   4.221
  136fsi    SBT 1067   2.304   3.439   4.359
  136fsi    NBT 1068   2.225   3.304   4.346
  136fsi    OBT 1069   2.447   3.426   4.366
  136fsi    OBT 1070   2.243   3.528   4.454
  136fsi    SBT 1071   2.264   3.175   4.264
  136fsi    OBT 1072   2.347   3.200   4.149
  136fsi    OBT 1073   2.153   3.085   4.248
  136fsi    FSI 1074   2.358   3.098   4.363
  137fsi    FSI 1075   4.024   4.729   4.848
  137fsi    SBT 1076   4.137   4.736   4.738
  137fsi    NBT 1077   4.257   4.662   4.808
  137fsi    OBT 1078   4.081   4.666   4.626
  137fsi    OBT 1079   4.161   4.877   4.723
  137fsi    SBT 1080   4.302   4.512   4.794
  137fsi    OBT 1081   4.198   4.418   4.766
  137fsi    OBT 1082   4.392   4.469   4.898
  137fsi    FSI 1083   4.392   4.512   4.665
  138fsi    FSI 1084   4.221   5.034   3.462
  138fsi    SBT 1085   4.318   5.134   3.536
  138fsi    NBT 1086   4.230   5.264   3.547
  138fsi    OBT 1087   4.346   5.068   3.661
  138fsi    OBT 1088   4.428   5.149   3.444
  138fsi    SBT 1089   4.140   5.316   3.664
  138fsi    OBT 1090   4.107   5.219   3.765
  138fsi    OBT 1091   4.027   5.392   3.618
  138fsi    FSI 1092   4.229   5.422   3.738
  139fsi    FSI 1093   3.411   0.843   2.833
  139fsi    SBT 1094   3.510   0.825   2.711
  139fsi    NBT 1095   3.472   0.948   2.620
  139fsi    OBT 1096   3.639   0.836   2.772
  139fsi    OBT 1097   3.471   0.700   2.654
  139fsi    SBT 1098   3.534   1.091   2.623
  139fsi    OBT 1099   3.553   1.144   2.755
  139fsi    OBT 1100   3.475   1.179   2.526
  139fsi    FSI 1101   3.679   1.070   2.565
  140fsi    FSI 1102   1.924   3.744   1.803
  140fsi    SBT 1103   1.870   3.679   1.935
  140fsi    NBT 1104   1.858   3.801   2.033
  140fsi    OBT 1105   1.745   3.617   1.898
  140fsi    OBT 1106   1.978   3.595   1.977
  140fsi    SBT 1107   1.739   3.904   2.044
  140fsi    OBT 1108   1.685   3.947   1.918
  140fsi    OBT 1109   1.762   4.003   2.145
  140fsi    FSI 1110   1.623   3.817   2.107
  141fsi    FSI 1111   5.203   4.878   4.849
  141fsi    SBT 1112   5.082   4.978   4.842
  141fsi    NBT 1113   5.153   5.117   4.819
  141fsi    OBT 1114   5.006   4.933   4.728
  141fsi    OBT 1115   5.020   4.968   4.971
  141fsi    SBT 1116   5.167   5.201   4.687
  141fsi    OBT 1117   5.162   5.123   4.566
  141fsi    OBT 1118   5.265   5.306   4.696
  141fsi    FSI 1119   5.032   5.281   4.684
  142fsi    FSI 1120   0.926   5.464   4.738
  142fsi    SBT 1121   1.070   5.527   4.736
  142fsi    NBT 1122   1.162   5.405   4.702
  142fsi    OBT 1123   1.064   5.627   4.633
  142fsi    OBT 1124   1.091   5.573   4.871
  142fsi    SBT 1125   1.230   5.367   4.565
  142fsi    OBT 1126   1.157   5.404   4.447
  142fsi    OBT 1127   1.291   5.237   4.565
  142fsi    FSI 1128   1.354   5.463   4.561
  143fsi    FSI 1129   0.576   5.461   4.051
  143fsi    SBT 1130   0.680   5.364   4.120
  143fsi    NBT 1131   0.636   5.223   4.067
  143fsi    OBT 1132   0.808   5.410   4.074
  143fsi    OBT 1133   0.651   5.380   4.260
  143fsi    SBT 1134   0.681   5.147   3.937
  143fsi    OBT 1135   0.729   5.231   3.831
  143fsi    OBT 1136   0.590   5.042   3.900
  143fsi    FSI 1137   0.809   5.068   3.985
  144fsi    FSI 1138   2.878   4.745   5.479
  144fsi    SBT 1139   3.022   4.809   5.489
  144fsi    NBT 1140   2.994   4.944   5.566
  144fsi    OBT 1141   3.098   4.712   5.562
  144fsi    OBT 1142   3.057   4.831   5.351
  144fsi    SBT 1143   2.976   4.965   5.721
  144fsi    OBT 1144   2.905   4.861   5.790
  144fsi    OBT 1145   2.935   5.098   5.757
  144fsi    FSI 1146   3.122   4.957   5.778
  145fsi    FSI 1147   4.013   1.168   0.476
  145fsi    SBT 1148   3.897   1.202   0.375
  145fsi    NBT 1149   3.812   1.069   0.374
  145fsi    OBT 1150   3.830   1.314   0.435
  145fsi    OBT 1151   3.965   1.225   0.251
  145fsi    SBT 1152   3.677   1.032   0.445
  145fsi    OBT 1153   3.635   1.126   0.546
  145fsi    OBT 1154   3.666   0.892   0.477
  145fsi    FSI 1155   3.571   1.052   0.331
  146fsi    FSI 1156   4.078   0.778   5.014
  146fsi    SBT 1157   4.096   0.641   4.940
  146fsi    NBT 1158   3.952   0.579   4.946
  146fsi    OBT 1159   4.144   0.678   4.810
  146fsi    OBT 1160   4.187   0.572   5.028
  146fsi    SBT 1161   3.826   0.613   4.858
  146fsi    OBT 1162   3.829   0.745   4.800
  146fsi    OBT 1163   3.704   0.568   4.918
  146fsi    FSI 1164   3.842   0.517   4.734
  147fsi    FSI 1165   0.817   1.032   2.080
  147fsi    SBT 1166   0.803   1.107   2.218
  147fsi    NBT 1167   0.677   1.042   2.286
  147fsi    OBT 1168   0.927   1.088   2.287
  147fsi    OBT 1169   0.768   1.242   2.181
  147fsi    SBT 1170   0.667   0.907   2.366
  147fsi    OBT 1171   0.776   0.816   2.347
  147fsi    OBT 1172   0.534   0.855   2.363
  147fsi    FSI 1173   0.684   0.955   2.515
  148fsi    FSI 1174   2.004   3.097   0.664
  148fsi    SBT 1175   2.023   3.140   0.513
  148fsi    NBT 1176   2.050   3.294   0.523
  148fsi    OBT 1177   2.134   3.061   0.467
  148fsi    OBT 1178   1.894   3.111   0.455
  148fsi    SBT 1179   2.176   3.368   0.582
  148fsi    OBT 1180   2.261   3.285   0.663
  148fsi    OBT 1181   2.144   3.499   0.631
  148fsi    FSI 1182   2.263   3.397   0.453
  149fsi    FSI 1183   2.809   1.929   4.659
  149fsi    SBT 1184   2.793   1.884   4.809
  149fsi    NBT 1185   2.650   1.936   4.846
  149fsi    OBT 1186   2.807   1.741   4.805
  149fsi    OBT 1187   2.895   1.959   4.877
  149fsi    SBT 1188   2.512   1.864   4.823
  149fsi    OBT 1189   2.499   1.798   4.696
  149fsi    OBT 1190   2.402   1.948   4.865
  149fsi    FSI 1191   2.512   1.748   4.930
  150fsi    FSI 1192   4.107   4.502   5.533
  150fsi    SBT 1193   3.986   4.529   5.629
  150fsi    NBT 1194   3.976   4.686   5.626
  150fsi    OBT 1195   3.877   4.460   5.565
  150fsi    OBT 1196   4.032   4.478   5.755
  150fsi    SBT 1197   3.889   4.781   5.534
  150fsi    OBT 1198   3.824   4.714   5.424
  150fsi    OBT 1199   3.955   4.905   5.505
  150fsi    FSI 1200   3.771   4.823   5.629
  151fsi    FSI 1201   4.952   5.415   2.670
  151fsi    SBT 1202   5.056   5.519   2.727
  151fsi    NBT 1203   4.991   5.658   2.690
  151fsi    OBT 1204   5.061   5.490   2.867
  151fsi    OBT 1205   5.174   5.493   2.649
  151fsi    SBT 1206   4.892   5.745   2.774
  151fsi    OBT 1207   4.802   5.671   2.859
  151fsi    OBT 1208   4.834   5.852   2.697
  151fsi    FSI 1209   4.987   5.820   2.874
  152fsi    FSI 1210   1.451   1.856   3.881
  152fsi    SBT 1211   1.446   1.699   3.889
  152fsi    NBT 1212   1.596   1.658   3.867
  152fsi    OBT 1213   1.391   1.675   4.020
  152fsi    OBT 1214   1.359   1.663   3.781
  152fsi    SBT 1215   1.710   1.627   3.970
  152fsi    OBT 1216   1.668   1.613   4.107
  152fsi    OBT 1217   1.830   1.701   3.946
  152fsi    FSI 1218   1.750   1.480   3.933
  153fsi    FSI 1219   2.759   5.025   4.877
  153fsi    SBT 1220   2.749   4.937   4.746
  153fsi    NBT 1221   2.600   4.888   4.750
  153fsi    OBT 1222   2.781   5.030   4.641
  153fsi    OBT 1223   2.843   4.831   4.771
  153fsi    SBT 1224   2.471   4.948   4.681
  153fsi    OBT 1225   2.488   5.074   4.615
  153fsi    OBT 1226   2.353   4.933   4.762
  153fsi    FSI 1227   2.446   4.847   4.562
  154fsi    FSI 1228   1.917   2.144   3.605
  154fsi    SBT 1229   1.834   2.179   3.475
  154fsi    NBT 1230   1.725   2.279   3.528
  154fsi    OBT 1231   1.931   2.237   3.386
  154fsi    OBT 1232   1.779   2.052   3.436
  154fsi    SBT 1233   1.734   2.436   3.544
  154fsi    OBT 1234   1.867   2.488   3.554
  154fsi    OBT 1235   1.638   2.486   3.639
  154fsi    FSI 1236   1.681   2.488   3.406
  155fsi    FSI 1237   4.718   2.647   4.536
  155fsi    SBT 1238   4.753   2.657   4.689
  155fsi    NBT 1239   4.909   2.680   4.690
  155fsi    OBT 1240   4.674   2.769   4.735
  155fsi    OBT 1241   4.717   2.528   4.741
  155fsi    SBT 1242   4.989   2.815   4.692
  155fsi    OBT 1243   4.924   2.927   4.632
  155fsi    OBT 1244   5.129   2.794   4.662
  155fsi    FSI 1245   4.993   2.849   4.845
  156fsi    FSI 1246   2.107   5.810   5.637
  156fsi    SBT 1247   2.186   5.675   5.617
  156fsi    NBT 1248   2.071   5.572   5.587
  156fsi    OBT 1249   2.273   5.701   5.506
  156fsi    OBT 1250   2.248   5.652   5.745
  156fsi    SBT 1251   2.012   5.526   5.449
  156fsi    OBT 1252   2.015   5.626   5.345
  156fsi    OBT 1253   1.890   5.451   5.463
  156fsi    FSI 1254   2.115   5.417   5.401
  157fsi    FSI 1255   3.304   1.386   4.490
  157fsi    SBT 1256   3.286   1.369   4.646
  157fsi    NBT 1257   3.284   1.518   4.696
  157fsi    OBT 1258   3.162   1.298   4.658
  157fsi    OBT 1259   3.407   1.301   4.685
  157fsi    SBT 1260   3.161   1.617   4.703
  157fsi    OBT 1261   3.069   1.603   4.593
  157fsi    OBT 1262   3.203   1.750   4.737
  157fsi    FSI 1263   3.082   1.568   4.830
  158fsi    FSI 1264   2.750   2.828   3.325
  158fsi    SBT 1265   2.735   2.974   3.381
  158fsi    NBT 1266   2.594   3.017   3.325
  158fsi    OBT 1267   2.741   2.956   3.524
  158fsi    OBT 1268   2.844   3.044   3.319
  158fsi    SBT 1269   2.453   3.013   3.394
  158fsi    OBT 1270   2.438   2.914   3.498
  158fsi    OBT 1271   2.346   3.025   3.300
  158fsi    FSI 1272   2.448   3.151   3.471
  159fsi    FSI 1273   0.683   3.375   4.654
  159fsi    SBT 1274   0.825   3.372   4.723
  159fsi    NBT 1275   0.838   3.517   4.783
  159fsi    OBT 1276   0.814   3.266   4.820
  159fsi    OBT 1277   0.915   3.350   4.613
  159fsi    SBT 1278   0.792   3.572   4.923
  159fsi    OBT 1279   0.696   3.490   4.993
  159fsi    OBT 1280   0.769   3.713   4.921
  159fsi    FSI 1281   0.923   3.558   5.010
  160fsi    FSI 1282   1.370   4.442   1.782
  160fsi    SBT 1283   1.382   4.462   1.938
  160fsi    NBT 1284   1.336   4.611   1.956
  160fsi    OBT 1285   1.289   4.363   1.988
  160fsi    OBT 1286   1.521   4.440   1.962
  160fsi    SBT 1287   1.194   4.667   1.991
  160fsi    OBT 1288   1.085   4.587   1.942
  160fsi    OBT 1289   1.187   4.810   1.972
  160fsi    FSI 1290   1.187   4.652   2.148
  161fsi    FSI 1291   5.397   2.997   1.830
  161fsi    SBT 1292   5.253   2.967   1.886
  161fsi    NBT 1293   5.283   2.921   2.033
  161fsi    OBT 1294   5.187   3.095   1.877
  161fsi    OBT 1295   5.206   2.861   1.802
  161fsi    SBT 1296   5.288   3.005   2.165
  161fsi    OBT 1297   5.308   3.147   2.143
  161fsi    OBT 1298   5.367   2.942   2.268
  161fsi    FSI 1299   5.141   2.995   2.219
  162fsi    FSI 1300   2.154   5.729   0.873
  162fsi    SBT 1301   2.033   5.682   0.962
  162fsi    NBT 1302   2.014   5.532   0.917
  162fsi    OBT 1303   2.081   5.700   1.096
  162fsi    OBT 1304   1.926   5.767   0.919
  162fsi    SBT 1305   2.049   5.400   0.994
  162fsi    OBT 1306   2.157   5.407   1.088
  162fsi    OBT 1307   2.054   5.284   0.910
  162fsi    FSI 1308   1.922   5.375   1.083
  163fsi    FSI 1309   1.190   1.405   3.878
  163fsi    SBT 1310   1.269   1.288   3.807
  163fsi    NBT 1311   1.407   1.289   3.882
  163fsi    OBT 1312   1.187   1.172   3.829
  163fsi    OBT 1313   1.281   1.334   3.671
  163fsi    SBT 1314   1.450   1.209   4.011
  163fsi    OBT 1315   1.342   1.167   4.095
  163fsi    OBT 1316   1.562   1.272   4.076
  163fsi    FSI 1317   1.509   1.076   3.953
  164fsi    FSI 1318   5.025   0.575   1.966
  164fsi    SBT 1319   5.146   0.579   1.865
  164fsi    NBT 1320   5.182   0.732   1.858
  164fsi    OBT 1321   5.247   0.497   1.926
  164fsi    OBT 1322   5.088   0.531   1.742
  164fsi    SBT 1323   5.288   0.810   1.943
  164fsi    OBT 1324   5.288   0.782   2.084
  164fsi    OBT 1325   5.299   0.947   1.902
  164fsi    FSI 1326   5.424   0.751   1.891
  165fsi    FSI 1327   3.118   3.386   1.464
  165fsi    SBT 1328   3.142   3.510   1.557
  165fsi    NBT 1329   3.148   3.630   1.455
  165fsi    OBT 1330   3.029   3.511   1.646
  165fsi    OBT 1331   3.271   3.483   1.616
  165fsi    SBT 1332   3.030   3.715   1.396
  165fsi    OBT 1333   2.900   3.653   1.400
  165fsi    OBT 1334   3.067   3.780   1.273
  165fsi    FSI 1335   3.018   3.835   1.498
  166fsi    FSI 1336   2.627   1.444   1.939
  166fsi    SBT 1337   2.482   1.504   1.930
  166fsi    NBT 1338   2.396   1.379   1.891
  166fsi    OBT 1339   2.458   1.554   2.063
  166fsi    OBT 1340   2.491   1.600   1.824
  166fsi    SBT 1341   2.295   1.291   1.975
  166fsi    OBT 1342   2.287   1.325   2.115
  166fsi    OBT 1343   2.302   1.151   1.941
  166fsi    FSI 1344   2.155   1.336   1.919
  167fsi    FSI 1345   2.666   4.003   0.964
  167fsi    SBT 1346   2.539   4.019   0.872
  167fsi    NBT 1347   2.553   4.164   0.813
  167fsi    OBT 1348   2.547   3.913   0.776
  167fsi    OBT 1349   2.429   4.018   0.965
  167fsi    SBT 1350   2.637   4.213   0.689
  167fsi    OBT 1351   2.740   4.122   0.646
  167fsi    OBT 1352   2.671   4.352   0.700
  167fsi    FSI 1353   2.531   4.209   0.573
  168fsi    FSI 1354   1.219   4.401   0.698
  168fsi    SBT 1355   1.243   4.309   0.823
  168fsi    NBT 1356   1.318   4.186   0.762
  168fsi    OBT 1357   1.324   4.390   0.912
  168fsi    OBT 1358   1.110   4.276   0.867
  168fsi    SBT 1359   1.471   4.172   0.726
  168fsi    OBT 1360   1.542   4.297   0.726
  168fsi    OBT 1361   1.493   4.080   0.618
  168fsi    FSI 1362   1.529   4.096   0.852
  169fsi    FSI 1363   1.338   0.576   0.384
  169fsi    SBT 1364   1.260   0.712   0.370
  169fsi    NBT 1365   1.372   0.819   0.402
  169fsi    OBT 1366   1.212   0.713   0.235
  169fsi    OBT 1367   1.163   0.708   0.475
  169fsi    SBT 1368   1.469   0.890   0.301
  169fsi    OBT 1369   1.519   0.807   0.196
  169fsi    OBT 1370   1.563   0.969   0.375
  169fsi    FSI 1371   1.378   0.997   0.230
  170fsi    FSI 1372   0.579   2.326   4.860
  170fsi    SBT 1373   0.531   2.469   4.906
  170fsi    NBT 1374   0.375   2.462   4.882
  170fsi    OBT 1375   0.571   2.477   5.044
  170fsi    OBT 1376   0.596   2.557   4.813
  170fsi    SBT 1377   0.262   2.415   4.980
  170fsi    OBT 1378   0.304   2.325   5.084
  170fsi    OBT 1379   0.139   2.384   4.912
  170fsi    FSI 1380   0.226   2.548   5.057
  171fsi    FSI 1381   3.166   3.460   3.280
  171fsi    SBT 1382   3.233   3.329   3.223
  171fsi    NBT 1383   3.115   3.261   3.145
  171fsi    OBT 1384   3.341   3.378   3.141
  171fsi    OBT 1385   3.270   3.257   3.342
  171fsi    SBT 1386   3.066   3.284   2.997
  171fsi    OBT 1387   3.113   3.406   2.935
  171fsi    OBT 1388   2.928   3.251   2.977
  171fsi    FSI 1389   3.142   3.171   2.918
  172fsi    FSI 1390   5.391   1.509   3.900
  172fsi    SBT 1391   5.395   1.665   3.885
  172fsi    NBT 1392   5.253   1.709   3.935
  172fsi    OBT 1393   5.504   1.706   3.970
  172fsi    OBT 1394   5.411   1.685   3.744
  172fsi    SBT 1395   5.203   1.733   4.083
  172fsi    OBT 1396   5.271   1.655   4.182
  172fsi    OBT 1397   5.060   1.742   4.093
  172fsi    FSI 1398   5.250   1.881   4.112
  173fsi    FSI 1399   2.356   0.354   5.093
  173fsi    SBT 1400   2.274   0.487   5.074
  173fsi    NBT 1401   2.357   0.592   5.156
  173fsi    OBT 1402   2.273   0.507   4.931
  173fsi    OBT 1403   2.148   0.456   5.136
  173fsi    SBT 1404   2.484   0.673   5.113
  173fsi    OBT 1405   2.557   0.616   5.003
  173fsi    OBT 1406   2.560   0.718   5.227
  173fsi    FSI 1407   2.423   0.806   5.055
  174fsi    FSI 1408   2.252   5.642   2.263
  174fsi    SBT 1409   2.267   5.487   2.239
  174fsi    NBT 1410   2.140   5.453   2.151
  174fsi    OBT 1411   2.393   5.474   2.172
  174fsi    OBT 1412   2.257   5.433   2.372
  174fsi    SBT 1413   2.122   5.468   1.996
  174fsi    OBT 1414   2.193   5.579   1.938
  174fsi    OBT 1415   1.985   5.449   1.956
  174fsi    FSI 1416   2.194   5.340   1.939
  175fsi    FSI 1417   4.430   1.420   1.197
  175fsi    SBT 1418   4.506   1.462   1.328
  175fsi    NBT 1419   4.634   1.536   1.273
  175fsi    OBT 1420   4.412   1.547   1.397
  175fsi    OBT 1421   4.538   1.337   1.390
  175fsi    SBT 1422   4.651   1.687   1.235
  175fsi    OBT 1423   4.535   1.748   1.176
  175fsi    OBT 1424   4.778   1.714   1.174
  175fsi    FSI 1425   4.664   1.757   1.376
  176fsi    FSI 1426   4.633   1.680   0.618
  176fsi    SBT 1427   4.760   1.768   0.584
  176fsi    NBT 1428   4.853   1.747   0.709
  176fsi    OBT 1429   4.810   1.712   0.461
  176fsi    OBT 1430   4.707   1.902   0.579
  176fsi    SBT 1431   4.958   1.633   0.736
  176fsi    OBT 1432   4.925   1.505   0.681
  176fsi    OBT 1433   5.005   1.638   0.872
  176fsi    FSI 1434   5.083   1.680   0.653
  177fsi    FSI 1435   3.272   1.146   2.245
  177fsi    SBT 1436   3.335   1.061   2.128
  177fsi    NBT 1437   3.399   1.172   2.036
  177fsi    OBT 1438   3.431   0.979   2.196
  177fsi    OBT 1439   3.222   0.998   2.067
  177fsi    SBT 1440   3.549   1.215   2.023
  177fsi    OBT 1441   3.625   1.205   2.145
  177fsi    OBT 1442   3.563   1.337   1.948
  177fsi    FSI 1443   3.611   1.105   1.929
  178fsi    FSI 1444   4.315   4.649   2.787
  178fsi    SBT 1445   4.456   4.718   2.774
  178fsi    NBT 1446   4.552   4.595   2.764
  178fsi    OBT 1447   4.439   4.799   2.655
  178fsi    OBT 1448   4.467   4.789   2.898
  178fsi    SBT 1449   4.604   4.513   2.640
  178fsi    OBT 1450   4.543   4.550   2.515
  178fsi    OBT 1451   4.615   4.372   2.667
  178fsi    FSI 1452   4.753   4.560   2.625
  179fsi    FSI 1453   1.150   1.336   4.713
  179fsi    SBT 1454   1.002   1.356   4.665
  179fsi    NBT 1455   0.954   1.479   4.751
  179fsi    OBT 1456   1.013   1.382   4.524
  179fsi    OBT 1457   0.936   1.235   4.705
  179fsi    SBT 1458   0.958   1.633   4.716
  179fsi    OBT 1459   1.060   1.672   4.623
  179fsi    OBT 1460   0.941   1.716   4.832
  179fsi    FSI 1461   0.823   1.653   4.636
  180fsi    FSI 1462   0.887   5.440   2.487
  180fsi    SBT 1463   0.983   5.315   2.496
  180fsi    NBT 1464   1.105   5.372   2.577
  180fsi    OBT 1465   0.904   5.217   2.566
  180fsi    OBT 1466   1.014   5.289   2.358
  180fsi    SBT 1467   1.139   5.355   2.730
  180fsi    OBT 1468   1.026   5.355   2.818
  180fsi    OBT 1469   1.253   5.432   2.773
  180fsi    FSI 1470   1.194   5.208   2.737
  181fsi    FSI 1471   4.032   2.617   0.629
  181fsi    SBT 1472   4.022   2.733   0.735
  181fsi    NBT 1473   3.876   2.787   0.711
  181fsi    OBT 1474   4.044   2.666   0.861
  181fsi    OBT 1475   4.123   2.825   0.692
  181fsi    SBT 1476   3.739   2.732   0.767
  181fsi    OBT 1477   3.743   2.596   0.813
  181fsi    OBT 1478   3.628   2.769   0.683
  181fsi    FSI 1479   3.718   2.817   0.898
  182fsi    FSI 1480   3.196   4.184   1.830
  182fsi    SBT 1481   3.233   4.333   1.794
  182fsi    NBT 1482   3.389   4.336   1.809
  182fsi    OBT 1483   3.185   4.350   1.660
  182fsi    OBT 1484   3.167   4.409   1.897
  182fsi    SBT 1485   3.499   4.302   1.702
  182fsi    OBT 1486   3.466   4.194   1.613
  182fsi    OBT 1487   3.632   4.302   1.758
  182fsi    FSI 1488   3.500   4.430   1.610
  183fsi    FSI 1489   4.634   3.727   3.524
  183fsi    SBT 1490   4.644   3.841   3.416
  183fsi    NBT 1491   4.533   3.798   3.311
  183fsi    OBT 1492   4.614   3.961   3.488
  183fsi    OBT 1493   4.775   3.824   3.361
  183fsi    SBT 1494   4.388   3.853   3.294
  183fsi    OBT 1495   4.315   3.881   3.415
  183fsi    OBT 1496   4.320   3.773   3.196
  183fsi    FSI 1497   4.407   3.992   3.224
  184fsi    FSI 1498   2.809   3.551   3.330
  184fsi    SBT 1499   2.741   3.534   3.470
  184fsi    NBT 1500   2.624   3.640   3.467
  184fsi    OBT 1501   2.697   3.398   3.473
  184fsi    OBT 1502   2.843   3.574   3.563
  184fsi    SBT 1503   2.479   3.621   3.411
  184fsi    OBT 1504   2.469   3.569   3.278
  184fsi    OBT 1505   2.397   3.737   3.439
  184fsi    FSI 1506   2.415   3.511   3.503
  185fsi    FSI 1507   1.383   2.106   3.506
  185fsi    SBT 1508   1.347   1.953   3.521
  185fsi    NBT 1509   1.278   1.919   3.384
  185fsi    OBT 1510   1.474   1.888   3.541
  185fsi    OBT 1511   1.254   1.951   3.631
  185fsi    SBT 1512   1.340   1.856   3.254
  185fsi    OBT 1513   1.475   1.896   3.224
  185fsi    OBT 1514   1.248   1.855   3.143
  185fsi    FSI 1515   1.353   1.704   3.291
  186fsi    FSI 1516   1.077   0.515   4.685
  186fsi    SBT 1517   1.209   0.570   4.620
  186fsi    NBT 1518   1.310   0.568   4.740
  186fsi    OBT 1519   1.237   0.477   4.514
  186fsi    OBT 1520   1.172   0.704   4.581
  186fsi    SBT 1521   1.402   0.451   4.791
  186fsi    OBT 1522   1.361   0.319   4.750
  186fsi    OBT 1523   1.438   0.467   4.930
  186fsi    FSI 1524   1.537   0.475   4.715
  187fsi    FSI 1525   2.329   4.450   0.731
  187fsi    SBT 1526   2.181   4.399   0.739
  187fsi    NBT 1527   2.119   4.484   0.855
  187fsi    OBT 1528   2.125   4.425   0.609
  187fsi    OBT 1529   2.197   4.262   0.779
  187fsi    SBT 1530   2.069   4.633   0.851
  187fsi    OBT 1531   2.151   4.722   0.773
  187fsi    OBT 1532   2.024   4.680   0.979
  187fsi    FSI 1533   1.935   4.623   0.768
  188fsi    FSI 1534   3.763   3.078   0.583
  188fsi    SBT 1535   3.754   3.209   0.670
  188fsi    NBT 1536   3.894   3.213   0.742
  188fsi    OBT 1537   3.733   3.313   0.573
  188fsi    OBT 1538   3.647   3.182   0.761
  188fsi    SBT 1539   4.026   3.288   0.701
  188fsi    OBT 1540   4.040   3.316   0.560
  188fsi    OBT 1541   4.143   3.239   0.769
  188fsi    FSI 1542   4.005   3.431   0.765
  189fsi    FSI 1543   4.907   5.553   0.479
  189fsi    SBT 1544   4.952   5.448   0.370
  189fsi    NBT 1545   5.097   5.409   0.417
  189fsi    OBT 1546   4.853   5.343   0.381
  189fsi    OBT 1547   4.952   5.525   0.249
  189fsi    SBT 1548   5.141   5.298   0.520
  189fsi    OBT 1549   5.041   5.261   0.616
  189fsi    OBT 1550   5.275   5.319   0.568
  189fsi    FSI 1551   5.156   5.170   0.429
  190fsi    FSI 1552   5.048   1.816   4.724
  190fsi    SBT 1553   5.139   1.923   4.653
  190fsi    NBT 1554   5.279   1.901   4.721
  190fsi    OBT 1555   5.129   1.889   4.513
  190fsi    OBT 1556   5.080   2.047   4.692
  190fsi    SBT 1557   5.373   1.775   4.718
  190fsi    OBT 1558   5.309   1.653   4.676
  190fsi    OBT 1559   5.453   1.771   4.838
  190fsi    FSI 1560   5.477   1.808   4.604
  191fsi    FSI 1561   4.645   3.159   3.531
  191fsi    SBT 1562   4.610   3.016   3.586
  191fsi    NBT 1563   4.454   3.012   3.575
  191fsi    OBT 1564   4.681   2.926   3.498
  191fsi    OBT 1565   4.655   3.021   3.723
  191fsi    SBT 1566   4.364   2.977   3.450
  191fsi    OBT 1567   4.430   2.989   3.323
  191fsi    OBT 1568   4.232   3.033   3.461
  191fsi    FSI 1569   4.340   2.822   3.466
  192fsi    FSI 1570   3.252   4.840   0.457
  192fsi    SBT 1571   3.195   4.947   0.356
  192fsi    NBT 1572   3.309   5.054   0.348
  192fsi    OBT 1573   3.174   4.874   0.234
  192fsi    OBT 1574   3.079   5.000   0.422
  192fsi    SBT 1575   3.424   5.066   0.241
  192fsi    OBT 1576   3.497   4.945   0.216
  192fsi    OBT 1577   3.507   5.181   0.264
  192fsi    FSI 1578   3.348   5.100   0.107
  193fsi    FSI 1579   1.561   2.877   2.343
  193fsi    SBT 1580   1.718   2.884   2.354
  193fsi    NBT 1581   1.748   3.037   2.334
  193fsi    OBT 1582   1.746   2.834   2.485
  193fsi    OBT 1583   1.762   2.804   2.242
  193fsi    SBT 1584   1.749   3.152   2.440
  193fsi    OBT 1585   1.653   3.139   2.546
  193fsi    OBT 1586   1.753   3.283   2.381
  193fsi    FSI 1587   1.890   3.138   2.510
  194fsi    FSI 1588   2.712   1.806   2.220
  194fsi    SBT 1589   2.733   1.732   2.357
  194fsi    NBT 1590   2.722   1.849   2.463
  194fsi    OBT 1591   2.626   1.636   2.362
  194fsi    OBT 1592   2.867   1.680   2.348
  194fsi    SBT 1593   2.599   1.893   2.549
  194fsi    OBT 1594   2.470   1.871   2.489
  194fsi    OBT 1595   2.619   2.020   2.614
  194fsi    FSI 1596   2.603   1.791   2.669
  195fsi    FSI 1597   4.027   4.165   4.646
  195fsi    SBT 1598   3.954   4.065   4.743
  195fsi    NBT 1599   3.850   4.157   4.818
  195fsi    OBT 1600   3.895   3.967   4.657
  195fsi    OBT 1601   4.060   4.023   4.831
  195fsi    SBT 1602   3.712   4.211   4.765
  195fsi    OBT 1603   3.708   4.238   4.624
  195fsi    OBT 1604   3.655   4.309   4.853
  195fsi    FSI 1605   3.617   4.087   4.783
  196fsi    FSI 1606   5.206   0.642   4.762
  196fsi    SBT 1607   5.217   0.792   4.808
  196fsi    NBT 1608   5.220   0.780   4.965
  196fsi    OBT 1609   5.339   0.839   4.749
  196fsi    OBT 1610   5.094   0.850   4.761
  196fsi    SBT 1611   5.343   0.766   5.061
  196fsi    OBT 1612   5.461   0.708   5.002
  196fsi    OBT 1613   5.305   0.719   5.192
  196fsi    FSI 1614   5.384   0.916   5.088
  197fsi    FSI 1615   4.381   5.272   3.934
  197fsi    SBT 1616   4.516   5.216   3.990
  197fsi    NBT 1617   4.582   5.150   3.863
  197fsi    OBT 1618   4.584   5.330   4.043
  197fsi    OBT 1619   4.473   5.113   4.080
  197fsi    SBT 1620   4.656   5.220   3.743
  197fsi    OBT 1621   4.602   5.347   3.707
  197fsi    OBT 1622   4.679   5.127   3.636
  197fsi    FSI 1623   4.800   5.249   3.800
  198fsi    FSI 1624   2.278   4.347   2.073
  198fsi    SBT 1625   2.275   4.322   1.918
  198fsi    NBT 1626   2.273   4.165   1.909
  198fsi    OBT 1627   2.154   4.386   1.874
  198fsi    OBT 1628   2.399   4.378   1.872
  198fsi    SBT 1629   2.149   4.068   1.910
  198fsi    OBT 1630   2.035   4.115   1.983
  198fsi    OBT 1631   2.187   3.931   1.933
  198fsi    FSI 1632   2.102   4.067   1.760
  199fsi    FSI 1633   4.434   1.991   4.369
  199fsi    SBT 1634   4.580   2.047   4.348
  199fsi    NBT 1635   4.609   2.017   4.197
  199fsi    OBT 1636   4.571   2.186   4.383
  199fsi    OBT 1637   4.662   1.964   4.433
  199fsi    SBT 1638   4.599   2.111   4.071
  199fsi    OBT 1639   4.510   2.223   4.085
  199fsi    OBT 1640   4.592   2.036   3.948
  199fsi    FSI 1641   4.742   2.175   4.066
  200fsi    FSI 1642   1.418   5.000   2.512
  200fsi    SBT 1643   1.373   4.855   2.470
  200fsi    NBT 1644   1.476   4.818   2.358
  200fsi    OBT 1645   1.384   4.779   2.592
  200fsi    OBT 1646   1.241   4.875   2.417
  200fsi    SBT 1647   1.618   4.750   2.370
  200fsi    OBT 1648   1.675   4.752   2.502
  200fsi    OBT 1649   1.704   4.786   2.261
  200fsi    FSI 1650   1.586   4.598   2.344
   5.96390   5.96390   5.96390
