L3P1 short trajectory practice
 1650
    1Li+     Li    1   3.019   2.928   3.037 -0.2348 -0.4592  0.3073
    2Li+     Li    2   2.708   4.746   3.683  0.8828 -0.0167 -0.9571
    3Li+     Li    3   4.133   2.854   2.165  0.3963  1.2548 -0.4365
    4Li+     Li    4   3.980   1.325   2.096  1.0180  0.0075 -0.5261
    5Li+     Li    5   2.939   1.950   1.981  0.0743 -0.0419  0.6287
    6Li+     Li    6   2.312   2.775   2.355 -0.1427  0.2933  0.1074
    7Li+     Li    7   3.855   4.250   3.756 -0.0669  0.0841  0.5132
    8Li+     Li    8   2.461   4.271   3.557 -0.1465  0.3052 -0.9626
    9Li+     Li    9   0.934   1.068   2.649 -0.1971  0.4902 -0.0964
   10Li+     Li   10   0.801   1.484   3.268 -0.6641  0.4998 -0.7611
   11Li+     Li   11   3.407   2.246   2.229  0.7761 -0.1667 -0.3460
   12Li+     Li   12   4.346   1.593   2.571  0.3637  0.9071 -0.1773
   13Li+     Li   13   2.598   3.402   4.009 -1.0516  0.7582  0.2336
   14Li+     Li   14   3.424   2.936   1.823 -0.3047  0.0154 -0.1247
   15Li+     Li   15   1.337   1.493   2.877  0.6375  0.2208  0.0948
   16Li+     Li   16   3.537   3.346   3.303 -0.6817  0.1457 -0.7187
   17Li+     Li   17   2.526   1.686   2.457 -0.3151 -0.0863  0.1320
   18Li+     Li   18   3.721   3.381   2.205  0.1730  0.1614 -0.8665
   19Li+     Li   19   4.465   3.410   2.268 -1.1156  0.3754 -0.6518
   20Li+     Li   20   4.941   1.454   2.143  0.7083  0.0261  0.4001
   21Li+     Li   21   2.808   3.177   3.042 -0.7896 -1.2161  1.1186
   22Li+     Li   22   2.877   3.073   1.954 -0.8094  0.5962  0.2663
   23Li+     Li   23   4.029   3.057   1.927  0.6703  0.4297 -0.2666
   24Li+     Li   24   3.203   3.336   2.676 -0.4749 -0.4734 -0.2649
   25Li+     Li   25   4.639   2.872   2.081  0.3918 -1.4091  0.5401
   26Li+     Li   26   5.070   2.320   2.421  0.1137 -0.0454  1.2030
   27Li+     Li   27   3.583   2.967   3.192 -0.4905 -0.4227 -1.2359
   28Li+     Li   28   1.119   1.171   3.257  0.2386 -0.4438 -0.5110
   29Li+     Li   29   1.874   1.761   2.272 -0.5089 -0.5724  0.6778
   30Li+     Li   30   4.636   1.953   2.511  0.7154  0.8197 -0.7863
   31Li+     Li   31   4.432   2.486   2.442 -1.6272 -0.4481 -0.8246
   32Li+     Li   32   2.401   3.016   2.747 -1.0447 -0.2868 -0.3227
   33Li+     Li   33   2.105   2.237   2.524 -0.2955  0.5416  1.3040
   34Li+     Li   34   1.670   1.211   3.063  0.9187 -0.4296  0.7303
   35Li+     Li   35   4.217   2.297   2.151 -0.3768 -0.5130 -0.8637
   36Li+     Li   36   3.651   2.170   2.672  0.2379  0.0573  0.2646
   37Li+     Li   37   3.774   3.399   3.881  0.6736  1.7234 -0.6781
   38Li+     Li   38   3.017   3.186   3.646 -0.4231 -0.3961 -0.0594
   39Li+     Li   39   1.602   2.294   2.239  1.0211 -0.0715  0.0158
   40Li+     Li   40   2.785   2.775   2.118 -0.0455  0.5750  0.9555
   41Li+     Li   41   2.173   3.730   3.735 -0.7581  0.8122 -0.5052
   42Li+     Li   42   3.818   2.508   2.178  0.0326  0.4171 -0.1225
   43Li+     Li   43   2.326   1.812   2.940 -0.0949  0.1425 -0.3154
   44Li+     Li   44   2.184   3.977   3.286  0.0234 -0.6047  0.4642
   45Li+     Li   45   4.122   2.655   3.167  0.3823  0.7197  1.2657
   46Li+     Li   46   3.957   3.753   3.439 -0.6954 -0.6624  1.0338
   47Li+     Li   47   2.088   1.354   2.552  0.3674  0.2220 -0.3938
   48Li+     Li   48   1.503   1.866   2.529  1.0441 -0.3096 -0.5923
   49Li+     Li   49   4.246   3.847   2.219  0.4422 -0.0092  1.0351
   50Li+     Li   50   3.701   3.553   2.846  0.4359  0.3124  0.8996
   51Li+     Li   51   3.452   3.930   3.896 -0.4063  0.0815  0.6670
   52Li+     Li   52   3.033   3.695   4.139  0.6703  0.2698  0.0524
   53Li+     Li   53   4.506   1.211   2.219 -1.3979 -0.7344  0.0589
   54Li+     Li   54   2.644   3.698   3.618 -0.5929 -1.2327 -0.5898
   55Li+     Li   55   2.571   4.385   2.845  0.0825 -0.3134  0.5010
   56Li+     Li   56   2.606   4.140   2.376  0.2001 -0.3201  0.0223
   57Li+     Li   57   3.452   2.887   3.801  0.2342 -0.5376  0.4171
   58Li+     Li   58   2.664   4.175   3.075 -0.3004  0.0400 -0.8746
   59Li+     Li   59   3.563   4.326   4.256  0.6145 -0.0512  0.3247
   60Li+     Li   60   3.208   3.188   4.075  0.4033 -0.7564  0.0592
   61Li+     Li   61   4.094   2.089   2.663 -0.9114 -0.3476 -0.5808
   62Li+     Li   62   4.371   3.558   2.799  0.4331 -1.5361  0.9237
   63Li+     Li   63   1.732   3.316   3.131 -0.0334  1.2400 -0.1501
   64Li+     Li   64   3.049   4.164   4.047  0.8568 -0.0451 -0.5931
   65Li+     Li   65   5.138   1.882   2.524 -1.0797 -0.2243 -0.6322
   66Li+     Li   66   4.084   2.979   2.774 -0.0873 -0.1408 -0.7802
   67Li+     Li   67   3.947   3.566   2.549 -0.0837  0.0146 -0.9514
   68Li+     Li   68   4.696   2.491   2.862 -0.1993  0.5576 -0.1365
   69Li+     Li   69   2.841   4.211   3.824 -0.0375 -0.0708 -0.6231
   70Li+     Li   70   3.520   3.993   3.338  0.9696 -0.9502  1.2474
   71Li+     Li   71   4.136   4.446   4.266 -0.0611 -0.0386 -0.1349
   72Li+     Li   72   0.948   1.543   2.821 -0.3516 -0.7784  0.9583
   73Li+     Li   73   2.207   3.144   3.131  0.6913 -0.0264 -0.1739
   74Li+     Li   74   2.158   4.001   2.252 -1.3849 -0.6939  0.1709
   75Li+     Li   75   3.398   3.089   2.244  0.5654  1.1431  0.1820
   76c3c     N4   76   2.628   2.337   2.645  0.0833  0.3496  0.0387
   76c3c     C1   77   2.689   2.468   2.621  0.2130 -0.0238 -0.0839
   76c3c     C1   78   2.487   2.351   2.626 -0.4003 -0.6769  0.2358
   76c3c     C2   79   2.608   2.539   2.516 -0.4404 -0.4419 -0.1048
   76c3c     C2   80   2.480   2.444   2.504 -0.2229  0.2230  0.5359
   76c3c     C1   81   2.695   2.248   2.550 -0.1456  0.4873  0.1546
   76c3c     C1   82   2.658   2.288   2.781  0.1570  0.0949  0.4935
   76c3c     H1   83   2.788   2.458   2.578 -0.2702  0.9836 -1.4668
   76c3c     H1   84   2.691   2.522   2.715 -2.9698  1.9986 -1.0905
   76c3c     H1   85   2.430   2.259   2.612 -0.9545 -0.4908  1.2290
   76c3c     H1   86   2.440   2.398   2.712 -0.1893 -0.3868  0.1938
   76c3c     HC   87   2.644   2.544   2.413 -0.5929  2.8210 -0.0400
   76c3c     HC   88   2.572   2.636   2.549  0.4520  0.2090 -1.0259
   76c3c     HC   89   2.483   2.380   2.415  0.8507  1.9136 -0.6603
   76c3c     HC   90   2.379   2.484   2.491 -0.8937 -1.9487 -1.5108
   76c3c     H1   91   2.803   2.240   2.564 -0.2611 -0.9608  0.2255
   76c3c     H1   92   2.649   2.150   2.559 -1.1431  1.1651  2.7150
   76c3c     H1   93   2.673   2.281   2.448 -2.2686  0.0377  0.4638
   76c3c     H1   94   2.603   2.194   2.790 -0.7963  0.3128 -2.5055
   76c3c     H1   95   2.762   2.259   2.797  0.2449 -0.9418 -1.8199
   76c3c     C2   96   2.613   2.379   2.898 -0.1209  0.7403  0.2008
   76c3c     HC   97   2.506   2.401   2.902 -0.6238 -1.4714 -0.2664
   76c3c     HC   98   2.645   2.483   2.907  0.2748  0.5458  1.0887
   76c3c     CT   99   2.656   2.300   3.029  0.7177  0.0498 -0.3688
   76c3c     HC  100   2.617   2.358   3.112 -1.1510 -0.7571 -0.6599
   76c3c     HC  101   2.762   2.283   3.047  0.9338 -0.3204 -1.9377
   76c3c     HC  102   2.616   2.199   3.028 -2.9914  1.4160  0.6527
   77c3c     N4  103   3.098   1.792   2.735 -0.4130  0.0963 -0.3037
   77c3c     C1  104   3.024   1.915   2.700 -0.2971 -0.3043 -1.0509
   77c3c     C1  105   3.008   1.683   2.744 -0.0355 -0.5915 -0.6525
   77c3c     C2  106   2.921   1.860   2.595 -0.0552 -0.0600 -0.1426
   77c3c     C2  107   2.916   1.706   2.614  0.3724  0.3606  0.4015
   77c3c     C1  108   3.206   1.765   2.637  0.5872  0.7028 -0.1607
   77c3c     C1  109   3.183   1.807   2.856  0.3472  0.1190 -0.1240
   77c3c     H1  110   3.085   1.996   2.659  0.1449 -1.0381 -1.8605
   77c3c     H1  111   2.951   1.947   2.774 -0.0765 -1.9210 -0.1082
   77c3c     H1  112   3.049   1.583   2.728  0.1823 -0.3305 -1.8313
   77c3c     H1  113   2.951   1.671   2.836 -0.0799  0.2087 -0.5720
   77c3c     HC  114   2.950   1.886   2.493 -0.2043 -0.3136 -0.2520
   77c3c     HC  115   2.821   1.904   2.600  0.5199  1.1262  1.0897
   77c3c     HC  116   2.951   1.665   2.520 -1.2643  1.1386 -0.5784
   77c3c     HC  117   2.817   1.670   2.642  0.0044  1.8888  1.1471
   77c3c     H1  118   3.294   1.826   2.618  1.1922  0.4143  1.6337
   77c3c     H1  119   3.252   1.674   2.673  0.0859  0.6838  0.4478
   77c3c     H1  120   3.164   1.748   2.538 -0.1118  0.3795  0.1847
   77c3c     H1  121   3.230   1.711   2.877  0.1261 -0.4860 -2.3107
   77c3c     H1  122   3.253   1.890   2.862  0.4379 -0.0843  2.1970
   77c3c     C2  123   3.107   1.838   2.982 -0.0659 -0.4641  0.0287
   77c3c     HC  124   3.026   1.768   3.005 -0.2550 -0.2206  0.1053
   77c3c     HC  125   3.056   1.932   2.963 -0.5079 -0.5009  1.0088
   77c3c     CT  126   3.202   1.851   3.093 -0.2636 -0.3192 -0.2140
   77c3c     HC  127   3.255   1.762   3.126  0.0748 -0.0654 -0.0590
   77c3c     HC  128   3.144   1.887   3.178 -1.6098  1.5279 -1.8623
   77c3c     HC  129   3.272   1.935   3.084 -2.8333  2.7254  5.3256
   78c3c     N4  130   0.532   1.813   2.507 -0.3293 -0.0781  0.4098
   78c3c     C1  131   0.469   1.908   2.415 -0.0138 -0.5054 -0.1592
   78c3c     C1  132   0.628   1.748   2.419 -0.2933  1.0756 -0.4264
   78c3c     C2  133   0.573   1.963   2.327  0.8523  0.4790  0.2057
   78c3c     C2  134   0.681   1.847   2.318 -0.0423  0.1689  0.3912
   78c3c     C1  135   0.612   1.880   2.611 -0.3170  0.0947  0.5086
   78c3c     C1  136   0.435   1.724   2.577 -0.0226  0.1469 -0.3715
   78c3c     H1  137   0.398   1.982   2.453 -3.6875 -2.7270 -2.2894
   78c3c     H1  138   0.400   1.842   2.362 -0.8388 -1.7335  2.3596
   78c3c     H1  139   0.706   1.696   2.475  1.0829  3.3614 -0.1866
   78c3c     H1  140   0.584   1.667   2.361  0.3377 -0.7385  1.5455
   78c3c     HC  141   0.623   2.044   2.380  1.4845  1.3901 -1.7546
   78c3c     HC  142   0.534   2.003   2.234  0.4150 -1.0900 -0.3001
   78c3c     HC  143   0.781   1.885   2.340  0.9961 -2.8638  1.1183
   78c3c     HC  144   0.678   1.819   2.213 -0.1628  1.1134  0.1360
   78c3c     H1  145   0.548   1.940   2.675  0.7669  0.8650  0.8939
   78c3c     H1  146   0.663   1.801   2.666  0.3466  0.2790  0.1646
   78c3c     H1  147   0.683   1.956   2.576  0.3532 -0.4085  0.7677
   78c3c     H1  148   0.477   1.671   2.662  1.9772  1.5741 -0.4151
   78c3c     H1  149   0.360   1.792   2.617  0.2706  0.4283 -0.3022
   78c3c     C2  150   0.348   1.615   2.504 -0.5823  0.4572 -0.0911
   78c3c     HC  151   0.413   1.548   2.447 -0.7987 -0.9011  1.1959
   78c3c     HC  152   0.273   1.662   2.441 -0.1930  0.2424 -0.7186
   78c3c     CT  153   0.259   1.525   2.589  0.6094  0.6541 -0.4227
   78c3c     HC  154   0.167   1.573   2.621  1.4505  0.0900  3.0502
   78c3c     HC  155   0.306   1.492   2.682  0.6156  0.0313 -0.6476
   78c3c     HC  156   0.236   1.439   2.527  0.1724 -0.0786  0.7422
   79c3c     N4  157   3.845   1.522   2.633 -0.1749 -0.4443  0.2106
   79c3c     C1  158   3.890   1.663   2.612  0.0476  0.1454  0.4456
   79c3c     C1  159   3.698   1.543   2.635 -0.0883 -0.3370  0.3865
   79c3c     C2  160   3.794   1.728   2.515 -0.7895 -0.0570 -0.7382
   79c3c     C2  161   3.671   1.644   2.522  0.1151 -0.0545  0.3114
   79c3c     C1  162   3.889   1.431   2.526 -0.2540  0.0560  0.2721
   79c3c     C1  163   3.891   1.475   2.768 -0.3879  0.1224 -0.3809
   79c3c     H1  164   3.989   1.673   2.568 -0.6862 -1.0594 -1.5178
   79c3c     H1  165   3.891   1.721   2.704  3.8364 -1.3148  1.4318
   79c3c     H1  166   3.631   1.459   2.618 -0.4421  0.2307 -1.1608
   79c3c     H1  167   3.654   1.596   2.719 -3.7321 -2.5607 -0.0136
   79c3c     HC  168   3.838   1.728   2.416  0.3730 -0.3870 -0.2351
   79c3c     HC  169   3.778   1.827   2.558  1.4414  0.2393 -0.5263
   79c3c     HC  170   3.665   1.583   2.432  0.0155  1.6713 -0.8676
   79c3c     HC  171   3.584   1.702   2.555 -0.1764 -1.9062  2.9678
   79c3c     H1  172   3.998   1.419   2.523 -0.2071 -0.4888  2.9110
   79c3c     H1  173   3.847   1.331   2.534  2.7312 -1.2629  0.0651
   79c3c     H1  174   3.864   1.463   2.425 -0.1253  0.3352  0.3280
   79c3c     H1  175   3.861   1.370   2.768  0.8999 -0.2982 -3.3556
   79c3c     H1  176   3.999   1.477   2.779 -0.3790 -1.8292  0.0107
   79c3c     C2  177   3.826   1.527   2.900 -0.2824  0.5364  1.0225
   79c3c     HC  178   3.722   1.494   2.904 -1.0964  3.0804  2.0995
   79c3c     HC  179   3.825   1.636   2.895 -2.4153  0.4648 -0.9620
   79c3c     CT  180   3.907   1.472   3.017  0.0581  0.2997  0.5323
   79c3c     HC  181   3.910   1.363   3.026  0.3345  0.1857 -0.8928
   79c3c     HC  182   3.865   1.503   3.113  2.4785  1.1480  1.3572
   79c3c     HC  183   4.008   1.511   3.010 -0.2869  0.9809 -0.8661
   80c3c     N4  184   3.899   1.868   1.864 -0.0095  0.0931  0.1967
   80c3c     C1  185   3.919   1.738   1.931  0.3633 -0.1338 -0.5918
   80c3c     C1  186   3.753   1.877   1.850 -0.1892 -0.9091 -0.6465
   80c3c     C2  187   3.811   1.746   2.039 -0.2997 -0.1936 -0.3705
   80c3c     C2  188   3.703   1.834   1.984 -0.0392 -0.4391 -0.4508
   80c3c     C1  189   3.950   1.982   1.942  0.0729 -0.1557  0.1029
   80c3c     C1  190   3.962   1.873   1.733  0.0160 -0.2329  0.4668
   80c3c     H1  191   4.009   1.720   1.989 -1.3689  1.7945  2.8216
   80c3c     H1  192   3.890   1.656   1.865  3.1113 -1.3372 -0.3698
   80c3c     H1  193   3.717   1.978   1.827  0.5684 -0.4524  0.1571
   80c3c     H1  194   3.704   1.809   1.780 -0.4780  0.3133 -1.6547
   80c3c     HC  195   3.854   1.797   2.125 -2.5589 -0.9777  1.2903
   80c3c     HC  196   3.766   1.651   2.069  0.9809 -0.8208 -0.4291
   80c3c     HC  197   3.683   1.923   2.043  0.1465 -0.6180 -0.1190
   80c3c     HC  198   3.610   1.778   1.992 -0.0622 -0.1901  1.2040
   80c3c     H1  199   4.057   1.973   1.963  0.0497  2.0891  1.2958
   80c3c     H1  200   3.928   2.080   1.899  0.5259  0.4525  1.2321
   80c3c     H1  201   3.899   1.981   2.039 -0.5394 -0.1303 -0.2159
   80c3c     H1  202   3.938   1.972   1.693  1.6283 -0.1925 -0.4175
   80c3c     H1  203   4.068   1.879   1.757  0.3688 -2.4711 -0.4522
   80c3c     C2  204   3.928   1.768   1.630 -0.3016 -0.1654 -0.4467
   80c3c     HC  205   3.827   1.775   1.590 -0.1759  0.5313 -0.6430
   80c3c     HC  206   3.941   1.662   1.652  1.9734  0.0515 -0.5700
   80c3c     CT  207   4.024   1.784   1.514  0.1095  0.4915  0.7017
   80c3c     HC  208   4.017   1.707   1.438 -2.0299  1.0339  0.3210
   80c3c     HC  209   4.128   1.799   1.546  1.0574  1.4787 -2.6561
   80c3c     HC  210   3.993   1.876   1.463  0.5178 -0.1974 -0.8081
   81c3c     N4  211   3.380   2.527   3.381  0.4090  0.5005  0.5220
   81c3c     C1  212   3.477   2.515   3.496  0.0488  0.0579  0.4684
   81c3c     C1  213   3.250   2.465   3.423 -0.1172 -0.2763 -0.3574
   81c3c     C2  214   3.381   2.517   3.620 -0.2710 -0.6360 -0.4055
   81c3c     C2  215   3.234   2.502   3.575 -0.1169  0.9340 -0.2304
   81c3c     C1  216   3.361   2.665   3.348  0.1459  0.4281  0.1278
   81c3c     C1  217   3.432   2.457   3.265 -0.8741 -0.1323 -0.3335
   81c3c     H1  218   3.547   2.599   3.502 -0.1893  0.3689 -0.9308
   81c3c     H1  219   3.543   2.428   3.493 -2.2082 -1.7060  0.2597
   81c3c     H1  220   3.159   2.497   3.373 -0.6881  2.9545  2.5778
   81c3c     H1  221   3.261   2.357   3.411 -0.9779 -0.3707 -0.3654
   81c3c     HC  222   3.396   2.608   3.677  1.4483  0.8825 -3.1175
   81c3c     HC  223   3.401   2.439   3.693 -0.2869 -1.1015 -0.8897
   81c3c     HC  224   3.168   2.587   3.588  1.0176  1.9210 -0.7999
   81c3c     HC  225   3.187   2.417   3.625  0.6674  0.5634 -0.1133
   81c3c     H1  226   3.456   2.700   3.309 -0.1029  0.2013 -0.6936
   81c3c     H1  227   3.279   2.659   3.276  1.4328 -0.1925 -1.3066
   81c3c     H1  228   3.333   2.734   3.428  0.8793  0.6916  0.1615
   81c3c     H1  229   3.369   2.469   3.177 -0.7940 -1.3514 -0.5538
   81c3c     H1  230   3.527   2.505   3.244 -0.6427 -0.2650  0.3866
   81c3c     C2  231   3.460   2.300   3.274 -0.3098  0.2386 -0.0208
   81c3c     HC  232   3.368   2.248   3.246 -0.8892 -0.1281  2.5155
   81c3c     HC  233   3.483   2.273   3.376 -0.5462  2.9663  0.7906
   81c3c     CT  234   3.576   2.260   3.180 -0.1932  0.4483 -0.1554
   81c3c     HC  235   3.676   2.294   3.205  0.0533 -1.2410  1.2132
   81c3c     HC  236   3.565   2.299   3.078 -0.7136 -2.4771 -1.2662
   81c3c     HC  237   3.579   2.152   3.164 -1.2678  0.4649 -0.5369
   82c3c     N4  238   2.240   3.296   2.085 -0.3510  0.3759  0.8800
   82c3c     C1  239   2.284   3.150   2.082 -0.0952 -0.0251 -0.4534
   82c3c     C1  240   2.094   3.281   2.111  0.0649  0.0935  0.0234
   82c3c     C2  241   2.193   3.072   2.181 -0.5023  0.2471 -0.0953
   82c3c     C2  242   2.070   3.157   2.196 -0.1399 -0.8230  0.8254
   82c3c     C1  243   2.296   3.361   2.207  0.3948  0.4654 -0.4274
   82c3c     C1  244   2.288   3.377   1.969 -0.6575  0.1417  0.1074
   82c3c     H1  245   2.389   3.142   2.109  0.0246 -0.2719 -0.9976
   82c3c     H1  246   2.269   3.101   1.985  0.4669  1.8008 -1.4833
   82c3c     H1  247   2.043   3.368   2.152  0.5580 -0.0314  0.9377
   82c3c     H1  248   2.048   3.257   2.015  0.1822  1.8829 -0.4947
   82c3c     HC  249   2.244   3.073   2.278  0.7984 -1.0996 -0.7467
   82c3c     HC  250   2.179   2.971   2.144  1.7399 -0.5917  1.2175
   82c3c     HC  251   2.059   3.188   2.300 -1.7120  1.1824  0.0815
   82c3c     HC  252   1.975   3.114   2.164 -0.5729  1.0741 -0.4844
   82c3c     H1  253   2.404   3.366   2.220  0.4321 -2.6183  0.7552
   82c3c     H1  254   2.269   3.466   2.214 -1.3172  0.1484 -1.7349
   82c3c     H1  255   2.263   3.311   2.297  2.2487  0.0277  0.0311
   82c3c     H1  256   2.269   3.483   1.989  1.1881  0.5384 -0.1477
   82c3c     H1  257   2.395   3.357   1.970 -0.4713  1.0969 -0.1750
   82c3c     C2  258   2.221   3.328   1.835  0.1561  0.6571  0.1211
   82c3c     HC  259   2.119   3.365   1.828  0.0729  0.2028 -1.1761
   82c3c     HC  260   2.231   3.224   1.805 -1.5117  0.6993 -0.6409
   82c3c     CT  261   2.289   3.407   1.724 -0.4168  0.0664 -0.5698
   82c3c     HC  262   2.252   3.509   1.733  1.4487  0.6573  0.7264
   82c3c     HC  263   2.266   3.362   1.627  0.4493 -1.7530  0.0309
   82c3c     HC  264   2.398   3.413   1.728 -0.3037 -1.9097  0.2991
   83c3c     N4  265   3.184   1.445   1.971 -0.7221 -0.1420 -0.3162
   83c3c     C1  266   3.111   1.450   1.845  0.8698 -0.4176  0.0961
   83c3c     C1  267   3.242   1.313   1.973 -0.2307 -0.1261 -0.0641
   83c3c     C2  268   3.199   1.383   1.743  0.1638  0.5927  0.0727
   83c3c     C2  269   3.286   1.294   1.826  0.2389  0.2480 -0.3389
   83c3c     C1  270   3.291   1.553   1.970  0.1681 -0.3828  0.1792
   83c3c     C1  271   3.102   1.478   2.096 -0.6028 -0.4328  0.0294
   83c3c     H1  272   3.070   1.543   1.806 -1.1035 -2.2978 -2.5645
   83c3c     H1  273   3.025   1.384   1.857 -0.8810  2.2526  3.1350
   83c3c     H1  274   3.312   1.321   2.056 -0.3500  0.7908 -0.0380
   83c3c     H1  275   3.185   1.226   2.005  0.0185 -0.8385 -1.5011
   83c3c     HC  276   3.270   1.450   1.695 -0.3901 -0.1668 -1.8422
   83c3c     HC  277   3.151   1.331   1.660  0.0066  0.4724  0.2376
   83c3c     HC  278   3.385   1.333   1.803  0.7355 -0.3596  0.7017
   83c3c     HC  279   3.274   1.191   1.795 -1.7161 -0.0882  1.4469
   83c3c     H1  280   3.254   1.654   1.955 -1.0132 -0.7497  0.5980
   83c3c     H1  281   3.360   1.558   2.055  2.4925  0.0310 -1.6805
   83c3c     H1  282   3.359   1.541   1.885  0.1462 -1.3547  0.2924
   83c3c     H1  283   3.174   1.502   2.175  0.0649  1.4647 -1.0943
   83c3c     H1  284   3.052   1.572   2.073 -2.4455 -0.8713  2.1134
   83c3c     C2  285   2.994   1.379   2.137 -0.5285 -0.3106 -0.4388
   83c3c     HC  286   3.042   1.291   2.179  0.6035  0.5128  0.0122
   83c3c     HC  287   2.922   1.340   2.065 -2.0988 -1.3168  1.5989
   83c3c     CT  288   2.916   1.441   2.255 -0.1154 -0.6674  0.2402
   83c3c     HC  289   2.979   1.436   2.344  1.1172  1.2238 -0.4946
   83c3c     HC  290   2.825   1.391   2.287  1.0682 -1.3002  2.8476
   83c3c     HC  291   2.899   1.546   2.232  1.0271 -0.3502  0.7483
   84c3c     N4  292   3.271   2.759   2.537  0.0292  0.0785 -0.3384
   84c3c     C1  293   3.203   2.629   2.509 -0.8013 -0.1683 -0.3187
   84c3c     C1  294   3.379   2.772   2.430  0.0109 -0.4575  0.3215
   84c3c     C2  295   3.247   2.586   2.371  0.8439  0.3770  0.5737
   84c3c     C2  296   3.396   2.633   2.372  0.7327  0.7785 -0.6743
   84c3c     C1  297   3.174   2.875   2.537 -0.2459  0.1786 -0.7674
   84c3c     C1  298   3.326   2.757   2.672 -0.2694  0.1777  0.3374
   84c3c     H1  299   3.095   2.624   2.518 -0.8707  0.5703 -0.7375
   84c3c     H1  300   3.243   2.544   2.564  1.0582  1.0635  0.2897
   84c3c     H1  301   3.343   2.842   2.354 -0.8277 -1.6066 -0.3639
   84c3c     H1  302   3.473   2.813   2.465 -0.8360  0.9716  0.9608
   84c3c     HC  303   3.190   2.636   2.292 -0.9925 -0.8396  1.0717
   84c3c     HC  304   3.233   2.480   2.350  0.2094  0.2913  1.4073
   84c3c     HC  305   3.431   2.628   2.269  0.8391  1.3867 -0.6698
   84c3c     HC  306   3.465   2.581   2.439  1.2724  1.9806 -0.2858
   84c3c     H1  307   3.096   2.852   2.610  0.5148 -2.5913 -0.8076
   84c3c     H1  308   3.207   2.973   2.573  0.7163 -0.4989  0.2325
   84c3c     H1  309   3.128   2.897   2.441 -0.1583 -1.3926 -1.1788
   84c3c     H1  310   3.379   2.851   2.690  0.6224  0.0241 -1.3913
   84c3c     H1  311   3.253   2.755   2.753  0.0459 -0.1636  0.6133
   84c3c     C2  312   3.438   2.654   2.709  0.4135  0.3984  0.6148
   84c3c     HC  313   3.527   2.673   2.648  0.2232  0.0863  0.2346
   84c3c     HC  314   3.414   2.550   2.686  2.2561 -0.0999  0.8536
   84c3c     CT  315   3.469   2.667   2.856  0.7024 -0.0319  0.0480
   84c3c     HC  316   3.386   2.644   2.922  0.4631  0.9240  0.0840
   84c3c     HC  317   3.493   2.769   2.885 -1.0863  0.9911 -1.9843
   84c3c     HC  318   3.559   2.611   2.882 -0.2835 -1.2585  0.8643
   85c3c     N4  319   2.012   3.827   2.839 -0.4329  0.0057  0.3215
   85c3c     C1  320   1.946   3.828   2.703 -0.2337  0.6592  0.1146
   85c3c     C1  321   1.942   3.719   2.918 -0.4210 -0.8280 -0.0701
   85c3c     C2  322   1.907   3.682   2.684 -0.2085  0.1878  1.1391
   85c3c     C2  323   1.892   3.615   2.816  0.5077  0.4850 -0.1634
   85c3c     C1  324   2.151   3.779   2.816 -0.6458 -0.3073 -0.1446
   85c3c     C1  325   2.005   3.960   2.902  0.4983  0.3359 -0.0275
   85c3c     H1  326   2.012   3.867   2.625  0.5726 -0.6107  0.1500
   85c3c     H1  327   1.851   3.881   2.704 -0.3207  0.5022  0.0826
   85c3c     H1  328   2.003   3.664   2.990 -0.4155  0.2548  0.7755
   85c3c     H1  329   1.862   3.759   2.981  0.8998  0.9942  0.5034
   85c3c     HC  330   1.974   3.627   2.617 -1.8819  0.3651 -0.7460
   85c3c     HC  331   1.817   3.665   2.624 -0.8448 -3.6910  2.9837
   85c3c     HC  332   1.952   3.524   2.814 -1.6324 -0.9854  0.9763
   85c3c     HC  333   1.792   3.577   2.835 -0.0241  0.3782 -2.8793
   85c3c     H1  334   2.210   3.854   2.764  0.0222 -0.5418  0.2758
   85c3c     H1  335   2.202   3.765   2.911 -0.9020 -0.7010 -0.0636
   85c3c     H1  336   2.167   3.681   2.771  0.8716 -0.0028 -0.3032
   85c3c     H1  337   2.042   3.948   3.004  1.0167 -1.3037 -0.3941
   85c3c     H1  338   2.060   4.039   2.852  0.1937  1.5806  1.5582
   85c3c     C2  339   1.861   4.017   2.947 -0.2507  0.2370 -0.3589
   85c3c     HC  340   1.817   3.967   3.033 -0.6840  0.9883 -0.1339
   85c3c     HC  341   1.787   3.991   2.871  0.6327  1.5750 -1.7068
   85c3c     CT  342   1.860   4.170   2.965 -0.0688  0.5524 -0.6686
   85c3c     HC  343   1.766   4.216   2.994  0.3199 -0.1479  1.8615
   85c3c     HC  344   1.885   4.219   2.871  1.6631 -0.2850 -0.6659
   85c3c     HC  345   1.924   4.200   3.048 -0.9566 -0.9761  0.5917
   86c3c     N4  346   1.803   1.820   3.066 -0.1183 -0.1954 -0.4464
   86c3c     C1  347   1.818   1.699   2.980  0.1460 -0.4253  0.6119
   86c3c     C1  348   1.891   1.922   3.001  1.0102  0.4692  0.0562
   86c3c     C2  349   1.821   1.758   2.835  0.1707  0.6412  0.1012
   86c3c     C2  350   1.900   1.896   2.851  0.7107  0.2769 -0.7380
   86c3c     C1  351   1.665   1.874   3.067  0.1588  0.0376  0.2671
   86c3c     C1  352   1.837   1.793   3.205 -0.4577  0.5741  0.1617
   86c3c     H1  353   1.732   1.633   2.987  0.6604 -1.2951 -1.1050
   86c3c     H1  354   1.913   1.650   3.003  0.1611  0.4280  2.4953
   86c3c     H1  355   1.866   2.022   3.036  1.7973  1.7586 -2.9299
   86c3c     H1  356   1.993   1.909   3.037  1.0652  3.6056  1.1834
   86c3c     HC  357   1.722   1.776   2.792  0.1675  1.2342  0.3525
   86c3c     HC  358   1.871   1.687   2.768 -2.0547 -0.6907 -0.1902
   86c3c     HC  359   1.847   1.971   2.791  0.7493 -0.4975 -1.7550
   86c3c     HC  360   1.997   1.864   2.815  0.7536 -1.0996  0.5508
   86c3c     H1  361   1.592   1.804   3.108 -0.3271 -0.3882 -1.2867
   86c3c     H1  362   1.664   1.960   3.135 -1.5723  0.6605 -0.5189
   86c3c     H1  363   1.627   1.907   2.971 -0.2791  0.3174  0.5359
   86c3c     H1  364   1.798   1.871   3.270  1.0320  0.9732  0.5885
   86c3c     H1  365   1.775   1.708   3.232  0.8594 -0.3208  0.4480
   86c3c     C2  366   1.985   1.761   3.243 -0.5391 -0.0247  0.1704
   86c3c     HC  367   2.052   1.844   3.223  0.1482 -1.2369 -2.8295
   86c3c     HC  368   2.022   1.680   3.180  1.9786  0.1485  1.4027
   86c3c     CT  369   2.006   1.724   3.385  0.3677  1.0513 -0.1959
   86c3c     HC  370   1.982   1.809   3.449 -0.7823  0.3192  0.3785
   86c3c     HC  371   2.114   1.711   3.385 -0.0807 -3.8681 -2.2310
   86c3c     HC  372   1.955   1.633   3.417 -0.6832  1.8026  0.2858
   87c3c     N4  373   1.736   2.576   2.929 -0.2247 -0.1191  0.6684
   87c3c     C1  374   1.772   2.714   2.897 -0.3815  0.3051 -0.1193
   87c3c     C1  375   1.719   2.511   2.801 -0.0013 -0.0216  0.3882
   87c3c     C2  376   1.842   2.707   2.760 -0.2125 -0.3697 -0.2969
   87c3c     C2  377   1.838   2.561   2.725  0.1251 -0.2254  0.2698
   87c3c     C1  378   1.843   2.512   3.003 -0.3070 -0.0088  0.0469
   87c3c     C1  379   1.619   2.565   3.016  0.0866  0.0727 -0.1682
   87c3c     H1  380   1.844   2.752   2.969 -0.5414 -1.0015  0.7451
   87c3c     H1  381   1.689   2.785   2.891  1.6778  2.9692  2.0303
   87c3c     H1  382   1.702   2.403   2.804 -0.2545 -0.0936 -2.7318
   87c3c     H1  383   1.627   2.546   2.756 -0.2284  2.5729  2.7100
   87c3c     HC  384   1.945   2.744   2.760 -0.4611  0.3971 -2.5449
   87c3c     HC  385   1.779   2.766   2.693  3.0108  1.5699 -1.7791
   87c3c     HC  386   1.930   2.510   2.752  0.3291 -0.4238 -0.7683
   87c3c     HC  387   1.833   2.541   2.618  1.6913 -1.5818  0.4379
   87c3c     H1  388   1.851   2.554   3.103  1.7482 -1.7375  0.6622
   87c3c     H1  389   1.825   2.405   3.012  0.5869 -0.1256  0.4620
   87c3c     H1  390   1.944   2.515   2.961  0.5051 -3.4323  1.5307
   87c3c     H1  391   1.609   2.468   3.065 -0.3810  0.1641 -0.0738
   87c3c     H1  392   1.641   2.625   3.104  1.6208  1.1947 -1.2829
   87c3c     C2  393   1.478   2.602   2.961  0.0313 -0.1682  0.6147
   87c3c     HC  394   1.443   2.524   2.894  0.1241  0.6807 -0.4478
   87c3c     HC  395   1.493   2.689   2.897  0.1752  0.3674  1.3699
   87c3c     CT  396   1.387   2.648   3.080  1.1264 -0.1911  0.2174
   87c3c     HC  397   1.285   2.676   3.054  1.5833  2.8582  1.4686
   87c3c     HC  398   1.439   2.728   3.133  2.6211 -1.9578  1.4833
   87c3c     HC  399   1.366   2.566   3.149 -1.8040 -0.1405 -0.5432
   88c3c     N4  400   3.370   4.512   3.173 -0.9164 -0.1657  0.3846
   88c3c     C1  401   3.499   4.579   3.176 -0.0160  0.1252 -0.1038
   88c3c     C1  402   3.382   4.416   3.279 -0.1114 -0.1236 -0.0447
   88c3c     C2  403   3.530   4.596   3.322  0.4581  0.4002  0.2928
   88c3c     C2  404   3.450   4.486   3.392 -0.1290  0.4161  0.0690
   88c3c     C1  405   3.264   4.600   3.214 -0.1532 -0.6116  0.0378
   88c3c     C1  406   3.352   4.458   3.038 -0.0459  0.1862  0.7164
   88c3c     H1  407   3.502   4.670   3.117  0.2757  1.2519  1.6127
   88c3c     H1  408   3.576   4.515   3.133  0.2558  1.0878 -1.0638
   88c3c     H1  409   3.292   4.366   3.314  0.4546 -0.3346  1.1228
   88c3c     H1  410   3.440   4.327   3.255 -1.2511 -1.5365  2.2568
   88c3c     HC  411   3.510   4.699   3.350  0.5196 -0.3479  3.2772
   88c3c     HC  412   3.637   4.583   3.339  0.3900 -0.3730  0.1576
   88c3c     HC  413   3.384   4.539   3.460  1.5765  0.8142  1.4464
   88c3c     HC  414   3.512   4.417   3.450  0.2480  1.2951  0.7145
   88c3c     H1  415   3.248   4.679   3.140 -2.1450 -1.8145 -0.8770
   88c3c     H1  416   3.162   4.561   3.219  0.5993 -2.6879 -0.5056
   88c3c     H1  417   3.270   4.642   3.314 -1.1679  1.2969 -0.6672
   88c3c     H1  418   3.247   4.443   3.015 -0.8307  1.9370  2.8707
   88c3c     H1  419   3.380   4.535   2.967  0.8708  0.3910  1.2906
   88c3c     C2  420   3.408   4.315   3.007  0.4489 -0.4189  0.1175
   88c3c     HC  421   3.361   4.244   3.074  1.1896  0.3174  1.4501
   88c3c     HC  422   3.517   4.303   3.008  0.4073 -1.0640 -1.5783
   88c3c     CT  423   3.372   4.254   2.868  0.7221 -0.4432  0.2806
   88c3c     HC  424   3.430   4.305   2.790  0.8151  1.9377  1.8307
   88c3c     HC  425   3.265   4.272   2.859  0.4755 -0.2127  3.3215
   88c3c     HC  426   3.386   4.147   2.875  1.4767 -0.3484  0.2421
   89c3c     N4  427   5.635   1.917   2.144  0.1769 -0.1096 -0.1930
   89c3c     C1  428   5.495   1.972   2.129  0.2420 -0.0664  0.7778
   89c3c     C1  429   5.638   1.806   2.048 -0.1859 -0.2051 -0.0654
   89c3c     C2  430   5.466   1.966   1.974 -0.1499 -0.2055 -0.0659
   89c3c     C2  431   5.567   1.863   1.926 -0.9203  0.4123 -0.0791
   89c3c     C1  432   5.731   2.018   2.103 -0.2443  0.0120 -0.4460
   89c3c     C1  433   5.657   1.881   2.289 -0.2042 -0.3026  0.1795
   89c3c     H1  434   5.464   2.061   2.184 -1.1959 -0.4126  0.5417
   89c3c     H1  435   5.421   1.897   2.158  0.3927  0.5984  2.9813
   89c3c     H1  436   5.741   1.779   2.022  0.3276  0.5259  1.1656
   89c3c     H1  437   5.584   1.722   2.092 -0.7247  0.7447  1.0815
   89c3c     HC  438   5.486   2.058   1.920  1.1907 -1.3892 -1.6300
   89c3c     HC  439   5.363   1.932   1.958 -0.6797  1.5093 -0.4019
   89c3c     HC  440   5.642   1.905   1.860  1.2977 -1.5714  1.0810
   89c3c     HC  441   5.512   1.793   1.863  0.9811 -2.0219  0.8701
   89c3c     H1  442   5.742   2.101   2.173  3.8423  0.4092 -1.4234
   89c3c     H1  443   5.830   1.975   2.087 -0.9902 -0.9146 -2.6872
   89c3c     H1  444   5.722   2.065   2.005  1.4584  0.0117 -0.6243
   89c3c     H1  445   5.743   1.813   2.291 -2.1161 -2.7493  0.8671
   89c3c     H1  446   5.665   1.970   2.351 -2.6288 -0.6024  0.9357
   89c3c     C2  447   5.550   1.790   2.357 -0.2309 -0.9090 -0.3215
   89c3c     HC  448   5.542   1.705   2.289 -0.9412 -1.8442  0.9100
   89c3c     HC  449   5.449   1.831   2.351 -0.9425 -2.0721  2.8132
   89c3c     CT  450   5.579   1.753   2.507 -0.2431 -0.3418 -0.1062
   89c3c     HC  451   5.508   1.680   2.548 -0.0786 -0.2660  0.3176
   89c3c     HC  452   5.563   1.836   2.575 -0.4512  0.4824 -1.1544
   89c3c     HC  453   5.682   1.719   2.519 -0.1599  0.2777  1.0879
   90c3c     N4  454   5.852   2.467   2.576  0.5146 -0.0825  0.2108
   90c3c     C1  455   5.917   2.551   2.675 -0.2620 -0.1640 -0.2732
   90c3c     C1  456   5.738   2.541   2.528 -0.0049 -0.4320  0.0353
   90c3c     C2  457   5.906   2.696   2.626  0.4413 -0.8275  0.2721
   90c3c     C2  458   5.774   2.687   2.538 -0.1114 -0.2677 -0.0819
   90c3c     C1  459   5.943   2.451   2.461 -0.5000  0.2041 -0.3208
   90c3c     C1  460   5.820   2.332   2.632  0.2389  0.2694  0.1631
   90c3c     H1  461   6.018   2.517   2.699  0.3500  1.9749  0.3081
   90c3c     H1  462   5.859   2.545   2.767  0.0352 -0.9981 -0.1402
   90c3c     H1  463   5.694   2.507   2.435  2.3437  0.4754 -1.4434
   90c3c     H1  464   5.659   2.520   2.600 -0.4490 -1.5885 -0.7904
   90c3c     HC  465   5.982   2.734   2.558  1.3685  0.5008  1.9912
   90c3c     HC  466   5.889   2.764   2.710  1.4631  2.2032 -1.9111
   90c3c     HC  467   5.772   2.737   2.441  1.9399  0.9747  0.4820
   90c3c     HC  468   5.698   2.736   2.600  0.0123  0.0186 -0.1572
   90c3c     H1  469   6.044   2.420   2.490 -0.8071 -0.4484  0.0525
   90c3c     H1  470   5.899   2.378   2.394  0.1471 -0.3365 -0.1680
   90c3c     H1  471   5.945   2.544   2.404  1.4782  0.5945  0.3296
   90c3c     H1  472   5.807   2.261   2.551  0.2956  1.3909 -0.8385
   90c3c     H1  473   5.913   2.301   2.680 -0.0748 -1.2746 -0.1938
   90c3c     C2  474   5.710   2.313   2.734  0.5538  0.8247 -0.8543
   90c3c     HC  475   5.615   2.333   2.684  0.2851  0.0692 -0.6434
   90c3c     HC  476   5.724   2.378   2.821 -1.6427 -0.2122  0.3083
   90c3c     CT  477   5.722   2.170   2.785  0.3653  0.3406 -0.1362
   90c3c     HC  478   5.661   2.159   2.874 -1.2695 -0.0620 -1.2746
   90c3c     HC  479   5.825   2.144   2.810  0.0177 -2.0430 -1.0344
   90c3c     HC  480   5.687   2.092   2.718 -1.5023  0.6836  0.4151
   91c3c     N4  481   0.989   2.405   2.491  0.0482  0.3191  0.6156
   91c3c     C1  482   1.117   2.471   2.521  0.9353 -0.1144 -0.2022
   91c3c     C1  483   0.966   2.328   2.613 -0.1177  0.5086 -0.4970
   91c3c     C2  484   1.203   2.366   2.602  0.0740  1.0947  0.4879
   91c3c     C2  485   1.097   2.274   2.666 -0.2850 -0.1180 -0.3516
   91c3c     C1  486   0.890   2.513   2.477  0.8738  0.2658 -0.4875
   91c3c     C1  487   1.003   2.331   2.368 -0.9314 -0.6666 -0.1993
   91c3c     H1  488   1.095   2.540   2.603  0.4618  0.5446 -0.8801
   91c3c     H1  489   1.163   2.518   2.434  2.6407  1.2702  1.3809
   91c3c     H1  490   0.923   2.389   2.693  2.7207  0.1199  1.4085
   91c3c     H1  491   0.898   2.244   2.602 -0.6084  0.6321  1.3427
   91c3c     HC  492   1.269   2.415   2.674  0.6411  1.4422 -0.2531
   91c3c     HC  493   1.268   2.299   2.545  0.7069  0.3811  2.0314
   91c3c     HC  494   1.096   2.271   2.775  2.2511  1.8463 -0.2404
   91c3c     HC  495   1.112   2.172   2.633 -0.9052 -0.4482  0.3759
   91c3c     H1  496   0.928   2.579   2.399 -0.7745  1.7877 -0.0122
   91c3c     H1  497   0.791   2.473   2.456  0.4060  0.0180  2.0569
   91c3c     H1  498   0.884   2.575   2.567 -0.3778  0.3149 -0.6002
   91c3c     H1  499   1.047   2.396   2.293  1.5756 -1.8850  0.1458
   91c3c     H1  500   1.076   2.250   2.380 -0.7568 -0.6287 -0.9592
   91c3c     C2  501   0.868   2.268   2.317 -0.7774  0.5494  0.4619
   91c3c     HC  502   0.808   2.347   2.271 -0.2982 -0.3019 -1.7016
   91c3c     HC  503   0.809   2.226   2.399 -0.3532 -0.5565  0.2036
   91c3c     CT  504   0.883   2.167   2.209 -0.8349 -0.1197  0.7581
   91c3c     HC  505   0.918   2.069   2.243  0.2819 -1.2233 -3.3325
   91c3c     HC  506   0.951   2.194   2.128 -0.7084  0.7330  1.1462
   91c3c     HC  507   0.785   2.140   2.169  0.0452 -0.2500 -1.3802
   92c3c     N4  508   4.229   2.084   3.236  0.1092  0.0005  0.3190
   92c3c     C1  509   4.345   2.043   3.158  0.0623  0.0057 -0.0698
   92c3c     C1  510   4.270   2.170   3.342 -0.7044 -1.0710 -0.1152
   92c3c     C2  511   4.433   2.170   3.153 -0.0088  0.5851  0.3663
   92c3c     C2  512   4.397   2.244   3.288  0.5894 -0.4112 -0.1665
   92c3c     C1  513   4.135   2.163   3.155 -0.4572 -0.4209  0.2500
   92c3c     C1  514   4.153   1.966   3.289 -0.4078 -0.3236  0.3706
   92c3c     H1  515   4.309   2.017   3.058 -1.0984 -2.1065  0.8492
   92c3c     H1  516   4.399   1.955   3.192 -1.6661 -0.8072  0.6426
   92c3c     H1  517   4.196   2.238   3.383  0.9033  1.2073 -0.8931
   92c3c     H1  518   4.304   2.115   3.430 -4.2407 -1.8017  0.8626
   92c3c     HC  519   4.403   2.229   3.066  0.1046  0.7952  0.4688
   92c3c     HC  520   4.535   2.132   3.155  0.2706  1.3544  0.8464
   92c3c     HC  521   4.387   2.350   3.267  1.3854 -0.1990  0.4898
   92c3c     HC  522   4.471   2.247   3.368 -0.3221 -0.2524  0.6742
   92c3c     H1  523   4.103   2.100   3.072 -0.9420  0.8511 -0.5306
   92c3c     H1  524   4.047   2.206   3.202 -0.6201  1.5775 -1.7934
   92c3c     H1  525   4.182   2.243   3.099 -2.3283 -0.7925 -1.9108
   92c3c     H1  526   4.068   1.997   3.350 -1.3877 -2.6116  0.2339
   92c3c     H1  527   4.098   1.916   3.210  0.5220 -0.2803 -0.3157
   92c3c     C2  528   4.230   1.859   3.366 -0.4164 -0.2119  0.7281
   92c3c     HC  529   4.283   1.899   3.452  2.0987 -1.0696 -0.3703
   92c3c     HC  530   4.303   1.809   3.303  0.5687  0.5170  1.2830
   92c3c     CT  531   4.149   1.738   3.413  0.3007 -0.6654  0.5724
   92c3c     HC  532   4.105   1.683   3.330  1.5503  1.3839 -1.4905
   92c3c     HC  533   4.062   1.782   3.463 -0.3739  0.6518 -1.7008
   92c3c     HC  534   4.192   1.663   3.479 -1.2238 -1.3575  0.8069
   93c3c     N4  535   4.284   4.039   3.752  0.1070  0.5682 -0.2881
   93c3c     C1  536   4.391   4.034   3.858  0.1856 -0.3971  0.0195
   93c3c     C1  537   4.327   3.947   3.647  0.5334 -0.4381  0.4269
   93c3c     C2  538   4.468   3.899   3.837  0.4756  0.1811 -0.0439
   93c3c     C2  539   4.396   3.831   3.719 -0.2472 -0.2033 -0.3877
   93c3c     C1  540   4.160   3.989   3.803 -0.7130  0.0578  0.1204
   93c3c     C1  541   4.264   4.172   3.701  0.3409 -0.0012  0.1833
   93c3c     H1  542   4.367   4.042   3.964 -1.0982  0.0590 -0.2873
   93c3c     H1  543   4.460   4.117   3.843  0.2153 -0.0274  2.0344
   93c3c     H1  544   4.245   3.919   3.580 -0.2432 -1.6092  1.8563
   93c3c     H1  545   4.410   3.985   3.587 -1.3591  3.8644  0.3302
   93c3c     HC  546   4.456   3.826   3.918  3.1628 -0.6739 -0.3673
   93c3c     HC  547   4.570   3.926   3.810  1.6385 -3.1977  0.6793
   93c3c     HC  548   4.313   3.766   3.746  1.3818 -1.9696  0.4482
   93c3c     HC  549   4.466   3.784   3.649  0.2380  1.5822 -1.1391
   93c3c     H1  550   4.123   4.052   3.884 -2.1545 -2.7785  1.7160
   93c3c     H1  551   4.076   3.976   3.735 -1.9198 -1.2276  1.8192
   93c3c     H1  552   4.166   3.889   3.844  1.3221 -1.1285 -2.8366
   93c3c     H1  553   4.190   4.168   3.621 -1.8276  1.2614  2.0828
   93c3c     H1  554   4.225   4.241   3.775  0.5625 -0.2392  0.5229
   93c3c     C2  555   4.378   4.251   3.636  0.0100  0.0166  0.0309
   93c3c     HC  556   4.401   4.201   3.542 -0.4885  1.3726 -0.8393
   93c3c     HC  557   4.471   4.250   3.692 -0.8901 -1.8754  1.5583
   93c3c     CT  558   4.334   4.397   3.610  0.5910 -0.0536 -0.2193
   93c3c     HC  559   4.383   4.438   3.521  1.3403 -0.4964 -0.0138
   93c3c     HC  560   4.372   4.461   3.689 -0.5107  0.5299 -0.1540
   93c3c     HC  561   4.226   4.405   3.599  0.6445  2.0391  0.6357
   94c3c     N4  562   4.124   4.054   2.947 -0.1968 -0.1677  0.6163
   94c3c     C1  563   4.070   3.944   2.860 -0.5952 -0.0550  0.3562
   94c3c     C1  564   4.006   4.144   2.952 -0.1598  0.3061 -0.3817
   94c3c     C2  565   3.922   3.930   2.886 -0.3582  0.4527  0.1287
   94c3c     C2  566   3.881   4.051   2.968  0.1250  0.8527 -0.5639
   94c3c     C1  567   4.136   3.997   3.082 -0.0559 -0.4037 -0.2116
   94c3c     C1  568   4.256   4.108   2.906 -0.5691 -0.6773  0.0026
   94c3c     H1  569   4.139   3.860   2.863  0.3305  0.5853 -1.6755
   94c3c     H1  570   4.077   3.975   2.755 -0.6835 -0.2369  0.2952
   94c3c     H1  571   4.019   4.206   3.041 -1.7485 -1.7671  1.3317
   94c3c     H1  572   4.007   4.210   2.865 -1.0180  0.4130 -0.3116
   94c3c     HC  573   3.887   3.844   2.943  1.8424 -0.0525  0.7582
   94c3c     HC  574   3.865   3.935   2.794 -0.0333  1.4454 -0.0276
   94c3c     HC  575   3.859   4.017   3.069  1.7687  0.7254 -0.2477
   94c3c     HC  576   3.791   4.107   2.940 -1.0407 -0.3412  0.6957
   94c3c     H1  577   4.052   3.940   3.122  0.6815 -0.7963  0.7994
   94c3c     H1  578   4.216   3.925   3.067  0.8776  1.0882 -2.7712
   94c3c     H1  579   4.163   4.072   3.157  1.2304 -2.2064  1.1632
   94c3c     H1  580   4.297   4.171   2.985  0.2752  0.5133 -1.3657
   94c3c     H1  581   4.339   4.040   2.887  2.1491  2.4086  0.4439
   94c3c     C2  582   4.264   4.197   2.774  0.2743 -0.0662 -0.2380
   94c3c     HC  583   4.190   4.277   2.777 -0.3580 -0.5619 -2.2201
   94c3c     HC  584   4.222   4.144   2.689  0.6827  0.7125 -0.9226
   94c3c     CT  585   4.398   4.265   2.735 -1.1483  0.3619 -1.1610
   94c3c     HC  586   4.454   4.299   2.822 -1.3158 -0.4099 -0.7459
   94c3c     HC  587   4.376   4.351   2.672  1.0263  2.7276  1.1518
   94c3c     HC  588   4.460   4.188   2.690  0.4940  0.6306  0.5719
   95c3c     N4  589   2.389   2.783   3.438 -0.6796 -0.0596 -0.7450
   95c3c     C1  590   2.442   2.784   3.576 -0.0211  0.1443  0.4000
   95c3c     C1  591   2.311   2.907   3.427  0.1235  0.4211  0.0153
   95c3c     C2  592   2.470   2.930   3.616  0.5874 -0.5933  0.9795
   95c3c     C2  593   2.368   3.011   3.525  0.0081 -0.0507 -0.1861
   95c3c     C1  594   2.503   2.791   3.345  0.2535 -0.2862  0.8972
   95c3c     C1  595   2.315   2.658   3.406 -0.2765  0.4653  0.0009
   95c3c     H1  596   2.530   2.723   3.598 -0.5168 -1.1025 -0.9640
   95c3c     H1  597   2.372   2.752   3.653 -1.7894 -0.9411 -1.6054
   95c3c     H1  598   2.307   2.958   3.331  0.9894  0.5840  0.0614
   95c3c     H1  599   2.207   2.900   3.459  0.0037  0.0026 -0.4558
   95c3c     HC  600   2.575   2.959   3.607  0.4383  0.1295  1.4960
   95c3c     HC  601   2.440   2.949   3.719  0.9973 -0.3115  1.0482
   95c3c     HC  602   2.417   3.094   3.475  2.1292 -1.1469  0.0044
   95c3c     HC  603   2.286   3.044   3.588  1.4247  1.9263  0.6636
   95c3c     H1  604   2.568   2.703   3.346  0.0560 -0.4258  2.0378
   95c3c     H1  605   2.463   2.812   3.245  1.8973 -0.6098  0.1507
   95c3c     H1  606   2.579   2.867   3.357  2.1954 -1.7622 -1.4698
   95c3c     H1  607   2.263   2.664   3.310 -0.7658  1.6824  0.3434
   95c3c     H1  608   2.386   2.576   3.395 -0.4367  0.4321 -0.8183
   95c3c     C2  609   2.198   2.621   3.506 -0.4452 -0.4584 -0.1332
   95c3c     HC  610   2.125   2.698   3.531  0.0133 -0.2456  0.5744
   95c3c     HC  611   2.247   2.592   3.599 -0.7853 -2.3286 -0.5150
   95c3c     CT  612   2.126   2.493   3.462 -0.4893  0.1020 -0.2355
   95c3c     HC  613   2.084   2.502   3.362  0.2851 -0.4648 -0.6163
   95c3c     HC  614   2.053   2.452   3.532  0.4333 -0.0467  0.6507
   95c3c     HC  615   2.202   2.415   3.458  0.9961  1.4717  0.7828
   96c3c     N4  616   1.559   3.090   2.619 -0.5299  0.1280 -0.3471
   96c3c     C1  617   1.544   2.970   2.533 -0.5405 -0.0349 -0.0543
   96c3c     C1  618   1.426   3.158   2.614 -0.6090  0.3745 -0.1301
   96c3c     C2  619   1.395   2.950   2.503 -0.2584 -0.0703  0.7771
   96c3c     C2  620   1.326   3.051   2.593 -0.8001  0.2603  0.5338
   96c3c     C1  621   1.559   3.042   2.755 -0.1572  0.8976  0.5205
   96c3c     C1  622   1.678   3.173   2.602  0.2063 -0.0421  0.0038
   96c3c     H1  623   1.580   2.882   2.586 -2.3353 -0.8182 -0.0906
   96c3c     H1  624   1.611   2.972   2.448 -0.0626  0.7641  0.3290
   96c3c     H1  625   1.407   3.218   2.702 -1.5470 -1.2538  0.7991
   96c3c     H1  626   1.404   3.212   2.522 -0.3858 -1.9426 -1.5952
   96c3c     HC  627   1.355   2.850   2.523  0.5424 -0.2438  1.5304
   96c3c     HC  628   1.382   2.972   2.397 -0.2279  0.9861  0.9843
   96c3c     HC  629   1.283   3.017   2.687 -2.1386 -1.7097 -0.7686
   96c3c     HC  630   1.237   3.080   2.538 -1.8217 -2.2175  0.7800
   96c3c     H1  631   1.649   2.983   2.772  0.5455  1.4091 -1.3463
   96c3c     H1  632   1.556   3.116   2.835  0.5851 -1.7153  3.0683
   96c3c     H1  633   1.476   2.979   2.788  1.2371 -0.8725  0.7165
   96c3c     H1  634   1.670   3.252   2.677 -2.2417 -0.8006  0.6055
   96c3c     H1  635   1.772   3.120   2.617  1.9505  3.4279  2.1293
   96c3c     C2  636   1.676   3.252   2.466 -0.1268 -0.4557  0.0577
   96c3c     HC  637   1.586   3.311   2.451 -0.9438 -1.7808 -0.2950
   96c3c     HC  638   1.687   3.188   2.379 -1.6732  1.2430 -1.4161
   96c3c     CT  639   1.796   3.357   2.455  0.1960  0.2822 -1.0381
   96c3c     HC  640   1.764   3.429   2.380 -0.9091 -0.8935 -1.7188
   96c3c     HC  641   1.898   3.326   2.433  0.4708  1.0480 -0.8429
   96c3c     HC  642   1.799   3.411   2.549  0.5725 -1.2370 -0.1546
   97c3c     N4  643   3.048   3.621   3.345  0.7848 -0.6463 -0.2085
   97c3c     C1  644   3.064   3.735   3.441  0.0284  0.1676 -0.7532
   97c3c     C1  645   3.116   3.669   3.221  0.2849  0.5661 -0.3056
   97c3c     C2  646   3.198   3.805   3.409 -0.0793  0.0054 -0.1064
   97c3c     C2  647   3.222   3.771   3.262 -0.1698  0.0484 -0.1267
   97c3c     C1  648   3.131   3.521   3.403 -0.1699  0.1957  1.0267
   97c3c     C1  649   2.910   3.573   3.328 -0.0605 -0.0096  0.3842
   97c3c     H1  650   3.042   3.724   3.547  0.5299  1.9355 -0.4627
   97c3c     H1  651   2.996   3.815   3.410  0.1889  0.9128  0.7952
   97c3c     H1  652   3.159   3.590   3.159 -0.3208  0.0953 -0.1309
   97c3c     H1  653   3.055   3.723   3.149 -1.5337  1.0672  1.5596
   97c3c     HC  654   3.279   3.769   3.473 -0.1911 -0.5237 -0.2603
   97c3c     HC  655   3.181   3.912   3.425 -0.3449  0.0326 -0.5759
   97c3c     HC  656   3.323   3.730   3.269 -0.5351 -0.8014  0.2276
   97c3c     HC  657   3.224   3.864   3.204 -0.2426  1.8543  2.6502
   97c3c     H1  658   3.114   3.503   3.509  1.9672 -3.9043  0.7951
   97c3c     H1  659   3.124   3.421   3.359  1.7962  0.5514 -0.1371
   97c3c     H1  660   3.237   3.541   3.385 -0.0598 -0.6768  0.6492
   97c3c     H1  661   2.920   3.495   3.252 -1.5447 -0.3452  0.5321
   97c3c     H1  662   2.856   3.527   3.411 -0.2710  0.9584  0.7874
   97c3c     C2  663   2.804   3.684   3.274  0.1861 -0.5362  0.0289
   97c3c     HC  664   2.849   3.730   3.186 -0.2589 -0.7434 -0.3088
   97c3c     HC  665   2.792   3.771   3.338 -1.1555 -0.1140 -0.7806
   97c3c     CT  666   2.670   3.626   3.231  1.2748 -0.1228  0.1004
   97c3c     HC  667   2.666   3.537   3.167  0.5210  1.2833 -1.8683
   97c3c     HC  668   2.615   3.709   3.187 -1.1081  0.3478  3.7369
   97c3c     HC  669   2.615   3.602   3.322 -0.3798 -0.5675 -0.9829
   98c3c     N4  670   4.684   1.905   1.848  0.2684  0.0393 -0.7815
   98c3c     C1  671   4.559   1.857   1.910 -0.8081 -0.3228 -0.1534
   98c3c     C1  672   4.673   2.047   1.878  0.2735  0.9504  0.0149
   98c3c     C2  673   4.535   1.930   2.050  0.2592 -0.3341  0.3890
   98c3c     C2  674   4.603   2.061   2.014 -0.5296 -0.3444  0.0763
   98c3c     C1  675   4.797   1.846   1.919 -0.6258 -1.0292 -0.1150
   98c3c     C1  676   4.692   1.875   1.701  0.5717 -0.0423 -0.0769
   98c3c     H1  677   4.556   1.750   1.933  0.4404 -0.5865 -1.1834
   98c3c     H1  678   4.470   1.883   1.853  0.0473  0.9848 -0.9032
   98c3c     H1  679   4.764   2.107   1.876  1.0532  0.0084  3.4230
   98c3c     H1  680   4.611   2.109   1.813 -0.0585  2.7810  2.0442
   98c3c     HC  681   4.588   1.886   2.134  1.1832  0.5587  0.2810
   98c3c     HC  682   4.430   1.953   2.072 -0.1940 -1.1632 -0.8556
   98c3c     HC  683   4.667   2.078   2.100 -1.1214 -0.4304  0.5318
   98c3c     HC  684   4.536   2.147   2.016  0.8921  0.7590  0.9157
   98c3c     H1  685   4.825   1.745   1.891  2.2907 -0.1027 -0.7139
   98c3c     H1  686   4.887   1.896   1.882 -1.5150  0.2251 -0.5896
   98c3c     H1  687   4.809   1.850   2.028  0.5059  2.0497 -0.2792
   98c3c     H1  688   4.772   1.930   1.653 -0.2891  1.5498  0.2677
   98c3c     H1  689   4.709   1.767   1.701  1.1515  0.0217  2.0055
   98c3c     C2  690   4.568   1.912   1.619 -0.2751  0.0643 -0.5999
   98c3c     HC  691   4.540   2.017   1.622 -0.4882  0.0034 -0.4121
   98c3c     HC  692   4.485   1.853   1.660 -0.7607  1.0031 -0.2189
   98c3c     CT  693   4.584   1.883   1.473  0.4376  0.1562  0.2336
   98c3c     HC  694   4.679   1.920   1.435 -0.0089  0.2188 -0.8209
   98c3c     HC  695   4.499   1.919   1.415 -0.4909 -1.5473  0.4958
   98c3c     HC  696   4.604   1.777   1.463 -1.9861 -0.3170  0.0918
   99c3c     N4  697   2.715   3.609   2.454 -0.1139 -0.0957  0.0263
   99c3c     C1  698   2.618   3.678   2.535 -0.1456  0.0862  0.1372
   99c3c     C1  699   2.721   3.474   2.516  0.1819 -0.6693 -0.2651
   99c3c     C2  700   2.509   3.577   2.573 -0.2706 -0.2317 -0.6578
   99c3c     C2  701   2.571   3.438   2.536 -0.2343 -0.1097  0.0315
   99c3c     C1  702   2.678   3.592   2.311 -0.1280 -0.6168  0.4489
   99c3c     C1  703   2.844   3.672   2.446 -1.4212 -0.2308 -0.6511
   99c3c     H1  704   2.571   3.765   2.490  0.9077  1.7267  2.1218
   99c3c     H1  705   2.657   3.705   2.633 -0.8934  0.2765  0.3878
   99c3c     H1  706   2.768   3.394   2.459  1.5431  0.1873 -0.3723
   99c3c     H1  707   2.758   3.483   2.618 -0.9618 -0.5899  0.1534
   99c3c     HC  708   2.413   3.585   2.521 -2.0842  2.4392  2.9083
   99c3c     HC  709   2.495   3.576   2.681  0.0389 -1.5080 -0.6195
   99c3c     HC  710   2.536   3.393   2.443 -0.3151  0.1079 -0.0422
   99c3c     HC  711   2.553   3.373   2.621  1.7083 -1.3161 -0.4335
   99c3c     H1  712   2.678   3.686   2.256  2.3851 -0.0598  1.3429
   99c3c     H1  713   2.745   3.536   2.246  2.7911  2.9408  0.2172
   99c3c     H1  714   2.575   3.564   2.289 -0.4612  0.8961 -0.0158
   99c3c     H1  715   2.918   3.604   2.404  1.3017  2.1651  0.0831
   99c3c     H1  716   2.844   3.759   2.380 -3.4754  0.1415 -0.1878
   99c3c     C2  717   2.902   3.713   2.581  0.2335  0.0033 -0.0224
   99c3c     HC  718   2.913   3.627   2.647  2.1739 -1.6443 -2.3820
   99c3c     HC  719   2.838   3.788   2.627 -1.8438 -2.3571  1.0510
   99c3c     CT  720   3.050   3.755   2.561 -0.3130  0.0814  0.1771
   99c3c     HC  721   3.081   3.786   2.661  0.1963  1.6251 -0.4360
   99c3c     HC  722   3.076   3.837   2.493 -1.3228  1.8677  1.8940
   99c3c     HC  723   3.109   3.667   2.535 -1.2096 -0.3776 -0.3311
  100c3c     N4  724   0.827   2.048   3.029  0.8528  0.2343 -0.1856
  100c3c     C1  725   0.852   2.193   3.034  0.1368  0.4652 -0.2064
  100c3c     C1  726   0.682   2.053   3.060 -0.0518  0.4443 -0.6833
  100c3c     C2  727   0.736   2.261   2.961 -0.0463 -0.1068 -0.0191
  100c3c     C2  728   0.619   2.171   2.972  0.8497 -0.1794 -0.1874
  100c3c     C1  729   0.840   1.976   2.896 -0.4648  0.2493 -0.1337
  100c3c     C1  730   0.895   1.958   3.130  0.2984  0.2591  0.3011
  100c3c     H1  731   0.952   2.217   2.999  0.2649 -0.6397 -0.6050
  100c3c     H1  732   0.850   2.230   3.137 -0.1618 -1.4898  0.5007
  100c3c     H1  733   0.640   1.955   3.037 -0.1977  0.0362  1.2001
  100c3c     H1  734   0.662   2.080   3.164 -1.2121  0.0543 -0.8019
  100c3c     HC  735   0.755   2.271   2.854  0.3916 -0.9179 -0.0219
  100c3c     HC  736   0.725   2.361   3.004 -0.2537 -0.2042  0.1535
  100c3c     HC  737   0.578   2.145   2.875  0.1349  0.9449 -0.1859
  100c3c     HC  738   0.540   2.220   3.028  0.5200  0.3959 -1.1478
  100c3c     H1  739   0.946   1.983   2.872 -0.4985  0.8023 -0.1286
  100c3c     H1  740   0.825   1.869   2.909  0.2118 -0.0875 -1.9347
  100c3c     H1  741   0.772   2.009   2.817  0.0778  0.9506 -0.3120
  100c3c     H1  742   0.854   1.857   3.134  0.8901  0.0121  0.3394
  100c3c     H1  743   0.999   1.955   3.096 -0.1255  0.0977 -0.9867
  100c3c     C2  744   0.909   2.018   3.270  0.2701  0.0064 -0.2568
  100c3c     HC  745   0.813   2.037   3.318  0.5188 -0.2676  0.3480
  100c3c     HC  746   0.960   2.114   3.262  1.0272 -0.3875 -0.1313
  100c3c     CT  747   0.992   1.931   3.359  0.3768 -0.1619 -0.1636
  100c3c     HC  748   0.991   1.962   3.464  1.9265 -0.0726 -0.1668
  100c3c     HC  749   1.097   1.935   3.328 -0.1994 -0.2412 -2.1739
  100c3c     HC  750   0.955   1.828   3.359 -0.1799  0.0357  0.4251
  101fsi    FSI  751   2.178   1.792   2.557 -0.2635 -0.3409 -1.5111
  101fsi    SBT  752   2.282   1.900   2.608 -0.1563  0.1957 -0.4528
  101fsi    NBT  753   2.248   2.029   2.516 -0.0205 -0.0293 -0.1377
  101fsi    OBT  754   2.248   1.921   2.746 -0.4352  0.3365  0.6720
  101fsi    OBT  755   2.403   1.834   2.573 -0.3033 -0.0581 -0.3912
  101fsi    SBT  756   2.298   2.075   2.382  0.1194 -0.1819 -0.1037
  101fsi    OBT  757   2.441   2.050   2.359  0.3662  0.4813 -0.2057
  101fsi    OBT  758   2.253   2.209   2.350 -0.1092 -0.2101  0.5362
  101fsi    FSI  759   2.224   1.978   2.281  0.2219 -0.2366  0.1317
  102fsi    FSI  760   4.373   2.288   1.814 -0.0772 -0.1249  0.2092
  102fsi    SBT  761   4.260   2.178   1.841  0.2755  0.4825 -0.0208
  102fsi    NBT  762   4.132   2.252   1.797  0.3257  0.3694  0.2905
  102fsi    OBT  763   4.297   2.068   1.753  0.1562  0.1642  0.0685
  102fsi    OBT  764   4.273   2.150   1.981  0.0679  0.2910 -0.4086
  102fsi    SBT  765   4.036   2.348   1.875 -0.1321  0.2192  0.0018
  102fsi    OBT  766   4.037   2.342   2.021 -0.2272 -0.2145  0.7228
  102fsi    OBT  767   3.910   2.356   1.806 -0.3466  0.0482 -0.3771
  102fsi    FSI  768   4.098   2.489   1.838 -0.7949  0.2853 -0.1427
  103fsi    FSI  769   2.450   2.668   1.947  0.0976  0.2254 -0.4146
  103fsi    SBT  770   2.463   2.773   2.065 -0.1099 -0.1358 -0.3387
  103fsi    NBT  771   2.491   2.905   1.986  0.1136 -0.6963 -0.0612
  103fsi    OBT  772   2.335   2.755   2.141 -0.4500 -0.0880 -0.2800
  103fsi    OBT  773   2.573   2.728   2.146 -0.1408 -0.1097  0.2220
  103fsi    SBT  774   2.612   2.951   1.900  0.1480 -0.0030 -0.0437
  103fsi    OBT  775   2.733   2.873   1.919 -0.0801 -0.4831  0.2329
  103fsi    OBT  776   2.634   3.093   1.886 -0.0760 -0.1561  0.4431
  103fsi    FSI  777   2.567   2.897   1.759  0.1388 -0.7629  0.3517
  104fsi    FSI  778   3.071   2.824   1.727  0.0658  0.0251  0.1827
  104fsi    SBT  779   3.131   2.960   1.774  0.0506  0.0758  0.1678
  104fsi    NBT  780   3.200   2.920   1.909 -0.4294 -0.3835  0.3470
  104fsi    OBT  781   3.230   2.997   1.680 -0.0750  0.8497  0.4338
  104fsi    OBT  782   3.020   3.048   1.791  0.5946 -0.1858  0.0038
  104fsi    SBT  783   3.143   2.912   2.050 -0.0518  0.4861  0.6239
  104fsi    OBT  784   2.996   2.920   2.050 -0.0056 -0.3738 -0.0177
  104fsi    OBT  785   3.214   2.982   2.156 -0.0297  0.0068  0.0246
  104fsi    FSI  786   3.169   2.761   2.086 -0.1170 -0.0978 -0.0895
  105fsi    FSI  787   2.578   3.166   2.366 -0.3340 -0.7438  0.3809
  105fsi    SBT  788   2.541   3.041   2.445 -0.1597 -0.1483  0.0842
  105fsi    NBT  789   2.674   2.965   2.481 -0.1287 -0.7921  0.1648
  105fsi    OBT  790   2.482   3.101   2.558  0.0496  0.2569 -0.2462
  105fsi    OBT  791   2.452   2.964   2.357 -0.3349 -0.1129  0.1544
  105fsi    SBT  792   2.783   2.916   2.387 -0.2474 -0.0716 -0.1789
  105fsi    OBT  793   2.749   2.956   2.254  0.0894 -0.4146 -0.0328
  105fsi    OBT  794   2.833   2.787   2.401 -0.0706  0.5083 -1.2508
  105fsi    FSI  795   2.903   3.011   2.428 -0.8161 -0.0844 -0.1507
  106fsi    FSI  796   4.036   3.662   2.987 -0.3838  0.3994  0.2828
  106fsi    SBT  797   4.026   3.567   2.858  0.0807 -0.0148 -0.3453
  106fsi    NBT  798   4.030   3.419   2.913 -0.0649  0.1799 -0.1775
  106fsi    OBT  799   3.903   3.594   2.798 -0.0679  0.0330  0.9034
  106fsi    OBT  800   4.142   3.599   2.783 -0.2050 -0.1190  0.3382
  106fsi    SBT  801   4.145   3.313   2.920 -0.1210 -0.3337  0.1241
  106fsi    OBT  802   4.273   3.366   2.884 -0.1033 -0.6261  0.7431
  106fsi    OBT  803   4.112   3.181   2.883  0.3854  0.1236  0.2560
  106fsi    FSI  804   4.160   3.295   3.073  0.1073 -0.5293 -0.3602
  107fsi    FSI  805   3.307   1.948   2.329  0.0584  0.1656  0.0360
  107fsi    SBT  806   3.294   1.832   2.221 -0.2469 -0.3025 -0.6921
  107fsi    NBT  807   3.359   1.896   2.097 -0.0119 -0.0431 -0.1570
  107fsi    OBT  808   3.375   1.727   2.276  0.2987  0.0342  0.0100
  107fsi    OBT  809   3.154   1.806   2.216 -0.1851 -0.0475 -0.3153
  107fsi    SBT  810   3.309   1.922   1.949  0.1620  0.4210  0.1730
  107fsi    OBT  811   3.166   1.925   1.928  0.5958  0.7799  0.1185
  107fsi    OBT  812   3.390   1.852   1.857  0.2503 -0.4416 -0.5349
  107fsi    FSI  813   3.358   2.064   1.924 -0.1666 -0.1548  0.2034
  108fsi    FSI  814   1.940   2.860   2.299 -0.3071  0.1130 -0.8454
  108fsi    SBT  815   1.979   2.836   2.445  0.7497  0.1158  0.1044
  108fsi    NBT  816   1.953   2.683   2.450  0.3582  0.3265  0.3915
  108fsi    OBT  817   2.111   2.877   2.451 -0.2475  0.2262  0.3730
  108fsi    OBT  818   1.878   2.913   2.509 -0.0408 -0.4998  0.5698
  108fsi    SBT  819   2.046   2.568   2.386 -0.2567 -0.1864  0.1152
  108fsi    OBT  820   2.028   2.444   2.459  0.0370 -0.1893  0.5071
  108fsi    OBT  821   2.183   2.603   2.351 -0.0456  0.1002 -0.4885
  108fsi    FSI  822   1.980   2.540   2.248 -0.1798 -0.0836 -0.1384
  109fsi    FSI  823   2.372   4.187   1.983  0.3227  0.2315  0.1166
  109fsi    SBT  824   2.377   4.160   2.138  0.5741 -0.0034  0.1911
  109fsi    NBT  825   2.362   4.004   2.161  0.1211 -0.3911  0.0473
  109fsi    OBT  826   2.506   4.209   2.175 -0.0015  0.4741  0.4784
  109fsi    OBT  827   2.263   4.231   2.193 -0.0904 -0.1054  0.4674
  109fsi    SBT  828   2.478   3.905   2.191  0.0483  0.1060  0.2713
  109fsi    OBT  829   2.427   3.776   2.234  0.1266  0.3506  0.4785
  109fsi    OBT  830   2.584   3.964   2.270  0.4210 -0.1093  0.2050
  109fsi    FSI  831   2.547   3.877   2.058  0.2527 -0.9374  0.2750
  110fsi    FSI  832   0.699   1.075   3.235  0.4555 -0.3209 -0.3050
  110fsi    SBT  833   0.811   1.156   3.169 -0.1145  0.0856  0.0186
  110fsi    NBT  834   0.792   1.100   3.026 -0.4234 -0.0877  0.0243
  110fsi    OBT  835   0.777   1.295   3.183  0.0512 -0.3009  0.4343
  110fsi    OBT  836   0.926   1.110   3.242  0.1033 -0.1990  0.2708
  110fsi    SBT  837   0.765   1.182   2.893 -0.0473  0.2261 -0.3224
  110fsi    OBT  838   0.774   1.102   2.770  0.0089 -0.4243 -0.2536
  110fsi    OBT  839   0.838   1.305   2.890  0.5641  0.5062 -0.5552
  110fsi    FSI  840   0.611   1.226   2.911  0.2458 -0.3918 -0.4863
  111fsi    FSI  841   1.137   1.387   2.468 -0.2478  0.0277 -0.3978
  111fsi    SBT  842   1.074   1.368   2.619  0.1104  0.0108 -0.3221
  111fsi    NBT  843   0.933   1.433   2.610 -0.0284 -0.4540 -0.0788
  111fsi    OBT  844   1.069   1.227   2.632  0.2683  0.4918  0.2535
  111fsi    OBT  845   1.164   1.440   2.705 -0.6876 -0.2465  0.3660
  111fsi    SBT  846   0.798   1.381   2.537 -0.4146  0.2137 -0.4247
  111fsi    OBT  847   0.684   1.440   2.595  0.0018 -0.3353  0.5263
  111fsi    OBT  848   0.797   1.237   2.510  0.1679 -0.0153 -0.2764
  111fsi    FSI  849   0.805   1.452   2.394  0.1034  0.2099  0.0856
  112fsi    FSI  850   1.871   3.998   3.555  0.0091  0.7945  0.5307
  112fsi    SBT  851   2.011   3.927   3.536 -0.1685 -0.2230 -0.4733
  112fsi    NBT  852   2.115   4.042   3.573  0.5393 -0.4236  0.2501
  112fsi    OBT  853   2.008   3.812   3.622 -0.5274 -0.0625 -0.0579
  112fsi    OBT  854   2.021   3.892   3.393 -0.3517 -0.7798 -0.1633
  112fsi    SBT  855   2.229   4.033   3.684 -0.3005  0.5794  0.0845
  112fsi    OBT  856   2.328   4.131   3.659  0.0952  0.3840 -0.6862
  112fsi    OBT  857   2.268   3.907   3.724 -0.1548 -0.2391  0.3098
  112fsi    FSI  858   2.158   4.094   3.809 -0.4359 -0.4366  0.2579
  113fsi    FSI  859   3.557   3.922   4.273 -0.3704  0.5780 -0.3624
  113fsi    SBT  860   3.445   4.025   4.214  0.0676  0.1884 -0.1185
  113fsi    NBT  861   3.313   3.944   4.223 -0.5005 -0.5077  0.1864
  113fsi    OBT  862   3.442   4.138   4.304 -0.2761 -0.1607  0.1923
  113fsi    OBT  863   3.487   4.052   4.076  0.1624 -0.7609 -0.3818
  113fsi    SBT  864   3.171   3.982   4.286 -0.2211 -0.1805  0.3804
  113fsi    OBT  865   3.073   3.880   4.259  0.4675  0.0241  0.4414
  113fsi    OBT  866   3.131   4.116   4.264  0.6422 -0.0153 -0.1248
  113fsi    FSI  867   3.199   3.969   4.443  0.2581  0.2743  0.0095
  114fsi    FSI  868   4.304   2.611   1.892  0.3535  0.2239 -0.2767
  114fsi    SBT  869   4.326   2.599   2.051  0.4157 -0.0171 -0.0611
  114fsi    NBT  870   4.467   2.666   2.057  0.0241  0.0886 -0.1271
  114fsi    OBT  871   4.226   2.683   2.110 -0.1054  0.0555 -0.3615
  114fsi    OBT  872   4.316   2.458   2.068 -0.5482  0.2922  0.1965
  114fsi    SBT  873   4.592   2.601   2.129  0.2378 -0.1797 -0.2873
  114fsi    OBT  874   4.556   2.528   2.249  0.8147  0.2004 -0.9100
  114fsi    OBT  875   4.700   2.697   2.126  0.4142 -0.0912  0.4825
  114fsi    FSI  876   4.632   2.489   2.016 -0.6252  0.1960 -0.6267
  115fsi    FSI  877   4.532   3.244   2.583  0.2107  0.4257  0.3867
  115fsi    SBT  878   4.518   3.406   2.584 -0.1249  0.3501  0.2800
  115fsi    NBT  879   4.372   3.435   2.611  1.0003  0.3983 -1.0581
  115fsi    OBT  880   4.604   3.457   2.685 -0.1436  0.9467 -0.0062
  115fsi    OBT  881   4.565   3.444   2.450  0.1882  0.0776  0.2089
  115fsi    SBT  882   4.250   3.402   2.514  0.2099 -0.0859  0.2483
  115fsi    OBT  883   4.295   3.355   2.386 -0.1719 -0.7273  0.0366
  115fsi    OBT  884   4.137   3.490   2.514  0.0201  0.2251  0.6309
  115fsi    FSI  885   4.197   3.266   2.578  0.0465 -0.8379  0.3316
  116fsi    FSI  886   2.422   3.775   4.006 -0.7158  0.0795  0.1192
  116fsi    SBT  887   2.572   3.751   3.949 -0.2635  0.0037  0.0750
  116fsi    NBT  888   2.648   3.877   3.987  0.0229 -0.5723  0.2995
  116fsi    OBT  889   2.618   3.630   4.017  0.5097 -0.1220 -0.3465
  116fsi    OBT  890   2.547   3.741   3.805 -0.3998  0.2095 -0.6658
  116fsi    SBT  891   2.788   3.909   4.042 -0.4148  0.1239 -0.0599
  116fsi    OBT  892   2.842   4.037   3.994 -0.3307 -0.3204  0.6003
  116fsi    OBT  893   2.879   3.794   4.040 -0.3753  0.3904  0.0624
  116fsi    FSI  894   2.755   3.930   4.196 -0.2756 -0.0989 -0.2625
  117fsi    FSI  895   4.301   1.907   2.314 -0.0991  0.7039  0.4201
  117fsi    SBT  896   4.365   1.948   2.445 -0.2068  0.0925 -0.4075
  117fsi    NBT  897   4.484   2.038   2.395 -0.3371  0.2732 -0.3780
  117fsi    OBT  898   4.270   2.022   2.525  0.1564 -0.1112  0.4891
  117fsi    OBT  899   4.409   1.825   2.498 -0.4110  0.1482 -0.9053
  117fsi    SBT  900   4.478   2.189   2.352 -0.0596 -0.2724 -0.0065
  117fsi    OBT  901   4.470   2.277   2.469  0.2468  0.0146  0.2453
  117fsi    OBT  902   4.395   2.212   2.240  0.1117 -0.1890  1.2360
  117fsi    FSI  903   4.621   2.230   2.291  0.3344 -0.3131 -0.4832
  118fsi    FSI  904   4.137   3.530   2.208 -0.2738 -0.3271 -0.2321
  118fsi    SBT  905   3.995   3.605   2.181  0.0662  0.4170  0.0546
  118fsi    NBT  906   3.958   3.660   2.324 -0.0490  0.1770 -0.1270
  118fsi    OBT  907   4.031   3.710   2.088 -0.3601  0.2840 -0.2533
  118fsi    OBT  908   3.912   3.496   2.134 -0.0714  0.4718 -0.2644
  118fsi    SBT  909   3.986   3.795   2.389  0.3322 -0.1416  0.2150
  118fsi    OBT  910   4.066   3.892   2.319  0.3431 -0.4644 -0.7382
  118fsi    OBT  911   4.013   3.775   2.534  0.0165 -0.4612  0.2581
  118fsi    FSI  912   3.845   3.868   2.382  0.0857 -0.0672 -0.3119
  119fsi    FSI  913   1.881   3.079   2.856  0.0824 -0.1989  0.3597
  119fsi    SBT  914   1.957   3.210   2.894 -0.3564  0.2927 -0.2840
  119fsi    NBT  915   2.010   3.270   2.758  0.0765 -0.5380  0.3858
  119fsi    OBT  916   1.850   3.293   2.954  0.5615  0.4372 -0.3116
  119fsi    OBT  917   2.059   3.153   2.979 -0.4609  0.4009  0.3623
  119fsi    SBT  918   2.127   3.221   2.673  0.0747  0.0989 -0.1315
  119fsi    OBT  919   2.215   3.131   2.735  0.4853 -0.0121  0.3313
  119fsi    OBT  920   2.191   3.323   2.599 -0.1607 -0.3660 -0.3619
  119fsi    FSI  921   2.061   3.142   2.567  0.3936  0.0117 -0.0324
  120fsi    FSI  922   2.843   4.041   3.456 -0.1491 -0.4343 -0.4417
  120fsi    SBT  923   2.738   4.003   3.570  0.0151 -0.4117 -0.2379
  120fsi    NBT  924   2.596   4.027   3.492  0.2704  0.4360  0.5394
  120fsi    OBT  925   2.784   3.871   3.601  0.4988 -0.3903 -0.0424
  120fsi    OBT  926   2.765   4.103   3.668  0.5804  0.1375 -0.1425
  120fsi    SBT  927   2.503   3.922   3.422 -0.2902  0.4310 -0.0696
  120fsi    OBT  928   2.363   3.956   3.401 -0.4880 -0.1211 -0.0580
  120fsi    OBT  929   2.524   3.791   3.484  0.4911  0.3061  0.1072
  120fsi    FSI  930   2.577   3.908   3.282 -0.1775 -0.6139 -0.4822
  121fsi    FSI  931   1.764   2.224   2.597 -0.0290  0.1185 -0.0489
  121fsi    SBT  932   1.804   2.105   2.502  0.3298 -0.2548 -0.1564
  121fsi    NBT  933   1.772   2.173   2.367  0.0111  0.0482 -0.0674
  121fsi    OBT  934   1.945   2.092   2.532  0.3029  0.2301  0.0747
  121fsi    OBT  935   1.706   2.003   2.541  0.2153  0.2924 -0.8018
  121fsi    SBT  936   1.832   2.126   2.231  0.2179 -0.3349 -0.0623
  121fsi    OBT  937   1.746   2.163   2.123 -0.5752  0.0691  0.1263
  121fsi    OBT  938   1.882   1.991   2.236  0.2833 -0.1075  0.0151
  121fsi    FSI  939   1.966   2.214   2.207  0.5701 -0.0156 -0.2335
  122fsi    FSI  940   3.653   1.255   1.837 -0.1625 -0.4270  0.1685
  122fsi    SBT  941   3.680   1.391   1.900 -0.1802 -0.1390  0.0192
  122fsi    NBT  942   3.587   1.385   2.031 -0.2643  0.1238 -0.3887
  122fsi    OBT  943   3.823   1.390   1.928  0.1871  0.2351 -0.4251
  122fsi    OBT  944   3.634   1.485   1.802  0.0965 -0.8562 -0.6300
  122fsi    SBT  945   3.614   1.315   2.171  0.1060  0.0786  0.3375
  122fsi    OBT  946   3.513   1.343   2.271 -0.3786 -0.4773  0.1191
  122fsi    OBT  947   3.754   1.323   2.205  0.7451 -0.4060  0.0836
  122fsi    FSI  948   3.596   1.162   2.143 -0.4778 -0.1979  0.4089
  123fsi    FSI  949   3.808   2.748   1.820  0.1645  0.4316 -0.7947
  123fsi    SBT  950   3.852   2.773   1.970 -0.5868  0.2213 -0.2483
  123fsi    NBT  951   3.733   2.848   2.024  0.1147 -1.1055  0.7289
  123fsi    OBT  952   3.870   2.641   2.023  0.0682 -0.0463 -0.0516
  123fsi    OBT  953   3.971   2.858   1.957  0.2437  0.1039  0.7198
  123fsi    SBT  954   3.629   2.805   2.138 -0.0483  0.3136 -0.6494
  123fsi    OBT  955   3.579   2.917   2.214 -1.0013 -0.1292 -0.5471
  123fsi    OBT  956   3.673   2.694   2.217 -0.5053 -0.4687  0.5457
  123fsi    FSI  957   3.507   2.752   2.060  0.2631  0.1270 -0.5432
  124fsi    FSI  958   3.846   3.836   3.818  0.2408  0.0606  0.3248
  124fsi    SBT  959   3.770   3.901   3.697  0.4141 -0.0606 -0.1122
  124fsi    NBT  960   3.620   3.856   3.732  0.7181 -0.2232 -0.0562
  124fsi    OBT  961   3.780   4.043   3.711  0.4605  0.2949 -0.0742
  124fsi    OBT  962   3.825   3.843   3.580  0.1764  0.0620 -0.0666
  124fsi    SBT  963   3.517   3.781   3.647 -0.3404 -0.0177 -0.4836
  124fsi    OBT  964   3.527   3.810   3.506 -0.0013  0.0028  0.3399
  124fsi    OBT  965   3.395   3.769   3.720 -0.2489  0.0781 -0.3334
  124fsi    FSI  966   3.567   3.631   3.658  0.5451  0.4666  0.7146
  125fsi    FSI  967   2.770   3.494   2.861  0.4956 -0.1073 -0.0130
  125fsi    SBT  968   2.909   3.451   2.919 -0.2837 -0.3695 -0.0819
  125fsi    NBT  969   2.971   3.364   2.799  0.1911  0.6352 -0.6079
  125fsi    OBT  970   2.979   3.577   2.942  0.0571 -0.0439 -0.3658
  125fsi    OBT  971   2.883   3.368   3.032  0.2920  0.0535 -0.2408
  125fsi    SBT  972   2.967   3.210   2.763  0.0510 -0.5252 -0.1713
  125fsi    OBT  973   2.920   3.124   2.868 -0.3665 -0.3146  0.5089
  125fsi    OBT  974   3.087   3.173   2.688  0.2362  0.4452 -0.9003
  125fsi    FSI  975   2.855   3.200   2.663  0.0203 -0.4276 -0.6069
  126fsi    FSI  976   4.936   1.816   2.237  0.5325 -0.2407  0.0054
  126fsi    SBT  977   4.913   1.965   2.288  0.1674 -0.0271  0.2999
  126fsi    NBT  978   4.914   2.044   2.151  0.4447 -0.7488 -0.0613
  126fsi    OBT  979   4.789   1.967   2.353 -0.1388 -0.0189 -0.2058
  126fsi    OBT  980   5.030   1.981   2.369  0.3703 -0.2993  0.1038
  126fsi    SBT  981   5.003   2.168   2.112  0.1887  0.1955  0.2912
  126fsi    OBT  982   5.028   2.258   2.222 -0.2988  0.0989 -0.0535
  126fsi    OBT  983   4.967   2.220   1.981 -0.2743  0.3316  0.0161
  126fsi    FSI  984   5.137   2.100   2.080  0.2275  0.2151  0.3455
  127fsi    FSI  985   2.587   1.891   2.160  0.0219 -0.2124 -0.1698
  127fsi    SBT  986   2.713   1.795   2.179  0.4737  0.4820  0.3240
  127fsi    NBT  987   2.688   1.689   2.063  1.2417  0.6734  0.0217
  127fsi    OBT  988   2.826   1.879   2.161 -0.1032 -0.2760 -0.2561
  127fsi    OBT  989   2.695   1.737   2.309 -0.1531 -1.2164  0.6465
  127fsi    SBT  990   2.763   1.668   1.928  0.0986  0.0899 -0.0219
  127fsi    OBT  991   2.792   1.532   1.896 -0.5882  0.0862 -0.0057
  127fsi    OBT  992   2.871   1.757   1.904 -0.8025 -0.0509  0.2396
  127fsi    FSI  993   2.658   1.711   1.815 -0.1083  0.0475 -0.0842
  128fsi    FSI  994   3.234   3.555   3.799 -0.4342 -0.0454  0.0352
  128fsi    SBT  995   3.258   3.521   3.945 -0.2696 -0.1178 -0.5842
  128fsi    NBT  996   3.413   3.496   3.959 -0.0120 -0.4406 -1.0750
  128fsi    OBT  997   3.202   3.633   4.016  0.0764  0.5663  0.1469
  128fsi    OBT  998   3.192   3.398   3.963  0.5474  0.6143 -0.4038
  128fsi    SBT  999   3.522   3.599   4.014  0.3462  0.0353  0.0579
  128fsi    OBT 1000   3.496   3.741   4.005 -0.1119 -0.1836 -0.9105
  128fsi    OBT 1001   3.659   3.563   3.982  0.1374 -0.0187 -0.3096
  128fsi    FSI 1002   3.520   3.579   4.167  0.5426  0.1191  0.5534
  129fsi    FSI 1003   5.029   2.703   2.693  0.2237 -0.1633 -0.0786
  129fsi    SBT 1004   4.937   2.583   2.649  0.1131 -0.0633  0.0501
  129fsi    NBT 1005   4.824   2.657   2.567  0.3235 -0.7568  0.2347
  129fsi    OBT 1006   5.024   2.507   2.570  0.4756  0.7303  0.3159
  129fsi    OBT 1007   4.894   2.522   2.778 -0.2382  0.1077  0.4536
  129fsi    SBT 1008   4.686   2.707   2.621  0.2576  0.1361  0.5277
  129fsi    OBT 1009   4.676   2.700   2.769  0.4055 -0.1455  0.4199
  129fsi    OBT 1010   4.575   2.646   2.543  0.0714 -0.4513  0.3454
  129fsi    FSI 1011   4.683   2.858   2.588 -0.3419 -0.0918 -0.4037
  130fsi    FSI 1012   4.821   1.580   2.674  0.3607 -0.6259 -0.7350
  130fsi    SBT 1013   4.797   1.683   2.554 -0.4731 -0.3390 -0.4772
  130fsi    NBT 1014   4.780   1.586   2.436  0.2963  0.3778 -0.5307
  130fsi    OBT 1015   4.692   1.766   2.585  0.4237 -0.8551  0.0600
  130fsi    OBT 1016   4.925   1.745   2.547 -0.4767  0.0670  0.2663
  130fsi    SBT 1017   4.646   1.525   2.380  0.0092 -0.0743 -0.0880
  130fsi    OBT 1018   4.541   1.533   2.476 -0.1065  0.8906 -0.1154
  130fsi    OBT 1019   4.660   1.394   2.313  0.4244 -0.1194  0.2698
  130fsi    FSI 1020   4.600   1.624   2.267  0.3434 -0.0084  0.0143
  131fsi    FSI 1021   3.202   2.396   2.854  0.3481  0.0517  0.5216
  131fsi    SBT 1022   3.130   2.285   2.771  0.1268  0.0061  0.2748
  131fsi    NBT 1023   3.190   2.289   2.626  0.2682 -0.6828 -0.2709
  131fsi    OBT 1024   3.177   2.166   2.835 -1.0297  0.0362  0.2082
  131fsi    OBT 1025   2.993   2.314   2.784  0.0728  0.4749 -0.0856
  131fsi    SBT 1026   3.328   2.235   2.568  0.3239  0.2887 -0.0008
  131fsi    OBT 1027   3.436   2.243   2.660  0.6261 -0.2071 -0.0035
  131fsi    OBT 1028   3.344   2.285   2.432  0.7602 -0.1903 -0.5173
  131fsi    FSI 1029   3.305   2.086   2.552 -0.2031  0.5467  0.5376
  132fsi    FSI 1030   3.706   2.840   4.089  0.1525 -0.1656 -0.2101
  132fsi    SBT 1031   3.691   2.914   3.948 -0.0309  0.0235 -0.2216
  132fsi    NBT 1032   3.563   2.995   3.953  1.1204 -0.2302  0.2082
  132fsi    OBT 1033   3.815   2.984   3.925 -0.5668 -0.0905 -1.0004
  132fsi    OBT 1034   3.668   2.800   3.861  0.2587 -0.8829 -0.6722
  132fsi    SBT 1035   3.541   3.148   3.983 -0.1014 -0.2078  0.0150
  132fsi    OBT 1036   3.399   3.183   3.951 -0.0981 -0.5298 -0.2293
  132fsi    OBT 1037   3.643   3.240   3.944 -0.2441  0.0645  0.0438
  132fsi    FSI 1038   3.546   3.149   4.141  0.1182 -0.3643 -0.0720
  133fsi    FSI 1039   2.095   2.771   3.009  0.1094 -0.4400 -0.4861
  133fsi    SBT 1040   2.239   2.814   3.010  0.0835  0.3357  0.0394
  133fsi    NBT 1041   2.270   2.840   2.860  0.0962 -0.0862  0.8857
  133fsi    OBT 1042   2.230   2.936   3.085 -0.5871 -0.7053  0.3426
  133fsi    OBT 1043   2.312   2.696   3.065 -0.1957 -0.3394  0.1954
  133fsi    SBT 1044   2.312   2.744   2.744 -0.1704  0.4634 -0.0538
  133fsi    OBT 1045   2.404   2.638   2.779  0.9970 -0.4836 -0.2877
  133fsi    OBT 1046   2.330   2.815   2.623  0.1842  0.1849  0.3601
  133fsi    FSI 1047   2.180   2.666   2.711  0.0643  0.9738  0.5132
  134fsi    FSI 1048   2.473   4.484   3.956 -0.0890  0.7596 -0.2860
  134fsi    SBT 1049   2.584   4.457   3.848  0.2001  0.0735  0.1707
  134fsi    NBT 1050   2.700   4.384   3.930  0.4172 -0.3095  0.5992
  134fsi    OBT 1051   2.524   4.363   3.753 -0.7593 -0.3058  0.4441
  134fsi    OBT 1052   2.619   4.590   3.805  0.4876 -0.1748 -0.0802
  134fsi    SBT 1053   2.836   4.438   3.996 -0.1288 -0.1765  0.5531
  134fsi    OBT 1054   2.879   4.570   3.963 -0.1114 -0.2224 -0.0215
  134fsi    OBT 1055   2.945   4.341   3.994 -0.4186 -0.7753 -0.0352
  134fsi    FSI 1056   2.797   4.457   4.151  0.1232 -0.2538  0.7802
  135fsi    FSI 1057   3.795   2.882   2.474  0.5701  0.1627 -0.0010
  135fsi    SBT 1058   3.943   2.941   2.451 -0.1839 -0.0909 -0.1447
  135fsi    NBT 1059   3.913   3.082   2.394  0.2830  0.2449 -0.5998
  135fsi    OBT 1060   4.004   2.932   2.580 -0.3497  0.3578 -0.5433
  135fsi    OBT 1061   3.995   2.851   2.348 -0.5454 -0.1398  0.1064
  135fsi    SBT 1062   3.935   3.130   2.246  0.1566  0.3478  0.1541
  135fsi    OBT 1063   3.817   3.189   2.192 -0.3795 -0.2492  1.1119
  135fsi    OBT 1064   4.021   3.052   2.160  0.2301 -0.1520 -0.0973
  135fsi    FSI 1065   4.031   3.252   2.266  0.4888  0.3174  0.0840
  136fsi    FSI 1066   0.109   2.124   2.819 -0.3389  0.5780  0.1180
  136fsi    SBT 1067   0.200   2.092   2.695  0.1772  0.0801 -0.3774
  136fsi    NBT 1068   0.144   1.958   2.635  0.1526 -0.4117 -0.4849
  136fsi    OBT 1069   0.176   2.207   2.613 -0.2336 -0.4826 -0.1940
  136fsi    OBT 1070   0.332   2.071   2.746  0.2350 -0.1259  0.0002
  136fsi    SBT 1071   0.029   1.930   2.531 -0.2199  0.1655 -0.6475
  136fsi    OBT 1072   0.061   1.820   2.441 -0.4921 -0.2905 -0.3682
  136fsi    OBT 1073  -0.030   2.048   2.468 -0.1741 -0.2742 -0.3921
  136fsi    FSI 1074  -0.084   1.878   2.628  0.2127 -0.0717 -0.1704
  137fsi    FSI 1075   3.163   3.312   3.160 -0.3790  0.4020  0.9364
  137fsi    SBT 1076   3.311   3.317   3.100  0.0797  0.3890  0.2423
  137fsi    NBT 1077   3.360   3.175   3.135 -0.8384 -0.9760 -0.8581
  137fsi    OBT 1078   3.282   3.329   2.960 -0.2772 -0.0180 -0.1049
  137fsi    OBT 1079   3.386   3.418   3.174 -0.2910 -0.2481  0.0917
  137fsi    SBT 1080   3.330   3.041   3.060  0.0642  0.1503 -0.2534
  137fsi    OBT 1081   3.206   3.029   2.984 -0.1411 -0.5596 -0.0573
  137fsi    OBT 1082   3.375   2.926   3.133  0.1928  0.0016  0.4784
  137fsi    FSI 1083   3.444   3.046   2.946 -0.2748 -0.1480  0.5410
  138fsi    FSI 1084   3.366   3.764   2.658  0.3329  0.8212  0.2980
  138fsi    SBT 1085   3.413   3.614   2.663  0.2531 -0.0450  0.0718
  138fsi    NBT 1086   3.460   3.607   2.519 -0.2198 -0.1782  0.1555
  138fsi    OBT 1087   3.518   3.613   2.761  0.0397  0.4807 -0.5198
  138fsi    OBT 1088   3.295   3.539   2.685 -0.0339 -0.3593 -0.2321
  138fsi    SBT 1089   3.599   3.620   2.453 -0.3397 -0.2714 -0.4277
  138fsi    OBT 1090   3.626   3.518   2.356 -0.2221  0.2096  0.6276
  138fsi    OBT 1091   3.714   3.664   2.527 -0.1823  0.2168 -0.0705
  138fsi    FSI 1092   3.573   3.745   2.367 -0.4480 -0.0892  0.0211
  139fsi    FSI 1093   3.671   3.228   1.713 -0.1266 -0.1952 -0.2354
  139fsi    SBT 1094   3.695   3.138   1.839 -0.1638  0.1717 -0.3587
  139fsi    NBT 1095   3.631   3.233   1.951 -0.2017 -0.3914 -0.9659
  139fsi    OBT 1096   3.623   3.017   1.805  0.4365 -0.0719  0.2148
  139fsi    OBT 1097   3.835   3.124   1.849  0.2931  0.3936  0.0024
  139fsi    SBT 1098   3.490   3.237   2.015 -0.1982  0.5237  0.1481
  139fsi    OBT 1099   3.503   3.246   2.160  0.3275  0.0606 -0.3973
  139fsi    OBT 1100   3.397   3.138   1.973 -0.3043 -0.4179  0.1633
  139fsi    FSI 1101   3.438   3.379   1.970  0.1013  0.1607  0.4567
  140fsi    FSI 1102   2.135   4.209   2.535  0.2578  0.0965  0.6671
  140fsi    SBT 1103   2.273   4.132   2.548  0.0971  0.1132  0.4257
  140fsi    NBT 1104   2.372   4.232   2.488 -0.4695  0.0582  0.1910
  140fsi    OBT 1105   2.282   4.104   2.687 -0.1591  0.0219  0.4784
  140fsi    OBT 1106   2.246   4.022   2.458  0.4201 -0.3647 -0.1847
  140fsi    SBT 1107   2.449   4.358   2.550 -0.1901  0.1052  0.0760
  140fsi    OBT 1108   2.589   4.363   2.508 -0.5969  0.0118 -0.1557
  140fsi    OBT 1109   2.407   4.380   2.685 -0.0179  0.6724 -0.3140
  140fsi    FSI 1110   2.370   4.478   2.476  0.1408 -0.3957 -0.0643
  141fsi    FSI 1111   3.207   3.495   2.282 -0.7835 -0.3020  0.3700
  141fsi    SBT 1112   3.126   3.364   2.331  0.7166  0.3061  0.2565
  141fsi    NBT 1113   2.994   3.379   2.244  0.5944 -0.1936 -0.0653
  141fsi    OBT 1114   3.210   3.249   2.301 -0.4145 -0.1116  0.2547
  141fsi    OBT 1115   3.094   3.387   2.465  0.3768 -0.3587 -0.3925
  141fsi    SBT 1116   2.962   3.316   2.102 -0.5042  0.0062 -0.2489
  141fsi    OBT 1117   2.828   3.268   2.096  0.7641  0.0666 -0.0481
  141fsi    OBT 1118   3.062   3.239   2.028  0.6984  0.1980 -0.0676
  141fsi    FSI 1119   2.963   3.448   2.015 -0.7045  0.0296  0.3628
  142fsi    FSI 1120   1.497   1.542   3.265 -0.6066 -0.7560 -0.1967
  142fsi    SBT 1121   1.500   1.428   3.167  0.8210 -0.3886 -0.0774
  142fsi    NBT 1122   1.404   1.329   3.234  0.1972  0.5760  0.1692
  142fsi    OBT 1123   1.449   1.492   3.046 -0.1532 -0.2149  0.3693
  142fsi    OBT 1124   1.633   1.385   3.167  0.0709 -0.0061  0.4419
  142fsi    SBT 1125   1.438   1.192   3.300 -0.2829 -0.1544  0.4901
  142fsi    OBT 1126   1.549   1.119   3.249  0.1905 -0.1019  0.0627
  142fsi    OBT 1127   1.322   1.111   3.319  0.2428  0.1687 -0.1290
  142fsi    FSI 1128   1.481   1.242   3.450  0.4258  0.0642  0.4241
  143fsi    FSI 1129   1.225   1.611   3.159  0.1589  0.1509  0.0607
  143fsi    SBT 1130   1.088   1.525   3.148 -0.1531 -0.0772  0.0066
  143fsi    NBT 1131   1.106   1.416   3.255  0.2508 -0.0817 -1.0213
  143fsi    OBT 1132   0.977   1.619   3.158  0.2177 -0.0466 -0.1155
  143fsi    OBT 1133   1.109   1.464   3.021 -0.4249  0.0550 -0.3042
  143fsi    SBT 1134   1.060   1.407   3.404 -0.0743 -0.1261 -0.0968
  143fsi    OBT 1135   1.079   1.273   3.453  0.8112 -0.1768 -0.0468
  143fsi    OBT 1136   0.937   1.471   3.434  0.4829  0.2906 -0.3144
  143fsi    FSI 1137   1.169   1.491   3.472  0.0137  0.9924 -0.1605
  144fsi    FSI 1138   3.266   4.514   4.004  0.2768 -1.0735 -0.8549
  144fsi    SBT 1139   3.338   4.378   4.037  0.1717 -0.4132 -0.2563
  144fsi    NBT 1140   3.458   4.372   3.935 -0.1939  0.0205  0.1019
  144fsi    OBT 1141   3.382   4.391   4.173 -0.3568  0.3539  0.5705
  144fsi    OBT 1142   3.235   4.275   4.012 -0.9478  0.0234  0.2644
  144fsi    SBT 1143   3.606   4.414   3.950 -0.2103 -0.2252  0.1985
  144fsi    OBT 1144   3.673   4.360   3.831  0.5158  0.6315  0.2445
  144fsi    OBT 1145   3.667   4.397   4.082 -0.2457  0.1656  0.1304
  144fsi    FSI 1146   3.610   4.571   3.925 -0.3313  0.5343  0.1766
  145fsi    FSI 1147   4.296   1.165   2.689 -0.2312 -0.4181 -0.2947
  145fsi    SBT 1148   4.303   1.263   2.561 -0.3014 -0.3165  0.3845
  145fsi    NBT 1149   4.176   1.228   2.471  0.0153  0.0726  0.4493
  145fsi    OBT 1150   4.292   1.397   2.605  0.3145 -0.2335 -0.0132
  145fsi    OBT 1151   4.426   1.230   2.495  0.4119 -0.0280  0.0031
  145fsi    SBT 1152   4.164   1.154   2.332  0.0972 -0.3351  0.3343
  145fsi    OBT 1153   4.292   1.138   2.259  0.5209 -0.0407 -0.1608
  145fsi    OBT 1154   4.052   1.193   2.254  0.0552  0.2432 -0.0530
  145fsi    FSI 1155   4.121   1.013   2.374  0.8764  0.0900 -0.1440
  146fsi    FSI 1156   2.827   2.402   1.965 -0.2399 -0.0633 -0.2597
  146fsi    SBT 1157   2.860   2.439   2.114 -0.0072 -0.1344  0.0302
  146fsi    NBT 1158   3.002   2.374   2.141 -0.1771 -0.6104 -0.0380
  146fsi    OBT 1159   2.856   2.583   2.120 -0.5881  0.3451  0.3440
  146fsi    OBT 1160   2.750   2.372   2.179  0.1429  0.2153 -0.0949
  146fsi    SBT 1161   3.048   2.226   2.153 -0.0175 -0.0326  0.3358
  146fsi    OBT 1162   3.192   2.196   2.176  0.3833  0.3665 -0.9606
  146fsi    OBT 1163   2.988   2.145   2.052  0.1582  0.1024  0.4388
  146fsi    FSI 1164   2.980   2.184   2.285  0.7508  0.4634 -0.1920
  147fsi    FSI 1165   2.221   2.401   2.918 -0.4976  0.0284 -0.0700
  147fsi    SBT 1166   2.162   2.265   2.856 -0.0202  0.1837 -0.1847
  147fsi    NBT 1167   2.232   2.152   2.930  0.1669  0.0284  0.6307
  147fsi    OBT 1168   2.021   2.267   2.880 -0.5487 -0.3358  0.7594
  147fsi    OBT 1169   2.204   2.273   2.720  0.2264  0.3817 -0.3528
  147fsi    SBT 1170   2.217   2.102   3.080 -0.0114  0.2366  0.0866
  147fsi    OBT 1171   2.241   1.956   3.082  0.6783  0.4110  0.3720
  147fsi    OBT 1172   2.108   2.161   3.154  0.0768 -0.2529  0.1021
  147fsi    FSI 1173   2.351   2.156   3.150 -0.4442  0.4351 -0.1426
  148fsi    FSI 1174   2.499   3.427   2.948 -0.9203  0.3926  0.0095
  148fsi    SBT 1175   2.538   3.271   2.937 -0.1107  0.4896  0.2385
  148fsi    NBT 1176   2.606   3.249   3.076 -0.2473 -0.1716 -0.3033
  148fsi    OBT 1177   2.418   3.188   2.925  0.7447  0.7177 -0.1257
  148fsi    OBT 1178   2.631   3.258   2.831  0.1852 -0.9189  0.1165
  148fsi    SBT 1179   2.539   3.215   3.220  0.3469  0.2948 -0.2247
  148fsi    OBT 1180   2.625   3.132   3.298  0.1991  0.2062 -0.6748
  148fsi    OBT 1181   2.402   3.184   3.219  0.3109  0.3941  0.4909
  148fsi    FSI 1182   2.539   3.345   3.302 -0.6932  0.0410  0.3401
  149fsi    FSI 1183   0.468   2.370   2.708  0.0158 -0.6718 -0.3840
  149fsi    SBT 1184   0.504   2.486   2.610  0.2136  0.0673  0.1164
  149fsi    NBT 1185   0.521   2.406   2.478  0.3767 -0.3110 -0.0323
  149fsi    OBT 1186   0.392   2.581   2.602 -0.2480  0.1877 -0.4127
  149fsi    OBT 1187   0.638   2.531   2.657 -0.5890 -0.3467  0.4900
  149fsi    SBT 1188   0.423   2.379   2.358 -0.0964  0.0297  0.3148
  149fsi    OBT 1189   0.486   2.337   2.234 -0.1495  0.4099  0.0730
  149fsi    OBT 1190   0.320   2.484   2.345 -0.0980 -0.0606 -0.0789
  149fsi    FSI 1191   0.349   2.252   2.412  0.0110  0.1696  0.6568
  150fsi    FSI 1192   4.118   4.223   3.377 -0.1570  0.6447  0.5304
  150fsi    SBT 1193   4.000   4.124   3.420 -0.1309  0.3457 -0.2147
  150fsi    NBT 1194   3.898   4.146   3.300 -0.2413  0.3240 -0.1739
  150fsi    OBT 1195   4.058   3.994   3.429  0.0089 -0.0694 -0.7054
  150fsi    OBT 1196   3.954   4.184   3.545 -0.0123 -0.3220  0.4550
  150fsi    SBT 1197   3.777   4.249   3.287 -0.2203 -0.5168 -0.4493
  150fsi    OBT 1198   3.801   4.360   3.382  0.1199  0.5685  0.0579
  150fsi    OBT 1199   3.647   4.185   3.294  0.6713  0.5732 -0.4948
  150fsi    FSI 1200   3.793   4.299   3.138 -0.0799  0.3335  0.1218
  151fsi    FSI 1201   3.432   3.343   3.689  0.1710  0.0740  0.6578
  151fsi    SBT 1202   3.361   3.250   3.581 -0.4718  0.1058 -0.2146
  151fsi    NBT 1203   3.420   3.107   3.618 -0.4445  0.6835 -0.3012
  151fsi    OBT 1204   3.222   3.263   3.609 -0.2240 -0.1017 -0.8016
  151fsi    OBT 1205   3.406   3.301   3.454  0.0899  0.5845 -0.3247
  151fsi    SBT 1206   3.525   3.027   3.535 -0.0527 -0.5946  0.2172
  151fsi    OBT 1207   3.559   3.059   3.397 -0.5720  0.1042  0.4721
  151fsi    OBT 1208   3.503   2.889   3.569 -0.0767 -0.4476  0.0575
  151fsi    FSI 1209   3.660   3.049   3.617  0.0184 -0.3676  0.0018
  152fsi    FSI 1210   1.456   1.697   2.222 -0.4668 -0.2030 -0.2658
  152fsi    SBT 1211   1.561   1.803   2.181 -0.3251  0.0550 -0.0234
  152fsi    NBT 1212   1.474   1.937   2.154  0.5049  0.2799  0.8380
  152fsi    OBT 1213   1.649   1.812   2.291 -0.2465 -0.0255 -0.5599
  152fsi    OBT 1214   1.613   1.754   2.058 -0.1552  0.2929 -0.0615
  152fsi    SBT 1215   1.401   2.039   2.251 -0.2763  0.2535  0.0883
  152fsi    OBT 1216   1.433   2.178   2.232 -0.1894 -0.2928  0.0578
  152fsi    OBT 1217   1.386   1.991   2.386  0.3321 -0.1652  0.5920
  152fsi    FSI 1218   1.251   2.029   2.201  0.0400  0.1378 -0.2099
  153fsi    FSI 1219   4.002   4.600   3.817 -0.1877  0.3419  0.2267
  153fsi    SBT 1220   4.042   4.480   3.917 -0.0436  0.3138 -0.1187
  153fsi    NBT 1221   4.196   4.463   3.896 -0.2078 -0.5408  0.5643
  153fsi    OBT 1222   4.002   4.535   4.046 -0.6061  0.1749  0.2878
  153fsi    OBT 1223   3.974   4.361   3.877 -0.3841 -0.3233 -0.7535
  153fsi    SBT 1224   4.313   4.467   3.996  0.0175 -0.1171  0.3190
  153fsi    OBT 1225   4.377   4.341   3.982  0.4786 -0.1863 -0.4674
  153fsi    OBT 1226   4.280   4.513   4.129 -0.2199 -0.4236 -0.5428
  153fsi    FSI 1227   4.412   4.565   3.939  0.9642 -0.5540  0.4174
  154fsi    FSI 1228   1.175   1.790   2.400 -0.3196  0.6817  0.3671
  154fsi    SBT 1229   1.097   1.808   2.535 -0.3276  0.1719  0.2964
  154fsi    NBT 1230   1.212   1.800   2.640 -0.0332 -0.6958 -0.0850
  154fsi    OBT 1231   1.032   1.935   2.522  0.3159 -0.5626  0.0752
  154fsi    OBT 1232   1.005   1.697   2.542  0.3575  0.2396 -0.2778
  154fsi    SBT 1233   1.196   1.770   2.792 -0.3083 -0.0878 -0.3337
  154fsi    OBT 1234   1.314   1.702   2.843  0.3138 -0.3011 -0.2361
  154fsi    OBT 1235   1.067   1.711   2.828 -0.5015  0.1874  0.2705
  154fsi    FSI 1236   1.206   1.911   2.859  0.3890 -0.3516 -0.4418
  155fsi    FSI 1237   4.334   2.316   2.836  0.2420  0.0003  0.1996
  155fsi    SBT 1238   4.244   2.392   2.732  0.1767  0.1229 -0.0498
  155fsi    NBT 1239   4.155   2.482   2.830 -0.1068  0.6151  0.0362
  155fsi    OBT 1240   4.338   2.469   2.653  0.3470 -0.2351 -0.3104
  155fsi    OBT 1241   4.188   2.276   2.666 -0.2923 -0.1966 -0.8184
  155fsi    SBT 1242   4.010   2.463   2.890 -0.0880  0.1726  0.3388
  155fsi    OBT 1243   3.992   2.524   3.020  0.7079 -0.5544  0.6129
  155fsi    OBT 1244   3.953   2.334   2.865  0.0196  0.1212  0.0082
  155fsi    FSI 1245   3.928   2.561   2.790  0.2127 -0.2198 -0.1183
  156fsi    FSI 1246   3.982   4.045   4.291 -0.1192 -0.1421 -0.1798
  156fsi    SBT 1247   3.967   4.181   4.211  0.1673 -0.4638 -0.2585
  156fsi    NBT 1248   3.852   4.256   4.287  0.4147 -0.4091 -0.3441
  156fsi    OBT 1249   4.099   4.245   4.221 -0.3761 -0.2046 -0.5049
  156fsi    OBT 1250   3.921   4.128   4.082 -0.6502 -0.3881 -0.4857
  156fsi    SBT 1251   3.846   4.372   4.389 -0.2599  0.0182 -0.0485
  156fsi    OBT 1252   3.712   4.419   4.406  0.4559  0.2223  0.1266
  156fsi    OBT 1253   3.944   4.479   4.371  0.6017  0.2831 -0.0481
  156fsi    FSI 1254   3.880   4.314   4.524  0.0504 -0.4676 -0.1099
  157fsi    FSI 1255   3.531   1.959   2.965 -0.0891  0.2748 -0.4036
  157fsi    SBT 1256   3.577   1.865   2.841 -0.0191 -0.2125 -0.1229
  157fsi    NBT 1257   3.734   1.864   2.850  0.6113  0.1327  0.0254
  157fsi    OBT 1258   3.524   1.733   2.875 -0.1225  0.1849  0.4098
  157fsi    OBT 1259   3.527   1.941   2.732  0.8337  0.4446  0.3937
  157fsi    SBT 1260   3.822   1.989   2.850 -0.1241  0.1071  0.3513
  157fsi    OBT 1261   3.756   2.119   2.863  0.3790  0.4175 -0.5157
  157fsi    OBT 1262   3.920   1.975   2.743 -0.0237 -0.6404 -0.2063
  157fsi    FSI 1263   3.909   1.975   2.975 -0.2870 -0.2030  0.1452
  158fsi    FSI 1264   1.504   2.289   2.700 -0.3644  0.5294  0.0897
  158fsi    SBT 1265   1.493   2.155   2.790  0.3961  0.0603  0.2102
  158fsi    NBT 1266   1.364   2.190   2.878  0.7694  0.6176  0.2377
  158fsi    OBT 1267   1.465   2.058   2.689 -0.0050  0.1440  0.3315
  158fsi    OBT 1268   1.621   2.153   2.864 -0.3851 -0.5805  0.6264
  158fsi    SBT 1269   1.336   2.177   3.035  0.3144  0.1006 -0.0342
  158fsi    OBT 1270   1.429   2.087   3.102  0.0982 -0.3775 -0.1579
  158fsi    OBT 1271   1.204   2.142   3.059  0.5858  0.6900  0.5417
  158fsi    FSI 1272   1.351   2.319   3.097  0.0133  0.0265  0.1678
  159fsi    FSI 1273   0.527   1.527   2.883 -0.1018 -0.1835 -0.0327
  159fsi    SBT 1274   0.630   1.618   2.954  0.0989 -0.0089 -0.0299
  159fsi    NBT 1275   0.641   1.583   3.106  0.5191  0.0792  0.2919
  159fsi    OBT 1276   0.757   1.595   2.887  0.5004 -0.1075  0.1568
  159fsi    OBT 1277   0.572   1.750   2.929  0.2456  0.1917 -0.1739
  159fsi    SBT 1278   0.590   1.665   3.228  0.0799 -0.0064 -0.3512
  159fsi    OBT 1279   0.548   1.799   3.207 -0.1444 -0.2381 -0.3888
  159fsi    OBT 1280   0.677   1.647   3.339 -0.7159  0.0290 -0.5603
  159fsi    FSI 1281   0.458   1.591   3.267  0.2006 -0.2122 -0.3591
  160fsi    FSI 1282   2.911   3.550   3.890 -0.9564 -0.4225 -0.1165
  160fsi    SBT 1283   2.850   3.483   3.754  0.3949 -0.5473  0.5510
  160fsi    NBT 1284   2.723   3.401   3.811  0.4730 -0.1296 -0.1531
  160fsi    OBT 1285   2.807   3.595   3.676  0.1551  0.5101  0.2122
  160fsi    OBT 1286   2.960   3.397   3.706 -1.0043 -0.1747 -0.2599
  160fsi    SBT 1287   2.690   3.250   3.790  0.2885 -0.1850 -0.3467
  160fsi    OBT 1288   2.598   3.202   3.892 -0.2727 -0.2054 -0.3015
  160fsi    OBT 1289   2.805   3.173   3.757 -0.2556  0.6478  0.3908
  160fsi    FSI 1290   2.608   3.249   3.658  0.2670  0.5312 -0.3058
  161fsi    FSI 1291   4.659   2.100   2.895 -0.0535  0.0802 -0.0134
  161fsi    SBT 1292   4.690   2.145   2.748  0.0811 -0.1676  0.2721
  161fsi    NBT 1293   4.827   2.079   2.727 -0.2048  0.0665  0.3679
  161fsi    OBT 1294   4.581   2.076   2.682  0.8125  0.2675 -0.4256
  161fsi    OBT 1295   4.687   2.292   2.748  0.4081 -0.5080 -0.0348
  161fsi    SBT 1296   4.968   2.140   2.691 -0.0659  0.1910 -0.1408
  161fsi    OBT 1297   4.954   2.236   2.586  0.7167  0.1030  0.4281
  161fsi    OBT 1298   5.077   2.046   2.693  0.1080  0.0609 -0.8529
  161fsi    FSI 1299   5.009   2.223   2.820  0.6492  0.1029 -0.1872
  162fsi    FSI 1300   2.186   3.319   3.905 -0.4832 -0.0300 -0.8948
  162fsi    SBT 1301   2.276   3.447   3.888 -0.0352  0.0532  0.1772
  162fsi    NBT 1302   2.353   3.420   3.762 -0.2251  0.1146  1.1635
  162fsi    OBT 1303   2.190   3.562   3.882  0.4032 -0.2201 -0.1444
  162fsi    OBT 1304   2.364   3.429   3.994  0.1127 -0.6122 -0.2116
  162fsi    SBT 1305   2.359   3.487   3.616 -0.1507  0.2492  0.3729
  162fsi    OBT 1306   2.495   3.527   3.580 -0.2370  0.0622 -0.2570
  162fsi    OBT 1307   2.260   3.585   3.601 -0.1957 -0.3038  0.0170
  162fsi    FSI 1308   2.335   3.362   3.518 -0.1153 -0.3386 -0.9009
  163fsi    FSI 1309   1.453   1.435   2.503  0.0459  0.0188 -0.5565
  163fsi    SBT 1310   1.543   1.531   2.594 -0.0383  0.1803  0.1427
  163fsi    NBT 1311   1.691   1.477   2.564  1.0084  0.1261 -0.0353
  163fsi    OBT 1312   1.522   1.664   2.545  0.1666 -0.3023 -0.0391
  163fsi    OBT 1313   1.513   1.501   2.730  0.2973 -0.4039  0.4201
  163fsi    SBT 1314   1.805   1.533   2.480  0.3292  0.1853 -0.0098
  163fsi    OBT 1315   1.925   1.464   2.510 -0.2736  0.4394 -0.2285
  163fsi    OBT 1316   1.818   1.673   2.465 -0.3439  0.3950  0.2517
  163fsi    FSI 1317   1.766   1.480   2.337  0.1418 -0.0484  0.1285
  164fsi    FSI 1318   5.470   2.383   2.286 -0.8599  0.0210  0.8635
  164fsi    SBT 1319   5.363   2.394   2.394  0.1954 -0.4211 -0.0732
  164fsi    NBT 1320   5.319   2.241   2.412 -0.2073  0.1418  0.0410
  164fsi    OBT 1321   5.441   2.438   2.507 -0.3019  0.2565  0.0002
  164fsi    OBT 1322   5.257   2.480   2.334 -0.0713  0.5324  0.1340
  164fsi    SBT 1323   5.389   2.126   2.502 -0.1363  0.1821 -0.1262
  164fsi    OBT 1324   5.531   2.121   2.494 -0.2869  0.4064 -0.5566
  164fsi    OBT 1325   5.318   2.000   2.511 -0.5271 -0.0709 -0.0666
  164fsi    FSI 1326   5.365   2.182   2.634  0.4998 -0.3539 -0.5739
  165fsi    FSI 1327   2.321   3.577   3.239  0.1250  0.0272  0.4636
  165fsi    SBT 1328   2.180   3.611   3.187  0.2632  0.2018  0.3586
  165fsi    NBT 1329   2.070   3.559   3.288  0.0682 -0.2427 -0.0858
  165fsi    OBT 1330   2.184   3.755   3.179 -0.0229 -0.1938 -0.3940
  165fsi    OBT 1331   2.181   3.533   3.065 -0.3234  0.0546 -0.5791
  165fsi    SBT 1332   2.017   3.413   3.297  0.1151 -0.2118  0.2474
  165fsi    OBT 1333   2.116   3.318   3.270 -0.1767  0.3279 -0.5341
  165fsi    OBT 1334   1.888   3.392   3.241  0.0977 -0.1155  0.1979
  165fsi    FSI 1335   1.993   3.403   3.452 -0.7751  0.6102  0.3969
  166fsi    FSI 1336   1.844   2.924   3.446  0.2948 -0.0645 -0.4076
  166fsi    SBT 1337   1.924   2.892   3.313 -0.0080 -0.0093  0.1966
  166fsi    NBT 1338   1.807   2.868   3.209 -0.0811  0.2682  0.2971
  166fsi    OBT 1339   2.003   3.011   3.282 -0.0793 -0.1823 -0.3791
  166fsi    OBT 1340   1.988   2.767   3.340 -0.3444 -0.0154  0.2048
  166fsi    SBT 1341   1.691   2.970   3.178 -0.6046 -0.2347 -0.2769
  166fsi    OBT 1342   1.641   2.959   3.046  0.4435 -0.4173 -0.2688
  166fsi    OBT 1343   1.715   3.104   3.215 -0.0404  0.6394 -0.1371
  166fsi    FSI 1344   1.577   2.910   3.269 -0.2249 -0.5700 -0.1086
  167fsi    FSI 1345   2.862   4.745   3.385  0.4009  0.0480  0.6633
  167fsi    SBT 1346   2.937   4.742   3.525 -0.0354 -0.8413  0.3287
  167fsi    NBT 1347   2.897   4.613   3.599  0.1836 -0.3847 -0.7878
  167fsi    OBT 1348   3.075   4.752   3.486 -0.4164 -0.6061  0.4304
  167fsi    OBT 1349   2.885   4.849   3.604  0.7938 -0.2035  0.2447
  167fsi    SBT 1350   2.975   4.478   3.620 -0.2797 -0.2832 -0.1898
  167fsi    OBT 1351   3.067   4.439   3.518 -0.1290 -0.2966  0.2073
  167fsi    OBT 1352   2.888   4.375   3.676  0.3233 -0.5769 -0.1023
  167fsi    FSI 1353   3.078   4.507   3.742 -0.0344  0.0144 -0.0496
  168fsi    FSI 1354   2.422   4.717   3.362  0.1294 -0.1597  0.2876
  168fsi    SBT 1355   2.497   4.621   3.451  0.0351  0.0266  0.0865
  168fsi    NBT 1356   2.576   4.541   3.340  0.5417  0.2204 -0.2913
  168fsi    OBT 1357   2.575   4.712   3.530 -0.0012 -0.3825 -0.4974
  168fsi    OBT 1358   2.393   4.553   3.517  0.7037 -0.1147 -0.0731
  168fsi    SBT 1359   2.651   4.401   3.349  0.2708 -0.0178 -0.8225
  168fsi    OBT 1360   2.631   4.332   3.225 -0.0704 -0.0434 -0.0606
  168fsi    OBT 1361   2.643   4.325   3.469 -0.0949  0.3297  0.5927
  168fsi    FSI 1362   2.796   4.448   3.345  0.0463 -0.4146 -1.0306
  169fsi    FSI 1363   2.953   2.622   2.956  0.0059  0.2949 -0.2601
  169fsi    SBT 1364   2.929   2.716   2.830 -0.4070  0.2036 -0.2845
  169fsi    NBT 1365   2.780   2.753   2.834  0.5192 -0.1259  0.2198
  169fsi    OBT 1366   3.020   2.831   2.843 -0.0123  0.3311  0.5675
  169fsi    OBT 1367   2.961   2.617   2.729  0.7865 -0.1195 -0.4580
  169fsi    SBT 1368   2.700   2.837   2.936 -0.2475  0.1828  0.4613
  169fsi    OBT 1369   2.577   2.889   2.882 -0.2521 -0.0767 -0.3385
  169fsi    OBT 1370   2.777   2.927   3.016 -0.1028  0.2619 -0.1183
  169fsi    FSI 1371   2.654   2.720   3.043  0.8816 -0.5863  0.4209
  170fsi    FSI 1372   1.613   2.652   2.432 -0.3138 -0.0060 -0.4271
  170fsi    SBT 1373   1.482   2.558   2.446 -0.1652  0.0676  0.1092
  170fsi    NBT 1374   1.399   2.618   2.325 -0.4320 -0.0465  0.1601
  170fsi    OBT 1375   1.531   2.427   2.431  0.2193  0.1626 -0.5081
  170fsi    OBT 1376   1.423   2.589   2.575  0.0747 -0.1663 -0.2779
  170fsi    SBT 1377   1.397   2.560   2.177 -0.0439  0.0754 -0.1860
  170fsi    OBT 1378   1.269   2.506   2.142 -0.3380  0.2753  0.0723
  170fsi    OBT 1379   1.512   2.479   2.142  0.1553 -0.3943 -0.3875
  170fsi    FSI 1380   1.413   2.698   2.098  0.0540  0.0605 -0.5750
  171fsi    FSI 1381   4.570   3.780   2.470 -0.2703  0.8838 -0.0633
  171fsi    SBT 1382   4.417   3.792   2.483  0.1063 -0.3373  0.4480
  171fsi    NBT 1383   4.405   3.948   2.475 -0.0023 -0.2943 -0.2235
  171fsi    OBT 1384   4.362   3.723   2.368  0.0255  0.2340  0.4354
  171fsi    OBT 1385   4.391   3.742   2.608 -0.1537 -0.3050  0.2914
  171fsi    SBT 1386   4.411   4.046   2.354 -0.1750  0.0013 -0.1621
  171fsi    OBT 1387   4.317   4.157   2.369 -0.2400  0.6504  0.1434
  171fsi    OBT 1388   4.413   3.976   2.225  0.1099  0.2106  0.5184
  171fsi    FSI 1389   4.548   4.117   2.377 -0.4805  0.4853  0.6746
  172fsi    FSI 1390   3.782   2.575   2.521 -0.2192  0.1016 -0.2583
  172fsi    SBT 1391   3.815   2.420   2.487 -0.2277 -0.2565 -0.0923
  172fsi    NBT 1392   3.972   2.412   2.490  0.4927 -0.4788 -0.1432
  172fsi    OBT 1393   3.752   2.348   2.589  0.4115 -0.4563 -0.2393
  172fsi    OBT 1394   3.769   2.398   2.353  0.8948 -0.3441  0.4056
  172fsi    SBT 1395   4.080   2.469   2.390 -0.0259  0.1268  0.7944
  172fsi    OBT 1396   4.024   2.514   2.266 -0.4754 -0.1557  0.4745
  172fsi    OBT 1397   4.203   2.390   2.371 -0.1417  0.0315  0.4578
  172fsi    FSI 1398   4.139   2.595   2.462 -0.1948 -0.1410 -0.4081
  173fsi    FSI 1399   1.106   0.896   3.008 -0.0515  0.0024 -0.1808
  173fsi    SBT 1400   1.138   1.021   2.929 -0.1259 -0.1632  0.2635
  173fsi    NBT 1401   1.297   1.014   2.917  0.3613  0.1104  0.0005
  173fsi    OBT 1402   1.066   1.003   2.808  0.3542  0.1922 -0.0390
  173fsi    OBT 1403   1.112   1.129   3.017  0.2025 -0.2526 -0.1844
  173fsi    SBT 1404   1.399   1.135   2.894 -0.0887  0.3613 -0.4432
  173fsi    OBT 1405   1.524   1.122   2.962  0.2326  0.1365  0.1407
  173fsi    OBT 1406   1.347   1.268   2.882  0.0730  0.6017  0.0689
  173fsi    FSI 1407   1.442   1.103   2.740  0.0278  0.4448 -0.4566
  174fsi    FSI 1408   4.091   3.441   3.663  0.5095 -0.0621  0.3086
  174fsi    SBT 1409   3.982   3.554   3.679  0.2255 -0.1473  0.0243
  174fsi    NBT 1410   3.888   3.521   3.556  0.1604 -0.5697 -0.1490
  174fsi    OBT 1411   3.926   3.530   3.808  0.5874  0.6415  0.4250
  174fsi    OBT 1412   4.060   3.674   3.654  0.1844 -0.1245 -0.3721
  174fsi    SBT 1413   3.785   3.402   3.542 -0.2765 -0.3878 -0.5165
  174fsi    OBT 1414   3.689   3.424   3.435  0.0498 -0.4592  0.0262
  174fsi    OBT 1415   3.733   3.354   3.665 -0.4798  0.6348  0.3400
  174fsi    FSI 1416   3.867   3.277   3.487  0.1678  0.1060  0.0869
  175fsi    FSI 1417   5.303   1.495   2.315 -0.3325  0.5132 -0.1705
  175fsi    SBT 1418   5.190   1.609   2.312  0.1121  0.3829 -0.3846
  175fsi    NBT 1419   5.226   1.680   2.178 -0.2484  0.1987 -0.0568
  175fsi    OBT 1420   5.061   1.541   2.316  0.3255 -0.2971  0.5023
  175fsi    OBT 1421   5.222   1.696   2.422 -0.5748 -0.5859  0.3805
  175fsi    SBT 1422   5.198   1.638   2.027  0.3613 -0.2611 -0.1833
  175fsi    OBT 1423   5.094   1.541   2.013 -0.2076 -0.3318  0.0072
  175fsi    OBT 1424   5.321   1.620   1.950  0.1712 -0.1520  0.1255
  175fsi    FSI 1425   5.143   1.773   1.959  0.4241  0.5712 -0.3453
  176fsi    FSI 1426   4.860   1.459   1.784  0.5149 -0.1241 -0.5399
  176fsi    SBT 1427   4.741   1.450   1.891 -0.0980  0.3337 -0.4939
  176fsi    NBT 1428   4.697   1.297   1.904 -0.2524  0.0314 -0.1556
  176fsi    OBT 1429   4.787   1.507   2.015  0.0098 -0.0671  0.1478
  176fsi    OBT 1430   4.644   1.532   1.821 -0.0488  0.0700 -0.3823
  176fsi    SBT 1431   4.744   1.189   2.000 -0.0696 -0.1835 -0.4641
  176fsi    OBT 1432   4.644   1.127   2.085  0.4826 -0.2997  0.6931
  176fsi    OBT 1433   4.865   1.227   2.071  0.1492  0.3851  0.6620
  176fsi    FSI 1434   4.782   1.079   1.899 -0.3055 -0.8296  0.3644
  177fsi    FSI 1435   4.310   3.408   1.844  0.0646  0.4846 -0.1545
  177fsi    SBT 1436   4.316   3.338   1.988 -0.1029  0.1438 -0.4481
  177fsi    NBT 1437   4.409   3.219   1.970 -0.0478  0.0742  0.1841
  177fsi    OBT 1438   4.386   3.436   2.070  0.2920 -0.1027 -0.6778
  177fsi    OBT 1439   4.179   3.302   2.015  0.2839 -0.2192 -0.4258
  177fsi    SBT 1440   4.387   3.071   1.914  0.0784 -0.1266  0.0106
  177fsi    OBT 1441   4.247   3.029   1.917 -0.1183  1.0334 -0.4229
  177fsi    OBT 1442   4.483   2.974   1.966  0.3415 -0.0720  0.1965
  177fsi    FSI 1443   4.430   3.078   1.763 -0.1078 -0.1430 -0.5201
  178fsi    FSI 1444   3.849   3.361   3.139 -0.2381 -0.2795  0.0682
  178fsi    SBT 1445   3.731   3.287   3.068 -0.0116 -0.4335  0.1314
  178fsi    NBT 1446   3.806   3.190   2.970  0.3442  0.3235 -0.3793
  178fsi    OBT 1447   3.663   3.216   3.177 -0.4067  0.2231 -0.5988
  178fsi    OBT 1448   3.657   3.392   3.000 -0.6188  0.2678 -0.5892
  178fsi    SBT 1449   3.832   3.040   2.982 -0.1204  0.1860 -0.2224
  178fsi    OBT 1450   3.894   2.977   2.876 -0.5681 -0.0822  0.6255
  178fsi    OBT 1451   3.721   2.968   3.034  0.3486 -0.0834 -0.1464
  178fsi    FSI 1452   3.938   3.032   3.100 -0.2973  0.5968 -0.2088
  179fsi    FSI 1453   2.363   1.349   2.209  0.3339 -0.0177 -0.1244
  179fsi    SBT 1454   2.337   1.449   2.330  0.0725 -0.2520 -0.0285
  179fsi    NBT 1455   2.286   1.581   2.257 -0.4157  0.6256  0.4459
  179fsi    OBT 1456   2.243   1.380   2.415  0.1019  0.0567 -0.2064
  179fsi    OBT 1457   2.461   1.474   2.391  0.2795 -0.2963  0.1707
  179fsi    SBT 1458   2.140   1.609   2.203 -0.1334 -0.2433  0.3643
  179fsi    OBT 1459   2.090   1.730   2.259 -0.2523 -0.2108 -0.2782
  179fsi    OBT 1460   2.053   1.495   2.206 -0.7428  0.7249  0.3566
  179fsi    FSI 1461   2.164   1.637   2.053  0.1335  0.1085  0.2360
  180fsi    FSI 1462   3.024   2.789   3.751 -0.0164 -0.4719  0.1896
  180fsi    SBT 1463   3.142   2.887   3.777  0.2856  0.3459 -0.1737
  180fsi    NBT 1464   3.137   2.895   3.935 -0.1986  0.0271  0.2139
  180fsi    OBT 1465   3.253   2.819   3.717  0.5339 -0.0360 -0.2705
  180fsi    OBT 1466   3.099   3.016   3.725  0.4175 -1.1369 -0.0588
  180fsi    SBT 1467   3.252   2.862   4.036 -0.1421 -0.1476  0.2198
  180fsi    OBT 1468   3.281   2.970   4.129 -0.5551 -0.0355  0.7625
  180fsi    OBT 1469   3.359   2.785   3.977 -0.3754 -0.0347  0.2543
  180fsi    FSI 1470   3.178   2.755   4.127  0.3231 -0.2088  0.2431
  181fsi    FSI 1471   4.330   1.504   1.918 -0.2347 -0.0507 -0.1508
  181fsi    SBT 1472   4.295   1.408   2.035  0.1191  0.3594 -0.2325
  181fsi    NBT 1473   4.289   1.503   2.158 -0.0957 -0.4280 -0.2805
  181fsi    OBT 1474   4.168   1.351   2.006 -0.1175 -0.1356 -0.7306
  181fsi    OBT 1475   4.408   1.325   2.053 -0.7374 -0.3956  0.8522
  181fsi    SBT 1476   4.173   1.565   2.240 -0.3560 -0.0188  0.0792
  181fsi    OBT 1477   4.219   1.605   2.368  0.2320  0.5347 -0.0286
  181fsi    OBT 1478   4.039   1.508   2.232  0.0837  0.5923  0.3935
  181fsi    FSI 1479   4.159   1.709   2.174 -0.3945 -0.3121  0.1161
  182fsi    FSI 1480   4.094   3.473   3.306 -0.0447  0.2289 -0.3852
  182fsi    SBT 1481   4.219   3.570   3.330  0.3013  0.6502  0.2025
  182fsi    NBT 1482   4.295   3.568   3.194  0.1979 -0.3092  0.5432
  182fsi    OBT 1483   4.142   3.688   3.356 -0.4665 -0.1641 -0.0009
  182fsi    OBT 1484   4.296   3.511   3.435 -0.3473 -0.5303 -0.5037
  182fsi    SBT 1485   4.402   3.671   3.146  0.0680 -0.0594  0.5739
  182fsi    OBT 1486   4.388   3.803   3.199 -0.5282  0.4529  0.2686
  182fsi    OBT 1487   4.422   3.670   3.002 -0.0810  0.1143  0.2370
  182fsi    FSI 1488   4.537   3.614   3.205 -0.0702  0.6171  0.4489
  183fsi    FSI 1489   3.765   2.692   3.118  0.5217 -0.1231 -0.1759
  183fsi    SBT 1490   3.815   2.730   3.255  0.1672  0.6338 -0.1037
  183fsi    NBT 1491   3.801   2.590   3.324 -0.4348  0.0842  0.1929
  183fsi    OBT 1492   3.944   2.784   3.231 -0.4068 -0.0043  0.2872
  183fsi    OBT 1493   3.709   2.821   3.299 -0.6986  0.0880 -0.1971
  183fsi    SBT 1494   3.918   2.496   3.379  0.5316  0.2428 -0.2127
  183fsi    OBT 1495   4.049   2.529   3.336 -0.5186 -0.0885  0.1400
  183fsi    OBT 1496   3.881   2.356   3.387 -0.4667 -0.6526 -0.0818
  183fsi    FSI 1497   3.920   2.532   3.531 -0.0164  0.5498  0.0918
  184fsi    FSI 1498   4.714   3.095   2.367 -0.3558  0.0806  0.2753
  184fsi    SBT 1499   4.603   3.077   2.256 -0.0905  0.3571  0.1576
  184fsi    NBT 1500   4.543   2.939   2.298 -0.7248 -0.4390 -1.2397
  184fsi    OBT 1501   4.513   3.187   2.275 -0.2110  0.1022  0.3615
  184fsi    OBT 1502   4.686   3.075   2.136 -0.6806  0.3608  0.1585
  184fsi    SBT 1503   4.394   2.902   2.338 -0.1471 -0.2146  0.4013
  184fsi    OBT 1504   4.379   2.761   2.354 -0.1503 -0.3515  1.2398
  184fsi    OBT 1505   4.296   2.971   2.258  0.0652 -0.1152  0.6986
  184fsi    FSI 1506   4.374   2.949   2.485  0.5422  0.4176  0.5659
  185fsi    FSI 1507   2.625   1.478   2.890  0.1659 -0.3118 -0.2157
  185fsi    SBT 1508   2.579   1.618   2.813 -0.0316 -0.4159 -0.6309
  185fsi    NBT 1509   2.691   1.726   2.861 -0.0376  0.3655 -0.9030
  185fsi    OBT 1510   2.581   1.588   2.670  0.1589  0.6216 -0.3031
  185fsi    OBT 1511   2.447   1.644   2.863 -0.0394 -0.1912  0.4193
  185fsi    SBT 1512   2.676   1.853   2.960 -0.0308  0.2139 -0.1955
  185fsi    OBT 1513   2.540   1.900   2.972  0.7644  0.0460  0.1222
  185fsi    OBT 1514   2.778   1.949   2.936 -0.2110  0.1149 -0.1852
  185fsi    FSI 1515   2.708   1.801   3.109  0.1678 -0.3694  0.2254
  186fsi    FSI 1516   2.054   1.093   2.887 -0.3450  0.0458 -0.4921
  186fsi    SBT 1517   1.976   1.231   2.861  0.0068 -0.2489  0.2233
  186fsi    NBT 1518   2.063   1.341   2.937 -0.3146  0.0629 -0.1958
  186fsi    OBT 1519   1.977   1.235   2.716 -0.4242  0.2974  0.1166
  186fsi    OBT 1520   1.849   1.212   2.925 -0.4099 -0.2879  0.2321
  186fsi    SBT 1521   2.166   1.444   2.881 -0.1841  0.0341  0.1079
  186fsi    OBT 1522   2.162   1.569   2.947 -0.0934  0.7725 -0.7738
  186fsi    OBT 1523   2.188   1.441   2.736  0.2947 -0.2583 -0.2241
  186fsi    FSI 1524   2.302   1.377   2.928  0.0036 -0.0420  0.0582
  187fsi    FSI 1525   2.685   3.771   2.922 -0.2763  0.3217  0.3436
  187fsi    SBT 1526   2.584   3.877   2.906  0.0327 -0.0771 -0.3796
  187fsi    NBT 1527   2.611   3.920   2.762  0.0453  0.0268  0.6820
  187fsi    OBT 1528   2.462   3.806   2.923 -0.1667  0.2019 -0.0380
  187fsi    OBT 1529   2.624   3.975   3.000  0.3010 -0.6715  0.3151
  187fsi    SBT 1530   2.673   4.050   2.703  0.2299 -0.1369  0.3937
  187fsi    OBT 1531   2.640   4.170   2.776  0.6078  0.9630  0.0430
  187fsi    OBT 1532   2.672   4.046   2.563 -0.1691 -0.2993  0.5120
  187fsi    FSI 1533   2.823   4.029   2.737  0.0439  0.2967  0.3610
  188fsi    FSI 1534   2.939   4.399   3.094 -0.2083 -0.4544 -0.3745
  188fsi    SBT 1535   2.900   4.326   2.959  0.1892  0.0671 -0.1158
  188fsi    NBT 1536   2.884   4.177   3.006 -0.4659  0.3938  0.3315
  188fsi    OBT 1537   2.773   4.386   2.925 -0.6609 -0.4260 -0.4140
  188fsi    OBT 1538   3.019   4.349   2.874  0.2219 -0.2439 -0.3345
  188fsi    SBT 1539   2.978   4.069   3.072  0.3534 -0.2909 -0.3499
  188fsi    OBT 1540   2.902   3.997   3.166  0.9464  0.7885 -0.0716
  188fsi    OBT 1541   3.113   4.114   3.102  0.9215  0.2256  0.0501
  188fsi    FSI 1542   3.001   3.965   2.952  0.1269  0.9338 -0.4561
  189fsi    FSI 1543   3.629   3.611   3.226 -0.0425  0.2529  0.0047
  189fsi    SBT 1544   3.708   3.731   3.165 -0.1045  0.2878 -0.2404
  189fsi    NBT 1545   3.605   3.852   3.176 -0.1566 -0.3582  0.3638
  189fsi    OBT 1546   3.827   3.746   3.246 -0.2190  0.4312 -0.3687
  189fsi    OBT 1547   3.731   3.692   3.027 -0.0660  0.1384  0.2830
  189fsi    SBT 1548   3.516   3.905   3.057 -0.0006  0.1252  0.1105
  189fsi    OBT 1549   3.581   3.940   2.936  0.1804  0.4014 -0.3190
  189fsi    OBT 1550   3.417   3.997   3.107 -0.4238  0.2377 -0.1473
  189fsi    FSI 1551   3.438   3.776   3.033 -0.0225  0.0158  0.1672
  190fsi    FSI 1552   3.642   1.909   2.317 -0.2002 -0.3327  0.3052
  190fsi    SBT 1553   3.676   2.060   2.335 -0.0866 -0.1653  0.1458
  190fsi    NBT 1554   3.817   2.065   2.266  0.7905 -0.4034  0.0238
  190fsi    OBT 1555   3.576   2.123   2.255  0.1367  0.2241 -0.0794
  190fsi    OBT 1556   3.668   2.080   2.476  0.0525  0.8287  0.4718
  190fsi    SBT 1557   3.959   2.061   2.320 -0.4359 -0.1703  0.3144
  190fsi    OBT 1558   3.974   2.083   2.458  0.3159  0.6041 -0.2836
  190fsi    OBT 1559   4.052   2.133   2.235  0.0742 -0.1141 -0.4782
  190fsi    FSI 1560   3.994   1.911   2.290  0.5010 -0.1488 -0.6253
  191fsi    FSI 1561   4.502   2.707   3.156  0.2484  0.5051 -0.4252
  191fsi    SBT 1562   4.418   2.613   3.058 -0.0818 -0.7256 -0.0210
  191fsi    NBT 1563   4.382   2.705   2.939 -0.5987 -0.5626  0.6999
  191fsi    OBT 1564   4.518   2.518   3.020  0.3832 -0.4825 -0.0998
  191fsi    OBT 1565   4.307   2.575   3.146 -0.0215  0.1702 -0.4049
  191fsi    SBT 1566   4.291   2.830   2.941 -0.3346  0.3516 -0.0961
  191fsi    OBT 1567   4.190   2.821   3.038 -0.2933 -0.2568 -0.9877
  191fsi    OBT 1568   4.251   2.853   2.805 -0.5016 -0.6498  0.1565
  191fsi    FSI 1569   4.388   2.944   2.987 -0.4559 -0.0989  0.4319
  192fsi    FSI 1570   3.310   4.278   3.648  0.4610 -0.1094  0.2260
  192fsi    SBT 1571   3.347   4.127   3.629  0.0223 -0.4886 -0.1206
  192fsi    NBT 1572   3.211   4.052   3.654 -0.2200 -0.2939  0.0372
  192fsi    OBT 1573   3.396   4.120   3.501  0.1418 -0.6200 -1.0853
  192fsi    OBT 1574   3.439   4.106   3.733  0.4708  0.0430  0.3153
  192fsi    SBT 1575   3.136   4.020   3.785  0.2059  0.1183 -0.0177
  192fsi    OBT 1576   3.043   4.129   3.817 -0.2652  0.1191  0.0978
  192fsi    OBT 1577   3.218   3.965   3.892 -0.0962 -0.0520 -0.3392
  192fsi    FSI 1578   3.044   3.887   3.753 -0.5135 -0.3914  0.2415
  193fsi    FSI 1579   2.007   3.755   1.851 -1.0069  0.2982  0.5010
  193fsi    SBT 1580   2.106   3.764   1.989 -0.1104  0.0519 -0.2804
  193fsi    NBT 1581   2.029   3.676   2.094 -0.1006  0.0567  0.8112
  193fsi    OBT 1582   2.233   3.708   1.943 -0.1913 -0.5568  0.1083
  193fsi    OBT 1583   2.105   3.906   2.020  0.1044  0.2802 -0.0428
  193fsi    SBT 1584   2.007   3.694   2.249  0.2590 -0.2352 -0.2038
  193fsi    OBT 1585   2.045   3.821   2.303  0.0261 -0.2865  0.2916
  193fsi    OBT 1586   2.046   3.574   2.322 -0.0937 -0.3685  0.0633
  193fsi    FSI 1587   1.839   3.696   2.258 -0.3813 -0.1486  0.2980
  194fsi    FSI 1588   1.398   3.642   3.162 -0.3277 -0.1462 -0.4891
  194fsi    SBT 1589   1.530   3.648   3.081 -0.0505  0.3337 -0.0955
  194fsi    NBT 1590   1.477   3.588   2.945 -0.1394  0.8077  0.3845
  194fsi    OBT 1591   1.551   3.789   3.077  0.8932  0.5906  0.0312
  194fsi    OBT 1592   1.626   3.561   3.149 -0.3135 -0.3787  0.1068
  194fsi    SBT 1593   1.486   3.437   2.889  0.0307  0.2280  0.2298
  194fsi    OBT 1594   1.539   3.337   2.978 -0.2770 -1.0679  0.5869
  194fsi    OBT 1595   1.532   3.441   2.752  0.3523 -0.1237  0.0443
  194fsi    FSI 1596   1.327   3.393   2.874 -0.0850 -0.3215  0.1136
  195fsi    FSI 1597   3.127   3.094   3.359 -0.5472 -0.2483  0.2235
  195fsi    SBT 1598   2.983   3.081   3.333  0.3014  0.1168  0.1683
  195fsi    NBT 1599   2.963   2.943   3.405  0.5697  0.6036 -0.5102
  195fsi    OBT 1600   2.919   3.187   3.412 -0.4449  0.0630 -0.3181
  195fsi    OBT 1601   2.962   3.078   3.192 -0.1038 -0.0692  0.4230
  195fsi    SBT 1602   2.950   2.795   3.353  0.0344  0.0714  0.6064
  195fsi    OBT 1603   3.028   2.714   3.438  0.2783 -0.0618 -0.3618
  195fsi    OBT 1604   2.960   2.780   3.210 -0.0520 -0.6807  0.1171
  195fsi    FSI 1605   2.805   2.745   3.393  0.2699  0.2698  0.0256
  196fsi    FSI 1606   3.580   2.276   1.879  0.2216  0.1291  0.0703
  196fsi    SBT 1607   3.582   2.395   1.974  0.0638 -0.2074 -0.4033
  196fsi    NBT 1608   3.566   2.517   1.883 -0.1411 -0.0940  0.7344
  196fsi    OBT 1609   3.468   2.367   2.060 -0.2108  0.0016  0.2945
  196fsi    OBT 1610   3.713   2.377   2.033 -0.4341  0.0819 -0.1856
  196fsi    SBT 1611   3.428   2.587   1.832  0.6234 -0.3752 -0.2895
  196fsi    OBT 1612   3.449   2.719   1.782  0.2205 -0.0143  0.4595
  196fsi    OBT 1613   3.312   2.563   1.912 -0.8755  0.0706  0.5026
  196fsi    FSI 1614   3.388   2.501   1.705  0.0343  0.3975 -0.2826
  197fsi    FSI 1615   3.553   3.081   2.671  0.8927  0.7840  0.7642
  197fsi    SBT 1616   3.517   3.176   2.557  0.1195  0.1150  0.2282
  197fsi    NBT 1617   3.659   3.226   2.512  0.3185  0.4731  0.6298
  197fsi    OBT 1618   3.458   3.089   2.456 -0.1392 -0.1634  0.9010
  197fsi    OBT 1619   3.435   3.275   2.626 -0.2090  0.4263  0.2939
  197fsi    SBT 1620   3.771   3.297   2.597 -0.0807  0.0957  0.1923
  197fsi    OBT 1621   3.718   3.361   2.714  0.0808 -0.3951 -0.2830
  197fsi    OBT 1622   3.860   3.372   2.514  0.5375  0.1825 -0.0878
  197fsi    FSI 1623   3.858   3.179   2.659 -0.5405  0.2759 -0.1037
  198fsi    FSI 1624   2.138   4.422   3.357  0.2165 -0.0743  0.7538
  198fsi    SBT 1625   2.210   4.295   3.306 -0.2192  0.4715 -0.0835
  198fsi    NBT 1626   2.259   4.325   3.157  0.1229  0.2587 -0.4123
  198fsi    OBT 1627   2.315   4.262   3.393  0.4861 -0.4600 -0.2014
  198fsi    OBT 1628   2.103   4.200   3.301 -0.3149 -0.6045 -0.0110
  198fsi    SBT 1629   2.318   4.221   3.052  0.0071 -0.1004  0.4488
  198fsi    OBT 1630   2.318   4.088   3.101  0.4440  1.2516  0.1638
  198fsi    OBT 1631   2.441   4.259   2.989 -0.3372  0.2586 -0.0817
  198fsi    FSI 1632   2.203   4.225   2.935  0.1187  0.5380  0.0796
  199fsi    FSI 1633   4.344   1.513   2.988  0.6338  0.5420 -0.0376
  199fsi    SBT 1634   4.421   1.628   2.911  0.5436 -0.0020 -0.2184
  199fsi    NBT 1635   4.343   1.758   2.929  0.1757 -0.3516  0.1478
  199fsi    OBT 1636   4.542   1.628   2.991 -0.3221 -0.4627  0.4648
  199fsi    OBT 1637   4.428   1.580   2.772  0.1846 -0.3408 -0.8877
  199fsi    SBT 1638   4.221   1.808   2.840 -0.0992 -0.0608  0.6193
  199fsi    OBT 1639   4.189   1.728   2.719 -0.1936  0.0749  0.2522
  199fsi    OBT 1640   4.221   1.955   2.825 -0.3781  0.0026 -0.0884
  199fsi    FSI 1641   4.091   1.787   2.928  1.1533  0.5603  0.4745
  200fsi    FSI 1642   2.868   3.191   4.311 -0.6453  0.3153  0.0997
  200fsi    SBT 1643   2.889   3.287   4.185  0.2253  0.0106  0.1026
  200fsi    NBT 1644   2.959   3.417   4.255  0.2316  0.2356 -0.2572
  200fsi    OBT 1645   2.977   3.205   4.107  0.0586  0.2578  0.3348
  200fsi    OBT 1646   2.756   3.314   4.139 -0.4538  0.3807  0.6238
  200fsi    SBT 1647   3.105   3.426   4.306 -0.0436 -0.2598  0.1282
  200fsi    OBT 1648   3.152   3.564   4.295  0.3669  0.3788  0.0022
  200fsi    OBT 1649   3.194   3.324   4.262  0.3895  0.2942  0.3399
  200fsi    FSI 1650   3.098   3.400   4.462  0.0071  0.0401 -0.0606
   5.96390   5.96390   5.96390
