simbox
 2300
    1Li      Li    1   2.201   1.874   2.825 -1.3282 -0.4724 -0.0029
    2Li      Li    2   0.410   2.362   2.585  0.7172 -0.0875 -0.4986
    3Li      Li    3   1.937   0.623   0.045  0.2690 -0.5111 -0.2834
    4Li      Li    4   1.990   0.956   2.492 -0.2849  0.0821  0.3326
    5Li      Li    5   2.343   0.373   2.655  0.8381 -0.6203  0.0372
    6Li      Li    6   1.206   1.190   1.306  0.4695  0.8993  0.4718
    7Li      Li    7   1.610   0.763   0.456 -0.9229 -0.5508 -0.7704
    8Li      Li    8   1.560   0.078   0.681  0.9664 -0.2676 -0.0899
    9Li      Li    9   0.836   2.353   2.061  0.7081 -0.3049  0.7327
   10Li      Li   10   1.904   2.622   0.425 -0.7088 -0.0998  0.1213
   11Li      Li   11   2.064   0.689   1.529 -1.1340  1.8317  1.3101
   12Li      Li   12   2.232   1.360   2.360 -0.3445  0.0684  0.2353
   13Li      Li   13   0.873   0.162   1.578 -0.0404 -0.0881 -1.3804
   14Li      Li   14   1.931   0.932   0.918 -0.5048  0.1024  0.6974
   15Li      Li   15   1.158   0.246   2.291 -0.6427 -0.4397 -0.2726
   16Li      Li   16   2.097   2.774   2.183  0.8231 -0.9587  0.6801
   17Li      Li   17   0.621   0.698   2.462  0.6040  0.5183 -1.0435
   18Li      Li   18   2.241   2.337   2.382  0.6882 -0.2141 -0.8406
   19Li      Li   19   0.474   2.371   0.468  0.1299 -0.3688 -0.0996
   20Li      Li   20   2.232   0.501   0.721  0.0378 -0.3860  0.3506
   21Li      Li   21   3.004   0.628   2.674  0.2318  0.8941 -1.1728
   22Li      Li   22   2.059   2.981   2.897  1.3158 -0.6734  0.4559
   23Li      Li   23   2.319   0.310   1.810  0.1328  0.7643 -0.2019
   24Li      Li   24   2.363   2.559   2.948 -0.0899  0.0603  0.3536
   25Li      Li   25   0.665   2.309   1.149  0.8341  0.0079  0.3837
   26Li      Li   26   1.713   0.436   0.523 -0.5583  0.1324  0.0615
   27Li      Li   27   1.856   2.523   1.099  0.3325 -0.4469  0.7027
   28Li      Li   28   0.611   2.072   0.117 -0.2580 -0.4576  0.0152
   29Li      Li   29   0.762   0.518   2.111  0.4274 -0.6848 -0.4551
   30Li      Li   30   2.087   1.520   1.134  0.2852 -0.5586  0.2785
   31Li      Li   31   1.930   2.500   2.863 -0.0046  0.4480 -0.6724
   32Li      Li   32   0.312   0.915   2.930 -0.1428  0.0740 -0.1984
   33Li      Li   33   0.607   0.833   1.711  0.5180 -0.5284  1.5102
   34Li      Li   34   1.203   2.637   2.449 -0.2919 -0.3099 -0.0132
   35Li      Li   35   2.870   1.304   1.120 -0.0141  0.6960 -0.3195
   36Li      Li   36   2.974   0.258   1.900 -0.2963 -1.0966 -0.4118
   37Li      Li   37   0.251   2.582   0.880  0.1199  1.6276  0.8946
   38Li      Li   38   0.821   2.653   0.659  0.2143 -0.3422  1.5440
   39Li      Li   39   0.564   1.138   2.492  0.8762  0.2901  0.4638
   40Li      Li   40   0.288   0.447   0.129 -0.2417  0.3448  1.1229
   41Li      Li   41   1.664   2.948   2.569  0.3162  0.6927 -0.0643
   42Li      Li   42   0.385   0.251   2.154 -0.3851  0.5284  0.5151
   43Li      Li   43   0.843   0.541   1.254  0.1582 -0.1886 -0.1217
   44Li      Li   44   1.547   2.176   1.018 -0.0913  0.4352  0.1127
   45Li      Li   45   2.174   1.906   1.536 -0.5224 -0.5217  0.0486
   46Li      Li   46   2.062   0.256   0.164 -0.1267 -0.3365 -0.1188
   47Li      Li   47   0.559   0.020   1.040  0.4215 -0.1271  0.0447
   48Li      Li   48   0.788   1.077   1.121  0.8877 -0.7235 -0.1318
   49Li      Li   49   1.944   2.441   1.595  0.2149  0.3599  0.3314
   50Li      Li   50   2.351   2.316   1.211  0.4896 -0.2466 -0.6637
   51c3c      N   51   1.213   3.014   0.160  0.2504 -0.7898  0.1985
   51c3c     C1   52   1.300   2.973   0.048 -0.0798 -0.6060  0.1106
   51c3c     C2   53   1.151   2.885   0.191  0.2447  0.2341 -0.2102
   51c3c     C3   54   1.360   2.833   0.078  0.5457 -0.1642 -0.2746
   51c3c     C4   55   1.268   2.785   0.194  0.4332  0.0379 -0.1164
   51c3c     C5   56   1.288   3.062   0.278 -0.7444  0.7863 -0.3938
   51c3c     C6   57   1.104   3.117   0.140  0.5299 -0.3127  0.0834
   51c3c     H1   58   1.361   3.052   0.005 -2.0364  1.5498  1.1960
   51c3c     H2   59   1.228   2.962  -0.033 -0.9244  1.6984  0.5013
   51c3c     H3   60   1.093   2.893   0.283  1.0877  0.4300  0.3131
   51c3c     H4   61   1.083   2.854   0.113 -0.3798 -1.2173  0.9024
   51c3c     H5   62   1.468   2.839   0.096  0.8454  0.6275 -2.2094
   51c3c     H6   63   1.349   2.756   0.001  1.2184 -1.7720  1.1896
   51c3c     H7   64   1.328   2.779   0.285 -1.5466 -2.9740  1.0646
   51c3c     H8   65   1.229   2.687   0.165  0.1794 -0.2667  1.2369
   51c3c     H9   66   1.216   3.068   0.360 -0.1884 -0.2793  0.1855
   51c3c    H10   67   1.363   2.987   0.302  0.1941  2.5316  2.5097
   51c3c    H11   68   1.327   3.162   0.256  1.1850 -0.0749 -0.9831
   51c3c    H12   69   1.053   3.128   0.236  2.3574  4.2005  0.6697
   51c3c    H13   70   1.161   3.208   0.122  1.3907 -0.9507 -0.3965
   51c3c     C7   71   1.015   3.105   0.014  0.5786  0.7572 -0.3862
   51c3c    H14   72   0.945   3.026   0.040 -0.6750  1.5189 -1.3946
   51c3c    H15   73   1.076   3.070  -0.069  0.2298  1.9411 -1.1549
   51c3c     C8   74   0.946   3.241  -0.023  0.1623 -0.7998 -0.0913
   51c3c    H16   75   0.928   3.252  -0.130 -2.2791  1.2698  0.4772
   51c3c    H17   76   0.992   3.330   0.019  1.2692 -1.5704  0.3694
   51c3c    H18   77   0.848   3.238   0.024 -0.4377  0.4400 -1.2370
   52c3c      N   78   1.480   0.638   1.033  0.6751  0.4784  0.3883
   52c3c     C1   79   1.470   0.744   0.940 -0.1661 -0.3179 -0.0946
   52c3c     C2   80   1.350   0.563   1.020 -0.1916  0.1267  0.4255
   52c3c     C3   81   1.405   0.677   0.811  0.4413 -0.0999 -0.6012
   52c3c     C4   82   1.327   0.559   0.869  1.2085 -0.2286 -0.3576
   52c3c     C5   83   1.586   0.549   0.990 -0.6438  0.1674  0.2245
   52c3c     C6   84   1.509   0.678   1.174 -0.3126 -0.6414 -0.1720
   52c3c     H1   85   1.565   0.795   0.928  0.9816 -1.9400  1.6660
   52c3c     H2   86   1.391   0.805   0.984  1.2283  0.0277  1.9873
   52c3c     H3   87   1.360   0.464   1.063 -2.1855 -0.2389  0.0633
   52c3c     H4   88   1.268   0.610   1.075 -0.1233 -1.8754  2.2839
   52c3c     H5   89   1.477   0.638   0.739 -1.1245 -4.2244 -0.0395
   52c3c     H6   90   1.341   0.745   0.756  1.6709  1.0157 -0.6942
   52c3c     H7   91   1.354   0.466   0.820 -0.8647 -0.2964 -1.4144
   52c3c     H8   92   1.221   0.554   0.845  0.9591  2.5041 -0.0212
   52c3c     H9   93   1.685   0.596   0.992  0.0498 -0.9350 -3.9016
   52c3c    H10   94   1.592   0.454   1.043  2.3812  0.3701  0.3833
   52c3c    H11   95   1.579   0.518   0.886 -0.5422 -1.8865  0.8128
   52c3c    H12   96   1.527   0.590   1.237  1.7897  0.1729  0.4071
   52c3c    H13   97   1.602   0.735   1.172 -0.7712  0.1267  0.5085
   52c3c     C7   98   1.409   0.772   1.252 -0.3060 -0.4302  0.1466
   52c3c    H14   99   1.312   0.723   1.260  0.5593 -2.3958 -1.0217
   52c3c    H15  100   1.388   0.859   1.191 -2.1016 -0.5246  0.5935
   52c3c     C8  101   1.457   0.828   1.382  0.0919 -0.3317 -0.2222
   52c3c    H16  102   1.406   0.913   1.428  2.7676  0.3797  1.5418
   52c3c    H17  103   1.561   0.855   1.364  0.1714 -0.4193  0.0891
   52c3c    H18  104   1.481   0.752   1.457  0.8619  0.4100  0.3003
   53c3c      N  105   0.371   1.233   1.385 -0.4008 -0.0745 -0.3500
   53c3c     C1  106   0.271   1.299   1.298  0.1854 -0.0017  0.1370
   53c3c     C2  107   0.400   1.117   1.305  0.0075 -0.4573  0.8203
   53c3c     C3  108   0.321   1.288   1.154  0.0384  0.3677 -0.5922
   53c3c     C4  109   0.389   1.152   1.159  0.6645  0.2991 -0.0240
   53c3c     C5  110   0.494   1.321   1.398 -0.4879 -0.4096 -0.1216
   53c3c     C6  111   0.319   1.210   1.526 -0.5135  0.0019  0.9468
   53c3c     H1  112   0.262   1.403   1.332  0.3553 -0.2900  1.0671
   53c3c     H2  113   0.170   1.263   1.317 -0.8486  1.3702 -2.5079
   53c3c     H3  114   0.486   1.058   1.336  2.3250  2.5489  0.3367
   53c3c     H4  115   0.317   1.047   1.312  0.8660 -1.6470 -0.5722
   53c3c     H5  116   0.390   1.370   1.133  1.2245 -0.1646  1.1049
   53c3c     H6  117   0.248   1.291   1.073  1.0348 -0.5225 -1.5444
   53c3c     H7  118   0.489   1.168   1.118  1.3775  0.3163  1.6881
   53c3c     H8  119   0.329   1.084   1.098  0.2247 -0.3725  1.1575
   53c3c     H9  120   0.457   1.402   1.462 -0.4356 -1.4000  1.1893
   53c3c    H10  121   0.569   1.275   1.463 -1.4232  0.8720  1.9303
   53c3c    H11  122   0.545   1.363   1.311  3.3385 -0.1994  2.0913
   53c3c    H12  123   0.394   1.154   1.582 -1.8888 -2.4568  0.4267
   53c3c    H13  124   0.294   1.302   1.578  1.2120  0.7985  0.4054
   53c3c     C7  125   0.192   1.124   1.534 -0.3321 -0.6187  0.3593
   53c3c    H14  126   0.199   1.032   1.476  0.0503  0.9888 -2.2234
   53c3c    H15  127   0.107   1.159   1.476  0.8555  0.5125 -0.7586
   53c3c     C8  128   0.150   1.092   1.678  0.0931 -0.2201 -0.4346
   53c3c    H16  129   0.228   1.030   1.723  1.1738  0.5848 -1.1720
   53c3c    H17  130   0.056   1.037   1.675 -0.2156  0.2311  0.7461
   53c3c    H18  131   0.144   1.180   1.742  2.0789  1.4627 -2.4798
   54c3c      N  132   0.151   1.921   0.798 -0.1698  0.4469  0.3622
   54c3c     C1  133   0.247   2.027   0.780  0.1913  0.3775 -0.2426
   54c3c     C2  134   0.168   1.878   0.940 -0.2438 -0.3124 -0.4993
   54c3c     C3  135   0.370   1.998   0.868 -0.1845 -0.1838  0.6446
   54c3c     C4  136   0.319   1.906   0.975 -0.5127 -0.6994 -0.6862
   54c3c     C5  137   0.009   1.972   0.783 -0.6125 -0.3187 -0.0202
   54c3c     C6  138   0.167   1.802   0.707  0.3895 -0.6786 -0.2503
   54c3c     H1  139   0.218   2.123   0.823 -1.0623 -0.3414  0.5629
   54c3c     H2  140   0.271   2.055   0.678  1.3240  1.3629  0.2845
   54c3c     H3  141   0.107   1.939   1.007 -0.7640 -0.9387 -0.3945
   54c3c     H4  142   0.142   1.772   0.953  1.6281 -0.7428 -0.2275
   54c3c     H5  143   0.410   2.087   0.916  1.8798 -0.3473 -0.7187
   54c3c     H6  144   0.452   1.954   0.812 -2.6134 -0.6222 -2.7105
   54c3c     H7  145   0.327   1.946   1.076 -0.3740  2.4128 -1.8539
   54c3c     H8  146   0.369   1.810   0.976  0.0011 -0.4312 -0.6383
   54c3c     H9  147  -0.004   1.995   0.677 -0.4067  0.3666  0.0970
   54c3c    H10  148  -0.076   1.911   0.811 -1.0640 -0.1521 -1.0058
   54c3c    H11  149  -0.006   2.076   0.813 -2.2670 -0.3512 -0.6937
   54c3c    H12  150   0.082   1.734   0.708 -0.5842  0.5159 -0.8622
   54c3c    H13  151   0.175   1.857   0.613 -1.2521 -1.0931 -0.6491
   54c3c     C7  152   0.294   1.720   0.730 -0.3283 -0.0440  0.3370
   54c3c    H14  153   0.304   1.665   0.824 -1.6425 -0.4835  0.2316
   54c3c    H15  154   0.386   1.778   0.724 -1.1694  1.4346  1.4480
   54c3c     C8  155   0.308   1.611   0.620  0.6854 -0.4723  0.8727
   54c3c    H16  156   0.389   1.641   0.554 -0.9079  0.1646 -0.8588
   54c3c    H17  157   0.216   1.607   0.562  0.9541 -0.8194  0.4665
   54c3c    H18  158   0.340   1.520   0.670  0.3174 -1.4950 -0.7036
   55c3c      N  159   1.293   2.229   0.357  0.2083 -0.3896  0.7057
   55c3c     C1  160   1.404   2.144   0.322 -0.3969  0.0244  0.0072
   55c3c     C2  161   1.248   2.286   0.225  0.0452 -0.0993 -0.0737
   55c3c     C3  162   1.370   2.087   0.187 -0.5078 -0.0598 -0.2234
   55c3c     C4  163   1.286   2.182   0.117  0.2745 -0.2419  0.6381
   55c3c     C5  164   1.186   2.146   0.416 -0.5129 -0.1971 -0.3574
   55c3c     C6  165   1.328   2.336   0.460  0.0298  0.0284 -0.3461
   55c3c     H1  166   1.432   2.073   0.400  3.4209  0.9031 -0.4437
   55c3c     H2  167   1.492   2.206   0.306  0.1542 -0.9681 -0.8965
   55c3c     H3  168   1.141   2.305   0.228 -0.3024 -2.0908  2.0702
   55c3c     H4  169   1.297   2.380   0.200 -0.9112  1.1062  2.4347
   55c3c     H5  170   1.302   2.003   0.201  2.5595 -2.5541  0.3225
   55c3c     H6  171   1.459   2.075   0.125 -0.7858  2.3207 -1.1203
   55c3c     H7  172   1.202   2.131   0.072  0.4266 -0.3736  0.5058
   55c3c     H8  173   1.350   2.231   0.043  0.0558 -1.2125 -0.1932
   55c3c     H9  174   1.208   2.110   0.516  1.7869 -2.6688 -1.6675
   55c3c    H10  175   1.099   2.211   0.422  2.2219  3.7210 -0.8010
   55c3c    H11  176   1.158   2.066   0.347  0.6722  1.1605 -2.4698
   55c3c    H12  177   1.237   2.376   0.504 -1.1765 -0.2621 -2.5116
   55c3c    H13  178   1.378   2.280   0.539 -0.9560 -2.8007 -1.6671
   55c3c     C7  179   1.434   2.445   0.423 -0.0368  0.1290  0.5898
   55c3c    H14  180   1.395   2.520   0.355  0.7916 -0.5268 -0.6110
   55c3c    H15  181   1.524   2.405   0.377  0.2839  0.8106  0.6202
   55c3c     C8  182   1.487   2.524   0.542  0.6116 -0.0650  0.2621
   55c3c    H16  183   1.409   2.575   0.600 -0.4405 -0.1190 -1.0861
   55c3c    H17  184   1.546   2.606   0.502 -1.4711  1.1574 -0.4188
   55c3c    H18  185   1.557   2.471   0.607  1.5916  0.9728  0.0680
   56c3c      N  186   1.534   1.612   1.046  0.4671 -0.5312  0.0405
   56c3c     C1  187   1.387   1.637   1.045  0.2687  0.2353  0.0526
   56c3c     C2  188   1.542   1.506   1.146 -0.4111 -0.2527 -0.2688
   56c3c     C3  189   1.327   1.490   1.050 -0.3769 -0.1233 -0.5026
   56c3c     C4  190   1.433   1.405   1.123 -0.2014  0.2699  0.0065
   56c3c     C5  191   1.579   1.558   0.919  0.0010  0.5409 -0.4348
   56c3c     C6  192   1.617   1.724   1.081  0.3793 -0.2128  0.2221
   56c3c     H1  193   1.346   1.694   0.962  0.4218  1.9889  1.1687
   56c3c     H2  194   1.351   1.684   1.137 -3.5405 -1.9412 -0.2104
   56c3c     H3  195   1.643   1.467   1.144 -1.2331 -2.4470 -2.2586
   56c3c     H4  196   1.526   1.538   1.249 -1.2919  0.0702 -0.4946
   56c3c     H5  197   1.311   1.444   0.953  0.3528 -2.4523  0.4418
   56c3c     H6  198   1.235   1.491   1.108  1.2660  0.9933  2.2224
   56c3c     H7  199   1.470   1.329   1.054 -0.5530  0.6112 -0.5598
   56c3c     H8  200   1.383   1.366   1.211 -2.8811 -0.9032 -1.9823
   56c3c     H9  201   1.566   1.623   0.833  1.3566  1.4964  0.0729
   56c3c    H10  202   1.685   1.532   0.924  0.3573  1.8900 -0.7510
   56c3c    H11  203   1.521   1.467   0.903 -0.1439  0.7899 -1.3643
   56c3c    H12  204   1.718   1.683   1.077  0.4702  0.1228 -1.6364
   56c3c    H13  205   1.618   1.799   1.002  0.9606  0.7518  1.1276
   56c3c     C7  206   1.599   1.785   1.218 -0.3928 -0.2394 -0.0168
   56c3c    H14  207   1.589   1.709   1.295  0.5695  1.1030  1.4720
   56c3c    H15  208   1.509   1.845   1.225 -0.7875 -0.9293  0.9397
   56c3c     C8  209   1.714   1.875   1.260 -0.3889 -0.2034 -1.0684
   56c3c    H16  210   1.716   1.963   1.195 -0.3030 -0.0311 -0.8327
   56c3c    H17  211   1.807   1.820   1.273  0.1165  0.9809  0.4231
   56c3c    H18  212   1.695   1.919   1.358  1.3357 -0.2026 -0.7086
   57c3c      N  213   0.442   2.895   1.627  0.1115  0.2709 -0.3256
   57c3c     C1  214   0.558   2.822   1.678  0.6265 -0.5301 -0.5467
   57c3c     C2  215   0.365   2.924   1.748  0.0325 -0.0406  0.1814
   57c3c     C3  216   0.602   2.903   1.799  0.0650  0.1254  0.3698
   57c3c     C4  217   0.470   2.965   1.854 -0.7033 -0.5058  0.0196
   57c3c     C5  218   0.476   3.020   1.562 -0.4405  0.1201 -0.1760
   57c3c     C6  219   0.375   2.817   1.517 -0.3435  0.0874  0.1873
   57c3c     H1  220   0.640   2.820   1.606  1.1394  2.5087 -0.1140
   57c3c     H2  221   0.529   2.718   1.694 -1.3407  0.1407  0.3515
   57c3c     H3  222   0.299   3.008   1.727 -1.6647 -0.9726  1.5912
   57c3c     H4  223   0.321   2.833   1.789 -0.1062  0.1320  0.4155
   57c3c     H5  224   0.676   2.979   1.773  1.0316 -0.3813  1.5476
   57c3c     H6  225   0.651   2.842   1.875  0.5624 -3.4688 -2.6880
   57c3c     H7  226   0.481   3.073   1.856  0.0204 -0.5824  0.4062
   57c3c     H8  227   0.439   2.926   1.951  0.2284 -0.8792  0.1791
   57c3c     H9  228   0.531   2.982   1.476  1.0053 -1.3380  1.3299
   57c3c    H10  229   0.394   3.090   1.544 -1.7775 -1.7414 -1.4490
   57c3c    H11  230   0.547   3.081   1.619 -1.0830 -0.9236  1.7970
   57c3c    H12  231   0.305   2.886   1.470  1.5408  2.6301  1.0523
   57c3c    H13  232   0.449   2.791   1.441 -0.0710 -0.2973  0.5857
   57c3c     C7  233   0.303   2.690   1.557 -0.1007  0.3089 -0.0470
   57c3c    H14  234   0.225   2.714   1.630 -0.6212  0.4946 -0.6628
   57c3c    H15  235   0.377   2.623   1.601  0.0028  1.9822  2.4641
   57c3c     C8  236   0.241   2.624   1.435 -0.4005  0.0272  0.2851
   57c3c    H16  237   0.315   2.592   1.362  1.8230  1.4375  1.8701
   57c3c    H17  238   0.147   2.666   1.400 -0.5686  0.6366  1.4258
   57c3c    H18  239   0.206   2.525   1.465  0.2472  0.0375  1.0991
   58c3c      N  240   1.750   1.693   0.175 -0.5204  0.3050 -0.6047
   58c3c     C1  241   1.689   1.776   0.274  1.1254 -0.1951  0.3306
   58c3c     C2  242   1.837   1.783   0.099  0.2133  0.2055 -0.3342
   58c3c     C3  243   1.786   1.895   0.301  0.5191 -0.1206 -0.5967
   58c3c     C4  244   1.902   1.877   0.211 -0.2608 -0.0204 -0.2890
   58c3c     C5  245   1.818   1.585   0.244 -0.1986 -0.8585  0.2889
   58c3c     C6  246   1.648   1.625   0.085  0.5612 -0.2673 -0.5907
   58c3c     H1  247   1.651   1.728   0.364  0.0880  0.7857  0.4282
   58c3c     H2  248   1.598   1.811   0.225  0.2758  1.5906  3.0211
   58c3c     H3  249   1.904   1.731   0.030 -0.8532 -0.8514 -0.5886
   58c3c     H4  250   1.777   1.849   0.037 -0.5438 -0.0656  0.1067
   58c3c     H5  251   1.817   1.894   0.405  2.1870 -0.4084 -1.0856
   58c3c     H6  252   1.721   1.979   0.274  0.5305 -0.2265 -0.9608
   58c3c     H7  253   1.982   1.825   0.264 -1.6618 -1.4721  0.4642
   58c3c     H8  254   1.944   1.972   0.177 -0.0823 -0.9396 -2.7404
   58c3c     H9  255   1.740   1.530   0.296  0.5942 -1.8345  0.4588
   58c3c    H10  256   1.871   1.519   0.174  2.9118  0.2427  1.5307
   58c3c    H11  257   1.896   1.628   0.307 -0.0874 -0.0342 -0.4011
   58c3c    H12  258   1.697   1.540   0.037  1.0164 -0.2517 -0.1522
   58c3c    H13  259   1.569   1.589   0.150 -0.0049  2.0652  0.0651
   58c3c     C7  260   1.572   1.700  -0.029 -0.1216  0.4010 -0.2678
   58c3c    H14  261   1.643   1.734  -0.104  1.9079 -2.4261  0.2600
   58c3c    H15  262   1.513   1.771   0.029  1.5986 -1.2472  3.7423
   58c3c     C8  263   1.471   1.609  -0.108 -0.7388 -0.0291  0.3663
   58c3c    H16  264   1.511   1.534  -0.175 -0.1902 -1.4796  2.3005
   58c3c    H17  265   1.396   1.662  -0.168  0.2975  0.6731 -0.3232
   58c3c    H18  266   1.408   1.551  -0.040 -0.4074 -0.5937  0.1923
   59c3c      N  267   1.148   2.702   1.868  0.1529 -0.2292  0.5042
   59c3c     C1  268   1.086   2.785   1.974  0.0171  0.0287  0.5934
   59c3c     C2  269   1.033   2.624   1.827 -0.1229  0.4818  0.2995
   59c3c     C3  270   0.953   2.836   1.919  0.0564  0.2433  0.4693
   59c3c     C4  271   0.909   2.717   1.840 -0.8014  0.3248  0.5386
   59c3c     C5  272   1.199   2.774   1.754 -0.7727  0.0488 -0.0984
   59c3c     C6  273   1.245   2.612   1.919  0.2419 -0.2496  0.4197
   59c3c     H1  274   1.157   2.864   2.000  0.9072 -0.4755 -0.2745
   59c3c     H2  275   1.074   2.717   2.058  0.6655  0.5892  1.1453
   59c3c     H3  276   1.047   2.590   1.724 -2.6991 -0.6892  0.2984
   59c3c     H4  277   1.010   2.543   1.895  1.0069  0.3663  0.5475
   59c3c     H5  278   0.955   2.930   1.864 -1.0895 -0.9657 -1.6913
   59c3c     H6  279   0.889   2.854   2.005 -1.5842 -1.3679 -0.3812
   59c3c     H7  280   0.884   2.747   1.738  0.0768 -2.6536 -0.6230
   59c3c     H8  281   0.829   2.664   1.891 -0.7750  0.0718  0.3177
   59c3c     H9  282   1.235   2.706   1.677  2.1754  1.4958 -0.0510
   59c3c    H10  283   1.123   2.842   1.715 -2.9089 -1.7134  0.8410
   59c3c    H11  284   1.281   2.841   1.781 -0.0410 -1.2709  1.0366
   59c3c    H12  285   1.208   2.539   1.991 -3.6646  0.2527 -0.9598
   59c3c    H13  286   1.281   2.542   1.843  1.5154  1.0010 -0.1493
   59c3c     C7  287   1.379   2.681   1.975  0.1615 -0.2082 -0.4072
   59c3c    H14  288   1.354   2.765   2.040 -0.6089 -0.2987 -0.5770
   59c3c    H15  289   1.432   2.732   1.895 -0.8498  1.2379 -0.1831
   59c3c     C8  290   1.481   2.580   2.031  0.7958 -0.4766 -0.4239
   59c3c    H16  291   1.514   2.502   1.963  1.8184 -0.6988  0.3029
   59c3c    H17  292   1.447   2.540   2.127  0.9619  1.8511  0.6403
   59c3c    H18  293   1.576   2.633   2.043  0.9242 -0.7776 -0.0855
   60c3c      N  294   2.200   0.122   1.167  0.0256  0.6282 -0.3434
   60c3c     C1  295   2.069   0.057   1.166 -0.1774 -0.0207 -0.0273
   60c3c     C2  296   2.174   0.262   1.140  0.4061  0.2853  0.3452
   60c3c     C3  297   1.973   0.158   1.229 -0.1068 -0.1180 -0.1385
   60c3c     C4  298   2.040   0.294   1.213  0.9272 -0.3354 -0.7322
   60c3c     C5  299   2.255   0.116   1.303 -0.2570 -0.0001 -0.5099
   60c3c     C6  300   2.303   0.060   1.072  0.0884 -0.0461  0.3796
   60c3c     H1  301   2.059  -0.039   1.216  0.7907 -0.2175 -0.1995
   60c3c     H2  302   2.035   0.042   1.063 -0.7969  0.5591  0.0898
   60c3c     H3  303   2.249   0.338   1.167 -1.4262  2.1010  0.4472
   60c3c     H4  304   2.150   0.287   1.036  3.7436 -1.1593 -0.8405
   60c3c     H5  305   1.965   0.125   1.333 -3.7176 -0.2417 -0.4052
   60c3c     H6  306   1.874   0.155   1.184 -0.1582 -0.1383 -0.0257
   60c3c     H7  307   2.072   0.338   1.308 -0.7666 -0.2394 -0.1859
   60c3c     H8  308   1.976   0.373   1.174  1.4770  0.3728 -0.2247
   60c3c     H9  309   2.262   0.010   1.328  0.7367  0.5098  1.4920
   60c3c    H10  310   2.357   0.153   1.309 -0.5683  0.7257  0.4886
   60c3c    H11  311   2.196   0.171   1.377  1.2785  0.2522  0.5468
   60c3c    H12  312   2.405   0.090   1.093  0.0970  0.3547 -0.2105
   60c3c    H13  313   2.304  -0.046   1.100  1.7281 -0.0298  0.4024
   60c3c     C7  314   2.286   0.067   0.922 -0.2152 -0.6412  0.3205
   60c3c    H14  315   2.276   0.171   0.889 -0.1588 -0.3878  1.0976
   60c3c    H15  316   2.186   0.036   0.893 -0.0979 -0.6955 -0.0312
   60c3c     C8  317   2.400   0.006   0.838  0.6399 -0.1342  0.3139
   60c3c    H16  318   2.401  -0.103   0.849  1.0484 -0.0826  0.8093
   60c3c    H17  319   2.496   0.047   0.867  0.5513  1.4265 -1.5255
   60c3c    H18  320   2.388   0.040   0.735  3.0726 -3.7147 -1.2627
   61c3c      N  321   0.475   1.786   2.402 -0.7515  0.5903  0.1439
   61c3c     C1  322   0.397   1.704   2.310  0.0263  0.2466 -0.3478
   61c3c     C2  323   0.605   1.802   2.337  0.3591  0.2035  0.3578
   61c3c     C3  324   0.426   1.766   2.177 -0.0728  0.7120  0.5547
   61c3c     C4  325   0.574   1.805   2.185  0.2472  0.2201 -0.0523
   61c3c     C5  326   0.413   1.916   2.420 -0.4132  0.0296  0.0594
   61c3c     C6  327   0.487   1.731   2.536  0.0720 -0.1305  0.3721
   61c3c     H1  328   0.292   1.712   2.339 -0.4202  0.6501 -2.0540
   61c3c     H2  329   0.436   1.603   2.307  0.0944  0.1477  2.3962
   61c3c     H3  330   0.661   1.888   2.372 -2.8524  2.6379 -0.2935
   61c3c     H4  331   0.677   1.720   2.348 -0.8791 -1.2541 -1.9499
   61c3c     H5  332   0.358   1.848   2.152 -1.9426 -1.2027 -0.8057
   61c3c     H6  333   0.416   1.695   2.095  1.6550  2.4945 -1.2736
   61c3c     H7  334   0.582   1.910   2.156 -0.2172 -0.1204 -1.4420
   61c3c     H8  335   0.641   1.741   2.126 -1.1903 -0.7444 -0.6659
   61c3c     H9  336   0.334   1.908   2.495 -1.3072 -0.6488 -0.9479
   61c3c    H10  337   0.487   1.985   2.463 -0.4370 -0.0483  0.2265
   61c3c    H11  338   0.366   1.964   2.335 -0.8141  0.0646  0.2987
   61c3c    H12  339   0.557   1.794   2.591  1.5496  0.0705 -1.7108
   61c3c    H13  340   0.389   1.733   2.583  0.4723 -1.1451  1.2771
   61c3c     C7  341   0.549   1.589   2.543 -0.3743  0.0940  0.8293
   61c3c    H14  342   0.640   1.566   2.488 -2.0282  0.5779 -2.1719
   61c3c    H15  343   0.470   1.517   2.521  1.7208 -2.7287  2.1900
   61c3c     C8  344   0.596   1.562   2.687 -0.5222  0.0612  0.0900
   61c3c    H16  345   0.692   1.609   2.709 -0.2518 -0.1307 -0.6698
   61c3c    H17  346   0.604   1.454   2.700 -1.1117  0.4002  3.6089
   61c3c    H18  347   0.530   1.598   2.765  0.0018  0.4388  0.3583
   62c3c      N  348   2.196   1.150   1.700 -0.0316 -0.5599  0.2206
   62c3c     C1  349   2.148   1.289   1.742  0.0013 -0.3358 -0.2580
   62c3c     C2  350   2.339   1.154   1.690  0.4707  0.1865 -0.3762
   62c3c     C3  351   2.254   1.323   1.845  0.0867 -0.3457  0.5431
   62c3c     C4  352   2.383   1.274   1.778 -0.7582 -0.1220 -0.1767
   62c3c     C5  353   2.163   1.045   1.800 -0.4093  0.1985 -0.4080
   62c3c     C6  354   2.126   1.109   1.577 -0.2980  0.4587 -0.1191
   62c3c     H1  355   2.047   1.295   1.783 -0.3943  0.2420 -1.2907
   62c3c     H2  356   2.154   1.358   1.658  0.5594  1.4736  1.2601
   62c3c     H3  357   2.398   1.063   1.707  0.6139  0.9539  3.5592
   62c3c     H4  358   2.366   1.178   1.587 -0.0273 -0.4655 -0.6656
   62c3c     H5  359   2.231   1.281   1.943 -1.3309  1.2625  0.9376
   62c3c     H6  360   2.258   1.432   1.857  3.4174 -0.1729 -1.3932
   62c3c     H7  361   2.465   1.248   1.845 -0.0218  1.2402 -0.5396
   62c3c     H8  362   2.441   1.345   1.720  0.8620 -1.5105 -0.3037
   62c3c     H9  363   2.189   0.945   1.765  0.4724  0.2052  0.1909
   62c3c    H10  364   2.217   1.060   1.894 -1.2229  0.3261  0.0420
   62c3c    H11  365   2.060   1.033   1.831 -0.4259 -4.3999 -1.9923
   62c3c    H12  366   2.155   1.010   1.542 -0.7842  0.6035 -0.9318
   62c3c    H13  367   2.019   1.107   1.600 -0.9313 -0.1806 -2.9327
   62c3c     C7  368   2.146   1.192   1.452  0.4548  0.1532  0.4247
   62c3c    H14  369   2.224   1.153   1.385 -0.0128  3.4063 -2.1185
   62c3c    H15  370   2.145   1.300   1.462  2.6641  0.3947 -1.4246
   62c3c     C8  371   2.021   1.165   1.367 -0.4680 -0.1095 -1.0878
   62c3c    H16  372   2.037   1.199   1.264  0.9041 -0.0399 -0.8602
   62c3c    H17  373   1.927   1.210   1.398 -0.4596 -0.7437 -0.1479
   62c3c    H18  374   1.999   1.059   1.366 -0.2133 -0.1770  0.0222
   63c3c      N  375   1.375   1.838   2.473  0.6437 -0.3031  0.3241
   63c3c     C1  376   1.426   1.696   2.481  0.2225 -0.6719 -0.4566
   63c3c     C2  377   1.463   1.912   2.560  0.2184  0.5006  0.6904
   63c3c     C3  378   1.575   1.714   2.511 -0.3734 -0.6889 -0.4731
   63c3c     C4  379   1.607   1.860   2.540 -0.2896 -0.2363 -0.0789
   63c3c     C5  380   1.376   1.887   2.334  0.0455  0.2138 -0.0447
   63c3c     C6  381   1.234   1.864   2.517 -0.0060 -1.0074 -0.1449
   63c3c     H1  382   1.414   1.638   2.389  0.8639 -2.8526  0.7915
   63c3c     H2  383   1.366   1.651   2.560  0.6441 -1.2642 -0.4731
   63c3c     H3  384   1.470   2.019   2.541 -0.1096  0.2043 -1.3055
   63c3c     H4  385   1.439   1.910   2.666  2.4510  2.3101  1.2501
   63c3c     H5  386   1.638   1.674   2.431 -0.0030 -1.9218  0.4149
   63c3c     H6  387   1.591   1.654   2.601 -3.6498 -1.2593 -0.2258
   63c3c     H7  388   1.649   1.887   2.443  0.1792 -0.4759  0.0569
   63c3c     H8  389   1.673   1.873   2.626 -0.6181 -0.5373  0.2192
   63c3c     H9  390   1.328   1.815   2.267  0.0356  1.2155 -1.1357
   63c3c    H10  391   1.331   1.982   2.305 -1.5521 -0.4862  0.0503
   63c3c    H11  392   1.478   1.888   2.296 -0.5316  0.1043 -1.6253
   63c3c    H12  393   1.215   1.971   2.517  0.4229 -0.8523  4.2148
   63c3c    H13  394   1.168   1.808   2.451  0.3885 -2.0085  0.2998
   63c3c     C7  395   1.190   1.830   2.659  0.1885 -0.1414 -0.2971
   63c3c    H14  396   1.230   1.899   2.733 -1.8137  0.1411  0.5513
   63c3c    H15  397   1.220   1.731   2.692  2.0631  0.3190 -0.5381
   63c3c     C8  398   1.043   1.844   2.684  0.4331 -0.1536  0.5035
   63c3c    H16  399   1.017   1.802   2.781  0.7361  1.1243  1.1585
   63c3c    H17  400   0.982   1.794   2.610 -0.1134 -1.5770  1.8871
   63c3c    H18  401   1.021   1.951   2.687 -1.9493 -0.5451 -1.7768
   64c3c      N  402   2.583   1.987   2.270  0.0527 -0.2540  0.2083
   64c3c     C1  403   2.522   1.855   2.248 -0.8715 -0.2751 -0.3548
   64c3c     C2  404   2.531   2.021   2.401  0.7661  0.1262  0.4350
   64c3c     C3  405   2.509   1.789   2.379 -0.3311 -0.3433  0.0039
   64c3c     C4  406   2.530   1.896   2.481 -0.7879 -0.0706 -0.0683
   64c3c     C5  407   2.730   1.975   2.277  0.1132  1.3029  0.2961
   64c3c     C6  408   2.558   2.071   2.155  0.1156  0.6050  0.1385
   64c3c     H1  409   2.586   1.800   2.180  0.7312  1.6892 -0.4780
   64c3c     H2  410   2.422   1.861   2.205 -0.5751  0.3299 -0.9666
   64c3c     H3  411   2.593   2.096   2.449  1.4978 -0.2526  0.0816
   64c3c     H4  412   2.426   2.052   2.398  1.3752  2.1328 -2.5101
   64c3c     H5  413   2.590   1.717   2.393 -0.9514 -0.5494  2.7163
   64c3c     H6  414   2.411   1.745   2.396 -2.3332  3.4957 -0.9964
   64c3c     H7  415   2.631   1.897   2.520 -1.8701  0.6574  2.8137
   64c3c     H8  416   2.459   1.896   2.564 -0.7477  3.2908  0.0227
   64c3c     H9  417   2.773   1.951   2.179  0.6055  2.5871  0.1917
   64c3c    H10  418   2.764   2.075   2.305  1.0054  1.0296  0.2051
   64c3c    H11  419   2.773   1.908   2.352 -1.2458 -0.3404 -0.3801
   64c3c    H12  420   2.633   2.149   2.143 -0.7466  1.5094  0.5883
   64c3c    H13  421   2.564   2.006   2.068 -1.2693 -0.3088  0.7036
   64c3c     C7  422   2.418   2.129   2.140 -0.0520 -0.1822 -0.1594
   64c3c    H14  423   2.385   2.193   2.222 -0.9924 -0.4321 -0.3317
   64c3c    H15  424   2.341   2.052   2.136 -0.8611  0.5376  1.3039
   64c3c     C8  425   2.395   2.203   2.008 -0.2640 -0.1525  0.3311
   64c3c    H16  426   2.288   2.221   1.996 -0.4183 -1.3356 -0.0687
   64c3c    H17  427   2.428   2.138   1.927  1.4850  0.3285  0.6335
   64c3c    H18  428   2.456   2.294   2.005 -1.0038  0.3472  0.1509
   65c3c      N  429   2.677   1.921   1.242  0.4739  0.2240  0.0166
   65c3c     C1  430   2.687   1.783   1.277  0.6375  0.0168 -0.4246
   65c3c     C2  431   2.711   1.926   1.103  0.0231 -0.2710 -0.0585
   65c3c     C3  432   2.641   1.707   1.151  0.6808  0.9542 -0.7856
   65c3c     C4  433   2.632   1.810   1.035 -0.3324 -0.7775 -0.3490
   65c3c     C5  434   2.541   1.973   1.263 -0.1817  0.9861  0.5039
   65c3c     C6  435   2.769   2.006   1.319 -0.0719 -0.4827  0.1423
   65c3c     H1  436   2.636   1.777   1.374 -0.7478 -0.1045 -1.1424
   65c3c     H2  437   2.789   1.746   1.286  1.2128  1.3093 -1.6151
   65c3c     H3  438   2.685   2.023   1.059  0.1018 -0.3807 -0.3469
   65c3c     H4  439   2.816   1.910   1.080 -0.1970 -1.9943  0.1258
   65c3c     H5  440   2.542   1.667   1.168  1.9621 -1.0418  2.5173
   65c3c     H6  441   2.704   1.621   1.125  1.1585  2.1163 -3.6715
   65c3c     H7  442   2.526   1.829   1.016  0.3519  4.6275  0.5692
   65c3c     H8  443   2.672   1.758   0.948 -2.5261 -0.0684 -1.8169
   65c3c     H9  444   2.473   1.930   1.190 -0.0643  0.4050  0.7315
   65c3c    H10  445   2.505   1.958   1.364  1.5291  2.2742  1.3335
   65c3c    H11  446   2.531   2.079   1.242 -3.9861  0.0807 -2.8483
   65c3c    H12  447   2.762   2.108   1.279  2.1024 -0.3186  0.1053
   65c3c    H13  448   2.735   1.994   1.422  1.8113  0.9335  0.9547
   65c3c     C7  449   2.916   1.975   1.319  0.3037 -0.4389  0.3414
   65c3c    H14  450   2.952   1.989   1.217  0.8654 -0.7553  0.4920
   65c3c    H15  451   2.935   1.873   1.353 -1.6835 -0.9258  0.0272
   65c3c     C8  452   3.002   2.063   1.408 -0.5719 -0.0515  0.5722
   65c3c    H16  453   2.979   2.044   1.513 -0.5848 -0.6756  0.4584
   65c3c    H17  454   2.970   2.165   1.385 -2.8321 -1.5863 -3.6155
   65c3c    H18  455   3.105   2.048   1.375 -0.5164  0.6601  0.4106
   66c3c      N  456   1.267   2.544   1.248  0.0079  0.8011 -0.2240
   66c3c     C1  457   1.310   2.495   1.115  0.0900 -0.6735  0.3559
   66c3c     C2  458   1.173   2.652   1.215  0.2654 -0.4924 -0.1181
   66c3c     C3  459   1.186   2.502   1.026  0.9064  0.1695  0.4340
   66c3c     C4  460   1.102   2.615   1.083 -0.2710  0.3908 -1.1727
   66c3c     C5  461   1.191   2.448   1.324 -0.1599  0.0813  0.1210
   66c3c     C6  462   1.376   2.601   1.330  1.0679  0.1831  0.3452
   66c3c     H1  463   1.347   2.392   1.111  0.5062 -0.4676 -1.4182
   66c3c     H2  464   1.390   2.561   1.083  0.5961 -0.8901  1.1439
   66c3c     H3  465   1.118   2.677   1.306  1.2041  1.5726 -0.0844
   66c3c     H4  466   1.233   2.738   1.186  1.5987 -1.2226  0.4256
   66c3c     H5  467   1.127   2.410   1.025  0.9483  0.1424 -1.2490
   66c3c     H6  468   1.217   2.515   0.923 -0.3151  0.4439  0.0898
   66c3c     H7  469   1.004   2.576   1.113  1.4585 -4.0289 -0.8931
   66c3c     H8  470   1.086   2.702   1.020 -1.8537  0.7848 -0.2491
   66c3c     H9  471   1.246   2.355   1.338 -1.5366 -0.8400 -0.4224
   66c3c    H10  472   1.154   2.484   1.420  0.1863  1.3033 -0.1985
   66c3c    H11  473   1.102   2.418   1.268  1.3096 -1.5204 -1.3870
   66c3c    H12  474   1.342   2.642   1.425  2.8516  0.1087  1.0346
   66c3c    H13  475   1.438   2.512   1.338  1.4283  0.3089 -1.0343
   66c3c     C7  476   1.471   2.708   1.276 -0.6086  0.1467 -0.5868
   66c3c    H14  477   1.422   2.797   1.238  0.0014  0.9330  0.4484
   66c3c    H15  478   1.529   2.669   1.192 -1.6100 -1.3433 -0.6076
   66c3c     C8  479   1.588   2.750   1.369 -0.1202  0.1917  0.1025
   66c3c    H16  480   1.552   2.810   1.453  0.6784  0.2802  0.3790
   66c3c    H17  481   1.664   2.811   1.319  0.4136 -0.1302  0.5231
   66c3c    H18  482   1.637   2.662   1.409  0.8767  1.4221  1.6375
   67c3c      N  483   0.411   2.955   2.644  0.3210 -0.1818 -0.1783
   67c3c     C1  484   0.443   2.829   2.594 -0.0255  0.5225 -0.4214
   67c3c     C2  485   0.492   2.959   2.768 -0.0877 -0.2862  0.2776
   67c3c     C3  486   0.593   2.812   2.605  0.0480  0.8800 -0.5793
   67c3c     C4  487   0.626   2.906   2.719  0.8845  0.0515 -0.3304
   67c3c     C5  488   0.453   3.069   2.563 -0.2394  0.6203 -0.4053
   67c3c     C6  489   0.263   2.978   2.673  0.0737 -0.4671  0.1435
   67c3c     H1  490   0.394   2.808   2.499 -3.0500 -0.9349  1.3984
   67c3c     H2  491   0.401   2.752   2.659  2.2012  0.5635  1.1428
   67c3c     H3  492   0.502   3.059   2.809 -0.5832 -0.6975  1.4187
   67c3c     H4  493   0.452   2.900   2.850 -0.0037  2.2466  2.1895
   67c3c     H5  494   0.636   2.837   2.508 -0.8836  0.8633 -1.0055
   67c3c     H6  495   0.614   2.707   2.628  0.2951  1.2418  0.8382
   67c3c     H7  496   0.690   2.992   2.702  1.4305  0.1286  1.9843
   67c3c     H8  497   0.668   2.846   2.800 -0.2981 -2.2390 -1.3659
   67c3c     H9  498   0.401   3.051   2.469 -0.2410 -1.2833 -0.0744
   67c3c    H10  499   0.424   3.163   2.610  1.1020 -0.1519  2.1048
   67c3c    H11  500   0.560   3.069   2.540 -0.2630  0.5554 -0.5137
   67c3c    H12  501   0.237   3.073   2.719 -0.5527 -0.6312  0.1338
   67c3c    H13  502   0.222   2.978   2.572  0.3749 -1.6001  0.0055
   67c3c     C7  503   0.190   2.871   2.762  0.3336  0.0244 -0.5957
   67c3c    H14  504   0.227   2.889   2.863  1.3578  2.4962 -1.3754
   67c3c    H15  505   0.214   2.769   2.732 -1.6506 -0.4386 -0.6820
   67c3c     C8  506   0.043   2.873   2.754  0.3870 -0.3137  0.4192
   67c3c    H16  507   0.007   2.800   2.826 -2.8233 -0.0226 -0.8074
   67c3c    H17  508  -0.012   2.846   2.664 -1.6731  4.4772  0.0640
   67c3c    H18  509   0.010   2.973   2.783  2.3663 -0.0475  1.8220
   68c3c      N  510   2.984   2.356   1.865 -0.0713 -0.1342 -0.1345
   68c3c     C1  511   3.034   2.453   1.763 -0.0299 -0.4069 -0.2664
   68c3c     C2  512   3.025   2.412   1.996  0.3857  0.1822  0.6075
   68c3c     C3  513   3.011   2.592   1.832 -0.2912 -0.3000  0.1438
   68c3c     C4  514   3.001   2.561   1.977 -0.1717  0.3431  0.7740
   68c3c     C5  515   2.836   2.351   1.862 -1.0942 -0.4527  0.4637
   68c3c     C6  516   3.030   2.214   1.849 -0.6584  0.1935  0.8554
   68c3c     H1  517   2.976   2.434   1.672 -0.3486  0.2661 -0.2134
   68c3c     H2  518   3.140   2.432   1.752 -0.0399 -0.8373  0.4785
   68c3c     H3  519   2.976   2.377   2.086  2.2301 -0.9964  1.1962
   68c3c     H4  520   3.131   2.399   2.018  0.3849  0.5760  0.8384
   68c3c     H5  521   2.918   2.640   1.803  0.2383 -0.2622 -1.5711
   68c3c     H6  522   3.095   2.658   1.810  1.4883 -3.0598 -1.7043
   68c3c     H7  523   2.899   2.581   2.010  0.1212  1.3765  1.0643
   68c3c     H8  524   3.077   2.617   2.033 -0.1098 -0.0368  1.0712
   68c3c     H9  525   2.806   2.300   1.770 -0.7268  0.0773  0.0452
   68c3c    H10  526   2.793   2.290   1.941  2.1080 -0.8340  2.0124
   68c3c    H11  527   2.787   2.448   1.865 -0.7847 -0.2645 -0.5863
   68c3c    H12  528   2.980   2.149   1.921 -0.8645  0.7600  1.2263
   68c3c    H13  529   2.980   2.184   1.757  0.3117  0.4225  0.2474
   68c3c     C7  530   3.184   2.176   1.848 -0.1377  0.5360  0.1050
   68c3c    H14  531   3.236   2.207   1.938 -0.4882  0.9089  0.1822
   68c3c    H15  532   3.237   2.224   1.765  0.3027  0.5158  0.3753
   68c3c     C8  533   3.202   2.021   1.818 -0.3650 -0.4219 -0.5189
   68c3c    H16  534   3.144   1.980   1.736 -1.0585 -0.6382  0.0716
   68c3c    H17  535   3.189   1.964   1.910 -0.2147  0.3830  0.0045
   68c3c    H18  536   3.306   2.005   1.791  0.4793  1.6903  1.3227
   69c3c      N  537   2.368   2.028   0.308 -0.2936  0.2712 -0.2069
   69c3c     C1  538   2.394   2.127   0.415  0.2443  0.1597  0.1589
   69c3c     C2  539   2.287   1.925   0.362 -0.2669 -0.7098  0.5666
   69c3c     C3  540   2.258   2.133   0.485 -0.6928 -0.3037 -0.4845
   69c3c     C4  541   2.191   1.998   0.453 -0.3540 -0.2109 -0.0362
   69c3c     C5  542   2.293   2.102   0.205 -0.3034  0.2668  0.1953
   69c3c     C6  543   2.495   1.983   0.242  0.3879 -0.8254 -0.7379
   69c3c     H1  544   2.413   2.227   0.378 -1.1984 -0.2196 -1.6546
   69c3c     H2  545   2.465   2.099   0.493 -1.6754 -0.5726  1.7218
   69c3c     H3  546   2.253   1.851   0.290 -0.1287 -1.8827  1.6882
   69c3c     H4  547   2.342   1.856   0.426  0.6785 -0.7412 -0.2705
   69c3c     H5  548   2.202   2.215   0.441  0.8596  0.7188 -0.6180
   69c3c     H6  549   2.274   2.169   0.586 -1.1097  0.7877 -0.8061
   69c3c     H7  550   2.090   2.005   0.413 -0.2296  0.0210 -0.3090
   69c3c     H8  551   2.182   1.954   0.552 -3.0306  1.9120  0.7234
   69c3c     H9  552   2.282   2.049   0.110  1.6712  0.4126 -0.1561
   69c3c    H10  553   2.193   2.134   0.234  0.2310  3.1783 -0.9672
   69c3c    H11  554   2.337   2.196   0.170  1.5002 -0.3606  0.6941
   69c3c    H12  555   2.456   1.912   0.169 -1.8206  1.1058 -1.4803
   69c3c    H13  556   2.552   2.059   0.190 -1.0967 -0.5329 -1.9777
   69c3c     C7  557   2.608   1.921   0.332 -0.9491 -0.5583  0.0685
   69c3c    H14  558   2.569   1.847   0.402 -1.1914  0.2013  0.7509
   69c3c    H15  559   2.645   1.999   0.399 -1.3878  0.2225 -0.5881
   69c3c     C8  560   2.723   1.858   0.254  0.2089 -0.1788 -0.5454
   69c3c    H16  561   2.785   1.931   0.202  0.4759  0.2982  0.4311
   69c3c    H17  562   2.688   1.787   0.179  0.4538 -0.8088 -0.0730
   69c3c    H18  563   2.793   1.804   0.318 -0.0417 -0.2037 -0.2934
   70c3c      N  564   2.862   2.873   1.006 -0.4271  0.0617  1.0340
   70c3c     C1  565   2.720   2.852   1.034  0.4775 -0.3540  0.0247
   70c3c     C2  566   2.901   2.981   1.099 -0.3815 -0.2435 -0.5373
   70c3c     C3  567   2.698   2.875   1.181  0.5156  0.0767  0.0590
   70c3c     C4  568   2.817   2.959   1.225  0.5189  0.5558 -0.4867
   70c3c     C5  569   2.938   2.752   1.042 -0.0225 -0.0412  0.0914
   70c3c     C6  570   2.875   2.916   0.865  1.0319  0.0345  0.0155
   70c3c     H1  571   2.672   2.776   0.972 -1.6145  1.2460 -0.3487
   70c3c     H2  572   2.664   2.939   1.002 -2.4071 -1.5005  1.7530
   70c3c     H3  573   3.008   2.982   1.122 -0.3428 -0.1676 -0.7183
   70c3c     H4  574   2.871   3.078   1.059  0.0936 -0.1429 -0.6599
   70c3c     H5  575   2.691   2.780   1.235  2.6423 -1.0903 -1.6402
   70c3c     H6  576   2.601   2.923   1.191  0.5913  0.1319  0.5365
   70c3c     H7  577   2.879   2.908   1.299 -1.2130  0.7780  1.1375
   70c3c     H8  578   2.790   3.057   1.265 -0.6843  0.4039 -0.9051
   70c3c     H9  579   2.904   2.666   0.985 -2.1971  0.2695  0.8513
   70c3c    H10  580   3.046   2.758   1.030 -0.2060  1.6146 -0.8528
   70c3c    H11  581   2.926   2.728   1.148 -0.1984  0.8745  0.2835
   70c3c    H12  582   2.978   2.910   0.832  1.1634  0.4761  0.3401
   70c3c    H13  583   2.821   2.838   0.811  1.7472 -0.1853 -0.3845
   70c3c     C7  584   2.819   3.047   0.802  0.2586 -0.1656 -0.5720
   70c3c    H14  585   2.865   3.132   0.853 -1.3692 -0.1263  0.8907
   70c3c    H15  586   2.712   3.067   0.802  0.3696  0.4539 -0.3135
   70c3c     C8  587   2.863   3.070   0.658 -0.0827 -0.2556  0.2702
   70c3c    H16  588   2.796   3.020   0.589 -0.4514  2.2356 -1.2449
   70c3c    H17  589   2.966   3.045   0.632  0.1551  1.6508 -0.7170
   70c3c    H18  590   2.851   3.176   0.634 -1.3256 -0.7817 -1.4558
   71c3c      N  591   2.540   2.816   1.817  0.2690  0.5979  0.2222
   71c3c     C1  592   2.616   2.703   1.773 -0.2892 -0.0140 -0.3518
   71c3c     C2  593   2.397   2.774   1.810  0.1350  0.0202 -0.1925
   71c3c     C3  594   2.544   2.580   1.839  0.2156  0.2500  0.1654
   71c3c     C4  595   2.391   2.629   1.859 -0.4733 -0.3716  0.0581
   71c3c     C5  596   2.570   2.839   1.957  0.0821  0.7548 -0.2848
   71c3c     C6  597   2.571   2.954   1.760  0.0499 -0.0898 -0.4146
   71c3c     H1  598   2.722   2.716   1.794 -0.4957 -0.4542  0.9956
   71c3c     H2  599   2.601   2.690   1.666 -2.2391  1.7789 -0.3217
   71c3c     H3  600   2.336   2.819   1.888 -0.4170 -0.4299 -0.3641
   71c3c     H4  601   2.352   2.788   1.712 -0.0051  1.1522  0.0333
   71c3c     H5  602   2.591   2.555   1.934 -0.5669  0.5650  0.6327
   71c3c     H6  603   2.546   2.494   1.771  2.5619  0.6158 -0.2825
   71c3c     H7  604   2.354   2.615   1.961 -0.6985 -0.0370  0.0227
   71c3c     H8  605   2.329   2.576   1.788  0.7618  0.4447 -1.6676
   71c3c     H9  606   2.669   2.880   1.977 -0.1574 -0.2780  3.2723
   71c3c    H10  607   2.500   2.910   2.000 -0.7686 -0.1721 -0.1262
   71c3c    H11  608   2.586   2.757   2.027  1.1199  1.6574  0.5663
   71c3c    H12  609   2.501   3.026   1.801  0.2720  0.4400 -0.9570
   71c3c    H13  610   2.672   2.980   1.791 -0.0930 -0.9223  0.8084
   71c3c     C7  611   2.548   2.957   1.607 -0.1011  0.6061  0.6741
   71c3c    H14  612   2.449   2.927   1.573 -0.0849  1.7963 -0.4426
   71c3c    H15  613   2.606   2.876   1.565 -2.3590 -0.8221  0.2286
   71c3c     C8  614   2.581   3.086   1.546 -0.3179  0.1432 -0.4976
   71c3c    H16  615   2.574   3.174   1.609 -0.4222 -0.3846  0.2351
   71c3c    H17  616   2.533   3.098   1.449 -1.0726  0.3593 -0.1028
   71c3c    H18  617   2.687   3.080   1.518  0.2867 -2.1052  2.0670
   72c3c      N  618   0.800   0.739   0.134 -0.4965 -0.7943 -0.0104
   72c3c     C1  619   0.673   0.668   0.170 -0.0851  0.0347 -0.3429
   72c3c     C2  620   0.903   0.677   0.218  0.5894 -0.1435  0.7634
   72c3c     C3  621   0.704   0.524   0.177  0.2364 -0.2923 -0.2911
   72c3c     C4  622   0.854   0.527   0.219 -0.2468 -1.0553  0.1397
   72c3c     C5  623   0.821   0.720  -0.009  0.2242  0.5625 -0.3337
   72c3c     C6  624   0.783   0.884   0.149 -0.2328 -0.1422 -0.9223
   72c3c     H1  625   0.590   0.684   0.100 -0.3169 -0.8684 -0.2816
   72c3c     H2  626   0.637   0.701   0.267 -0.6608 -0.0126 -0.5339
   72c3c     H3  627   1.007   0.678   0.188  0.9162 -1.0241  1.8401
   72c3c     H4  628   0.888   0.720   0.317  0.8574 -1.0134  1.1814
   72c3c     H5  629   0.706   0.474   0.080 -1.6731  1.5245 -1.3233
   72c3c     H6  630   0.648   0.469   0.253  0.4849  1.5253  1.2380
   72c3c     H7  631   0.899   0.449   0.157  2.2844  0.0936  0.4626
   72c3c     H8  632   0.865   0.487   0.320 -0.9239  1.5651  1.2958
   72c3c     H9  633   0.733   0.735  -0.071  0.5708 -0.6287 -1.1371
   72c3c    H10  634   0.900   0.781  -0.054 -1.1476  1.2870 -1.8047
   72c3c    H11  635   0.846   0.618  -0.038  1.7565  0.4462  1.3464
   72c3c    H12  636   0.868   0.945   0.116 -0.5836  1.5164  1.1433
   72c3c    H13  637   0.707   0.909   0.076  1.0597  0.1329 -2.1995
   72c3c     C7  638   0.725   0.943   0.277  0.1144  0.6577 -0.0044
   72c3c    H14  639   0.789   0.907   0.357  2.3456  2.8996 -0.6855
   72c3c    H15  640   0.623   0.905   0.274  0.9851 -1.7543 -0.3224
   72c3c     C8  641   0.746   1.094   0.284  0.3156  0.6827 -0.3911
   72c3c    H16  642   0.850   1.122   0.267  0.3133 -0.3864 -2.2975
   72c3c    H17  643   0.709   1.130   0.380 -2.1184 -1.3416 -0.5135
   72c3c    H18  644   0.686   1.141   0.206 -1.6398 -0.0521  0.6268
   73c3c      N  645   2.062   1.214   2.940 -0.0355 -0.0760  0.2398
   73c3c     C1  646   1.951   1.284   3.013 -0.5557  0.7106  0.1650
   73c3c     C2  647   2.003   1.085   2.902 -0.2352 -0.3915  0.1948
   73c3c     C3  648   1.832   1.252   2.921  0.3761  0.2081  0.2068
   73c3c     C4  649   1.867   1.127   2.851  0.5717 -0.1247 -0.0553
   73c3c     C5  650   2.105   1.281   2.813  0.5745  0.3234 -0.6851
   73c3c     C6  651   2.180   1.187   3.025 -0.4512 -0.2080  0.1479
   73c3c     H1  652   1.959   1.389   3.042 -0.4890  0.3331  1.5667
   73c3c     H2  653   1.927   1.229   3.105  1.6819  0.9560  0.9246
   73c3c     H3  654   2.056   1.039   2.819  0.5797  2.2732 -0.8069
   73c3c     H4  655   1.999   1.024   2.993  0.4016 -0.8481 -0.0797
   73c3c     H5  656   1.820   1.334   2.850 -1.2851  2.0575  2.4943
   73c3c     H6  657   1.737   1.253   2.974  0.7355 -1.8951  0.9396
   73c3c     H7  658   1.858   1.145   2.744  0.8332  1.7203  0.2225
   73c3c     H8  659   1.791   1.052   2.875  1.0002 -0.3856  0.5061
   73c3c     H9  660   2.190   1.227   2.771  0.7469 -0.7162  0.9709
   73c3c    H10  661   2.033   1.278   2.731  1.1858 -1.6646 -1.1571
   73c3c    H11  662   2.131   1.387   2.816  0.3041  0.3867 -0.6314
   73c3c    H12  663   2.250   1.126   2.968 -0.4083  0.0384 -0.0626
   73c3c    H13  664   2.231   1.282   3.048 -0.7549 -0.0674  0.2423
   73c3c     C7  665   2.173   1.120   3.168 -0.2219 -0.1267  0.0027
   73c3c    H14  666   2.136   1.017   3.160 -1.3101  0.2738 -0.2959
   73c3c    H15  667   2.091   1.164   3.225 -0.4449 -1.1694  0.5047
   73c3c     C8  668   2.300   1.100   3.238  0.0196  0.6513 -0.2872
   73c3c    H16  669   2.379   1.042   3.190  0.2872  1.1215 -0.4215
   73c3c    H17  670   2.281   1.067   3.340 -0.6992  0.3860 -0.5033
   73c3c    H18  671   2.352   1.196   3.245 -1.1872  1.1368  2.7083
   74c3c      N  672   0.597   1.888   1.547 -0.2083  0.2068  0.1782
   74c3c     C1  673   0.593   1.744   1.523  0.1810 -0.9348  0.3150
   74c3c     C2  674   0.693   1.952   1.454  0.3459 -0.0016 -0.5480
   74c3c     C3  675   0.598   1.741   1.372  0.2840 -0.5109  0.1381
   74c3c     C4  676   0.693   1.854   1.327 -1.0352 -0.3198  0.5547
   74c3c     C5  677   0.464   1.940   1.524  0.6097  0.0065  0.0868
   74c3c     C6  678   0.635   1.917   1.685 -0.2842  0.3407 -0.3295
   74c3c     H1  679   0.495   1.707   1.552 -0.8347  1.2818 -0.1213
   74c3c     H2  680   0.668   1.678   1.564  0.6252 -0.0133  1.0049
   74c3c     H3  681   0.673   2.054   1.420  2.8480  0.7045 -0.0244
   74c3c     H4  682   0.794   1.957   1.493  1.0977 -1.1877 -2.2727
   74c3c     H5  683   0.499   1.744   1.325 -0.2559 -0.3527  1.2754
   74c3c     H6  684   0.642   1.648   1.336  0.2082  0.2419 -1.9631
   74c3c     H7  685   0.665   1.905   1.235  0.3337  0.8524  0.7633
   74c3c     H8  686   0.789   1.809   1.301 -1.2024 -0.2417 -0.2005
   74c3c     H9  687   0.395   1.904   1.601  1.1224  0.6423  0.8623
   74c3c    H10  688   0.458   2.049   1.525 -1.2069 -0.0398 -2.3395
   74c3c    H11  689   0.427   1.916   1.425 -2.5216  1.5529  0.8153
   74c3c    H12  690   0.640   2.025   1.698 -1.6161  0.1412  2.3762
   74c3c    H13  691   0.556   1.886   1.754  0.0835  0.3453  0.0913
   74c3c     C7  692   0.772   1.864   1.726 -0.3374  0.0100  0.4731
   74c3c    H14  693   0.857   1.890   1.663  1.5368 -1.2129  2.4407
   74c3c    H15  694   0.772   1.755   1.731 -1.5841 -0.0162 -0.0564
   74c3c     C8  695   0.806   1.920   1.862  0.1083 -0.6788  0.3028
   74c3c    H16  696   0.810   2.029   1.868  0.5529 -0.8152  2.8981
   74c3c    H17  697   0.905   1.884   1.891  0.2612 -0.1522  0.4349
   74c3c    H18  698   0.737   1.890   1.941 -0.5774 -2.0394 -0.7798
   75c3c      N  699   1.858   0.446   2.300  0.6176 -0.0727  0.1983
   75c3c     C1  700   1.742   0.474   2.219 -0.3126 -0.4387 -0.0008
   75c3c     C2  701   1.822   0.500   2.428 -0.0980 -0.2379 -0.3036
   75c3c     C3  702   1.618   0.443   2.309  0.0403 -1.1034 -0.7604
   75c3c     C4  703   1.674   0.488   2.445  1.3454 -0.9318  0.5947
   75c3c     C5  704   1.887   0.299   2.315  0.1615  0.1481 -0.4310
   75c3c     C6  705   1.980   0.497   2.241 -0.1764  0.1316  0.2210
   75c3c     H1  706   1.742   0.407   2.133  1.8836 -1.2780  0.6283
   75c3c     H2  707   1.727   0.580   2.198  1.9812  0.4945  2.7962
   75c3c     H3  708   1.894   0.456   2.498  1.1952 -1.1565 -2.1774
   75c3c     H4  709   1.850   0.605   2.420  3.1471 -1.1806 -2.0537
   75c3c     H5  710   1.606   0.335   2.302  1.6198 -1.2530 -1.3776
   75c3c     H6  711   1.522   0.482   2.275  0.5894  2.9793  1.9885
   75c3c     H7  712   1.644   0.424   2.529  1.3531  1.5408  2.5327
   75c3c     H8  713   1.613   0.577   2.464  2.6132  0.1181 -0.2058
   75c3c     H9  714   1.807   0.254   2.373  1.2125 -1.7972 -0.4421
   75c3c    H10  715   1.897   0.239   2.225  1.0743 -0.6523  0.1927
   75c3c    H11  716   1.981   0.289   2.369  1.0216  1.1984 -1.6895
   75c3c    H12  717   2.063   0.498   2.311  1.7450 -0.7221 -1.9835
   75c3c    H13  718   2.008   0.430   2.160 -0.1427  0.1704  0.2008
   75c3c     C7  719   1.981   0.639   2.180  0.8957  0.0109  0.2153
   75c3c    H14  720   1.952   0.709   2.259  0.6376  2.2264 -1.7780
   75c3c    H15  721   1.911   0.655   2.098  1.1387 -0.1034 -0.0118
   75c3c     C8  722   2.120   0.688   2.129  0.0006  0.5470 -0.5076
   75c3c    H16  723   2.113   0.780   2.071 -0.3166  1.2553  0.6533
   75c3c    H17  724   2.177   0.612   2.075  0.4953  0.2128  0.4821
   75c3c    H18  725   2.176   0.710   2.220  1.2837 -0.4458 -1.0372
   76c3c      N  726   2.649   1.336   2.716  0.3627  0.6796 -0.5630
   76c3c     C1  727   2.738   1.400   2.812  0.5677 -0.4044  0.5006
   76c3c     C2  728   2.521   1.405   2.726  0.3765 -0.0652  1.0086
   76c3c     C3  729   2.707   1.552   2.796  0.1921  0.0865 -0.3693
   76c3c     C4  730   2.558   1.551   2.766  1.0474  0.1453  0.0751
   76c3c     C5  731   2.702   1.353   2.585 -0.2794 -0.7875  0.1162
   76c3c     C6  732   2.636   1.190   2.737  0.2148  0.3826  0.3294
   76c3c     H1  733   2.847   1.397   2.808  0.6590  1.5152  0.7436
   76c3c     H2  734   2.706   1.371   2.912  1.9358  0.5099  1.2225
   76c3c     H3  735   2.473   1.416   2.628  1.5501 -2.3678  0.1577
   76c3c     H4  736   2.443   1.369   2.793 -2.2481  0.7221 -1.4952
   76c3c     H5  737   2.755   1.600   2.711 -1.2628  0.9465 -0.7334
   76c3c     H6  738   2.719   1.614   2.885 -0.9806 -1.5739  0.9765
   76c3c     H7  739   2.544   1.614   2.678  1.9921  0.6642  0.2844
   76c3c     H8  740   2.495   1.598   2.841  1.2838  2.5216 -1.1511
   76c3c     H9  741   2.807   1.324   2.584 -0.6959 -2.6023  2.5727
   76c3c    H10  742   2.636   1.300   2.516 -2.5138  1.9298  0.0674
   76c3c    H11  743   2.703   1.458   2.556  1.6983 -0.8019  0.1091
   76c3c    H12  744   2.568   1.145   2.664  0.3699 -0.6248  0.7971
   76c3c    H13  745   2.735   1.147   2.717  0.3208 -0.6724  2.9850
   76c3c     C7  746   2.603   1.132   2.873 -0.1502 -0.1867 -0.3986
   76c3c    H14  747   2.523   1.187   2.922 -1.0797 -2.9985  1.3819
   76c3c    H15  748   2.686   1.144   2.942 -0.5175  2.6134 -0.3674
   76c3c     C8  749   2.578   0.982   2.866  0.1313  0.1376  0.5942
   76c3c    H16  750   2.639   0.938   2.787  1.0879  2.7206 -0.1630
   76c3c    H17  751   2.472   0.963   2.846 -0.2302  1.4931  1.1884
   76c3c    H18  752   2.581   0.940   2.966 -0.5835 -2.1695 -0.3158
   77c3c      N  753   1.951   1.701   2.034  0.0597  0.1995 -0.0774
   77c3c     C1  754   2.004   1.737   2.167  0.3272  0.0163  0.7529
   77c3c     C2  755   1.929   1.828   1.962 -0.0852 -0.3442 -0.4798
   77c3c     C3  756   2.090   1.860   2.141 -0.3673 -0.1920 -0.3677
   77c3c     C4  757   2.046   1.918   2.004 -0.2639  0.2012 -0.1159
   77c3c     C5  758   2.041   1.617   1.956  0.2065  0.7804  0.1547
   77c3c     C6  759   1.826   1.616   2.038 -0.0186 -0.1496  0.3565
   77c3c     H1  760   2.072   1.668   2.216  0.0072  0.1210  1.3509
   77c3c     H2  761   1.928   1.769   2.239 -1.1410 -1.1592 -0.2308
   77c3c     H3  762   1.937   1.820   1.854  3.1289 -1.2052 -0.2381
   77c3c     H4  763   1.838   1.881   1.991 -0.4221 -2.4902  2.5917
   77c3c     H5  764   2.195   1.833   2.139 -0.4206 -0.3208 -1.6296
   77c3c     H6  765   2.078   1.930   2.223  1.2734 -1.3426  0.8922
   77c3c     H7  766   2.129   1.913   1.934  0.6151 -1.5317  0.9917
   77c3c     H8  767   2.027   2.024   2.021 -2.0806 -0.3433  1.3588
   77c3c     H9  768   2.006   1.584   1.858 -4.0802  1.1414  1.4458
   77c3c    H10  769   2.141   1.656   1.942  1.7250 -1.6938  3.2734
   77c3c    H11  770   2.080   1.538   2.021  1.4433  1.4751  0.2664
   77c3c    H12  771   1.791   1.604   1.935  0.2241 -1.1974  0.3890
   77c3c    H13  772   1.852   1.518   2.076  1.1168  0.1297  0.3130
   77c3c     C7  773   1.710   1.668   2.128 -0.2690 -0.3674  0.0998
   77c3c    H14  774   1.680   1.768   2.097 -0.6973 -0.9008 -1.2554
   77c3c    H15  775   1.739   1.698   2.229 -2.2504  0.6126  0.3969
   77c3c     C8  776   1.592   1.574   2.149 -0.1601 -0.2395 -0.4953
   77c3c    H16  777   1.504   1.624   2.190  1.5214  0.0418  2.9721
   77c3c    H17  778   1.618   1.498   2.223 -0.9927  0.1893  0.2545
   77c3c    H18  779   1.558   1.527   2.056 -1.8329 -0.6167  0.2814
   78c3c      N  780   2.711   0.490   0.307  0.2126 -0.4869 -0.1961
   78c3c     C1  781   2.683   0.630   0.344  0.0275  0.1339  0.7366
   78c3c     C2  782   2.843   0.476   0.376  0.3789 -0.4477  0.0070
   78c3c     C3  783   2.727   0.653   0.486 -0.2988  0.5494 -0.9343
   78c3c     C4  784   2.840   0.553   0.501 -0.6438  0.0204  0.4060
   78c3c     C5  785   2.620   0.390   0.366  0.2353 -0.1234 -0.4711
   78c3c     C6  786   2.721   0.483   0.163 -0.2718  0.0371  0.1585
   78c3c     H1  787   2.578   0.648   0.321  1.1557  3.0152 -2.7215
   78c3c     H2  788   2.741   0.704   0.288 -1.0845  1.3294  1.1354
   78c3c     H3  789   2.880   0.374   0.392  1.2574 -0.1009  0.2116
   78c3c     H4  790   2.919   0.520   0.313  0.7192  1.4096  1.6523
   78c3c     H5  791   2.640   0.630   0.547  0.6738  0.3069  0.3949
   78c3c     H6  792   2.767   0.753   0.501  0.1655  0.1172  0.8041
   78c3c     H7  793   2.815   0.487   0.584 -1.1798  0.3544  0.5073
   78c3c     H8  794   2.936   0.604   0.517 -1.1491  1.8654 -2.1715
   78c3c     H9  795   2.528   0.390   0.307  1.2053  0.2101 -2.0155
   78c3c    H10  796   2.665   0.291   0.369  0.1136 -0.1707 -0.1443
   78c3c    H11  797   2.588   0.392   0.470  0.8127  2.1602 -0.3292
   78c3c    H12  798   2.619   0.498   0.129 -0.4092 -0.7239  0.2251
   78c3c    H13  799   2.780   0.560   0.113  0.4743 -1.1465 -0.8013
   78c3c     C7  800   2.773   0.338   0.118  0.3661 -0.1494  0.2226
   78c3c    H14  801   2.693   0.270   0.148 -1.9781  1.8091 -1.3799
   78c3c    H15  802   2.862   0.304   0.172  0.9470  1.2944  0.2015
   78c3c     C8  803   2.811   0.343  -0.031  0.8480  0.1713  0.3846
   78c3c    H16  804   2.892   0.412  -0.054  0.5023  0.5418  0.2711
   78c3c    H17  805   2.727   0.359  -0.099 -0.1062  0.3596  1.5890
   78c3c    H18  806   2.842   0.244  -0.063 -1.3467 -1.1966  2.2916
   79c3c      N  807   1.128   1.303   1.873  0.3465 -0.3754  0.5342
   79c3c     C1  808   1.133   1.451   1.843  0.1901 -0.3268  0.2430
   79c3c     C2  809   1.008   1.288   1.952 -0.4161  0.4555 -0.1296
   79c3c     C3  810   0.976   1.488   1.828 -0.7906  0.6452  0.4258
   79c3c     C4  811   0.898   1.380   1.904 -0.1521  0.1845 -0.5764
   79c3c     C5  812   1.107   1.228   1.748  0.1121 -0.3164  0.2397
   79c3c     C6  813   1.251   1.252   1.940 -1.1212 -0.8594  0.2214
   79c3c     H1  814   1.203   1.475   1.764 -1.5954 -1.1240 -1.6317
   79c3c     H2  815   1.156   1.497   1.939  0.6229 -2.3277  1.1216
   79c3c     H3  816   0.970   1.187   1.968 -2.6077  1.4230  1.0004
   79c3c     H4  817   1.037   1.310   2.054  0.5513 -1.6681  0.0850
   79c3c     H5  818   0.954   1.477   1.722  0.9757 -1.7478  0.2377
   79c3c     H6  819   0.961   1.591   1.857 -0.9658  0.3198  1.5049
   79c3c     H7  820   0.832   1.330   1.833  0.1756  0.0829 -0.8075
   79c3c     H8  821   0.841   1.427   1.984  0.2213  2.0647 -1.4055
   79c3c     H9  822   1.187   1.240   1.676 -0.6843 -1.3585 -0.8456
   79c3c    H10  823   1.095   1.122   1.771  1.4515 -0.3398  0.8571
   79c3c    H11  824   1.021   1.268   1.694  0.2881  0.0751  0.2448
   79c3c    H12  825   1.227   1.150   1.973  0.1012 -1.2868 -0.1927
   79c3c    H13  826   1.336   1.245   1.872  0.5205 -1.5684  2.3017
   79c3c     C7  827   1.298   1.333   2.064  0.0964  0.5717  1.3124
   79c3c    H14  828   1.210   1.333   2.129 -1.5137 -4.0608 -0.6146
   79c3c    H15  829   1.329   1.433   2.036  0.0929  0.4916  1.0239
   79c3c     C8  830   1.408   1.273   2.140  0.8826 -0.7107  0.0263
   79c3c    H16  831   1.420   1.339   2.226  0.0963 -0.0236 -0.3942
   79c3c    H17  832   1.494   1.272   2.074 -0.6915 -2.0527 -2.0685
   79c3c    H18  833   1.400   1.171   2.178 -0.9464 -0.5039  0.2405
   80c3c      N  834   2.849   1.106   0.452  0.0470 -0.4205 -0.0954
   80c3c     C1  835   2.868   1.029   0.328  1.3285  0.4819  0.4427
   80c3c     C2  836   2.756   1.214   0.405  0.4933  0.0314 -0.3781
   80c3c     C3  837   2.724   1.024   0.264 -0.0678  0.1909 -0.3627
   80c3c     C4  838   2.654   1.147   0.312 -0.3115  0.6228  1.0408
   80c3c     C5  839   2.772   1.027   0.555  0.0666 -1.0467 -0.3660
   80c3c     C6  840   2.967   1.155   0.529 -0.5334 -0.0655  0.0839
   80c3c     H1  841   2.897   0.925   0.340  1.4159  0.3342 -0.9851
   80c3c     H2  842   2.941   1.078   0.263 -0.3748  0.2476 -1.6884
   80c3c     H3  843   2.707   1.278   0.479 -0.5436  0.0181 -1.0362
   80c3c     H4  844   2.805   1.289   0.344 -1.2481  1.0496 -0.5655
   80c3c     H5  845   2.667   0.933   0.282 -0.2800  0.3546 -0.2024
   80c3c     H6  846   2.734   1.020   0.156  1.3262  1.4729 -0.3036
   80c3c     H7  847   2.569   1.107   0.367 -0.0344 -2.3200 -0.5913
   80c3c     H8  848   2.609   1.217   0.241 -1.6553 -2.6850 -1.4958
   80c3c     H9  849   2.829   0.939   0.586 -1.9254 -2.7730 -1.4516
   80c3c    H10  850   2.738   1.071   0.648  0.7670  0.9137 -1.0278
   80c3c    H11  851   2.677   0.983   0.522 -0.4364 -0.0181 -0.2976
   80c3c    H12  852   2.930   1.215   0.612 -1.3922  1.1115 -1.1119
   80c3c    H13  853   3.027   1.080   0.580 -0.0941  2.0293  2.7405
   80c3c     C7  854   3.063   1.244   0.459 -0.1065 -0.9116  0.2034
   80c3c    H14  855   3.001   1.321   0.412  1.2945 -0.1956 -0.5304
   80c3c    H15  856   3.123   1.196   0.381  2.4361 -0.1981  1.6671
   80c3c     C8  857   3.163   1.312   0.562 -0.1304  0.4327  0.1356
   80c3c    H16  858   3.225   1.377   0.501 -0.6366 -0.1570 -1.0312
   80c3c    H17  859   3.232   1.242   0.610  0.2761  0.5293 -0.3105
   80c3c    H18  860   3.114   1.370   0.640  1.2866  0.1848  1.2289
   81c3c      N  861   1.415   0.780   1.854 -0.0073 -0.8343  0.9446
   81c3c     C1  862   1.282   0.814   1.915 -0.0340  0.1307 -0.5848
   81c3c     C2  863   1.475   0.675   1.947  0.2090 -0.5777 -0.5889
   81c3c     C3  864   1.222   0.686   1.974 -0.6118  0.7240  0.6127
   81c3c     C4  865   1.350   0.599   2.007  0.2489 -0.1572 -0.1751
   81c3c     C5  866   1.387   0.709   1.729  0.0382  0.2660 -1.4060
   81c3c     C6  867   1.499   0.897   1.812  0.4939  0.5982 -0.2324
   81c3c     H1  868   1.215   0.872   1.851  0.1150 -0.3227 -1.1640
   81c3c     H2  869   1.307   0.873   2.003 -1.7139 -0.4708  0.3418
   81c3c     H3  870   1.546   0.601   1.911  0.0337 -0.8005 -0.4777
   81c3c     H4  871   1.545   0.709   2.023 -0.7711 -1.3527  0.6877
   81c3c     H5  872   1.156   0.649   1.895 -1.3454 -0.6779  1.8512
   81c3c     H6  873   1.172   0.702   2.069  0.4389 -1.1243  1.5163
   81c3c     H7  874   1.330   0.503   1.959 -3.5944  0.8485 -0.7418
   81c3c     H8  875   1.366   0.593   2.115  1.2360 -2.3924 -0.4200
   81c3c     H9  876   1.333   0.615   1.729 -0.7219  0.6869  0.5804
   81c3c    H10  877   1.326   0.775   1.667 -1.0651  1.0574  0.4995
   81c3c    H11  878   1.479   0.684   1.675  1.2459  0.2557  0.5899
   81c3c    H12  879   1.591   0.862   1.765  0.8458  1.2093  0.0062
   81c3c    H13  880   1.449   0.949   1.729 -0.2642  0.2264 -0.0102
   81c3c     C7  881   1.534   0.996   1.929  0.6376  0.0302 -0.4561
   81c3c    H14  882   1.536   0.940   2.023  2.3907  0.7213 -0.0571
   81c3c    H15  883   1.453   1.068   1.939  2.1301  1.8725 -1.2905
   81c3c     C8  884   1.665   1.054   1.902 -0.4526  0.5476 -0.1043
   81c3c    H16  885   1.683   1.145   1.960  3.5219 -0.9871  1.2410
   81c3c    H17  886   1.682   1.086   1.799  1.4521 -0.2468 -0.0509
   81c3c    H18  887   1.739   0.978   1.928 -0.2717  0.1738 -1.6356
   82c3c      N  888   0.691   0.678   0.679  0.1876  0.3968 -0.1305
   82c3c     C1  889   0.594   0.747   0.593 -1.0317  0.1227 -0.5827
   82c3c     C2  890   0.657   0.733   0.813 -0.6566 -0.4490  0.1419
   82c3c     C3  891   0.461   0.768   0.684 -0.8303  0.0879 -0.0965
   82c3c     C4  892   0.506   0.732   0.824 -0.2903  0.1804 -0.3037
   82c3c     C5  893   0.660   0.531   0.677 -0.3999 -0.1230 -0.0997
   82c3c     C6  894   0.834   0.700   0.648 -0.2085 -0.6851  0.0014
   82c3c     H1  895   0.587   0.703   0.493 -1.6736  2.8209 -1.7552
   82c3c     H2  896   0.625   0.847   0.564 -1.0080 -0.1487 -1.4994
   82c3c     H3  897   0.694   0.662   0.887  0.7475 -1.1314 -1.1716
   82c3c     H4  898   0.680   0.837   0.836 -1.0289  0.0019 -1.4507
   82c3c     H5  899   0.380   0.698   0.665 -1.2650  0.4561  0.3642
   82c3c     H6  900   0.409   0.864   0.678  1.0892  1.0803 -1.2932
   82c3c     H7  901   0.461   0.637   0.855  1.1240  0.4155  2.6656
   82c3c     H8  902   0.476   0.816   0.887  0.7743  1.8568 -1.9793
   82c3c     H9  903   0.691   0.500   0.577  0.5291  1.4310 -0.3071
   82c3c    H10  904   0.719   0.473   0.748 -1.4220 -0.1753  0.7176
   82c3c    H11  905   0.555   0.502   0.684 -0.0368 -1.2061  0.9776
   82c3c    H12  906   0.900   0.628   0.696  2.7640  3.5326  2.5614
   82c3c    H13  907   0.845   0.686   0.540  1.2527 -0.4720  0.1118
   82c3c     C7  908   0.881   0.846   0.688  0.2832 -0.3002 -0.6077
   82c3c    H14  909   0.876   0.866   0.795  0.6329 -1.5844 -0.3397
   82c3c    H15  910   0.820   0.924   0.643 -0.8338  0.3506  1.9541
   82c3c     C8  911   1.024   0.870   0.638  0.5603  0.4745 -0.2537
   82c3c    H16  912   1.082   0.779   0.621  2.4659  1.0928  2.6449
   82c3c    H17  913   1.074   0.921   0.720  0.8987  0.5522 -0.5036
   82c3c    H18  914   1.034   0.930   0.547 -0.1974  0.8289 -0.1069
   83c3c      N  915   0.128   0.427   1.185 -0.2611  0.1478  0.5300
   83c3c     C1  916   0.251   0.400   1.266 -0.5405  0.0609  0.3473
   83c3c     C2  917   0.055   0.310   1.216  0.3382 -0.1937 -0.4318
   83c3c     C3  918   0.193   0.351   1.401 -0.1105 -0.4889 -0.2069
   83c3c     C4  919   0.055   0.295   1.368  0.0625 -0.4119 -0.3944
   83c3c     C5  920   0.069   0.550   1.234  0.3307  0.8178 -0.0958
   83c3c     C6  921   0.162   0.441   1.044 -0.4001  0.2381 -0.1671
   83c3c     H1  922   0.307   0.493   1.275 -0.1412 -0.1715  0.2693
   83c3c     H2  923   0.312   0.323   1.220 -2.6509  0.4479 -3.3262
   83c3c     H3  924  -0.051   0.309   1.189 -0.5992 -0.1527  2.9524
   83c3c     H4  925   0.091   0.220   1.167 -0.4789  0.4236 -2.2129
   83c3c     H5  926   0.187   0.438   1.467 -0.0090  0.0597 -0.9202
   83c3c     H6  927   0.254   0.272   1.444  0.2320  0.1749  0.5411
   83c3c     H7  928  -0.030   0.339   1.421  1.5660  1.8958  0.1573
   83c3c     H8  929   0.061   0.189   1.394  2.6483 -0.5581 -1.4315
   83c3c     H9  930   0.138   0.633   1.215  1.7674 -0.5014 -0.7128
   83c3c    H10  931  -0.019   0.580   1.175 -1.0344 -1.3791  0.7871
   83c3c    H11  932   0.053   0.556   1.341  0.4078 -2.6274  0.1355
   83c3c    H12  933   0.221   0.531   1.032  0.7391 -0.6153 -1.0954
   83c3c    H13  934   0.232   0.364   1.011 -0.9819 -0.7459  0.8418
   83c3c     C7  935   0.034   0.441   0.948  0.0843  0.1489  0.2403
   83c3c    H14  936  -0.040   0.515   0.980  0.9406  0.6595  1.0664
   83c3c    H15  937  -0.026   0.352   0.967  1.3004 -0.2212  2.6273
   83c3c     C8  938   0.064   0.470   0.802  0.1063  0.4731  0.0847
   83c3c    H16  939   0.121   0.387   0.760 -1.5456 -1.1583  0.9887
   83c3c    H17  940   0.124   0.558   0.780  1.6891 -0.8209 -0.9319
   83c3c    H18  941  -0.029   0.481   0.747  0.5986 -1.7719 -1.2735
   84c3c      N  942   2.892   0.806   1.938 -0.0033 -0.3337 -0.0130
   84c3c     C1  943   2.970   0.688   1.982 -0.8636  0.1805 -0.4939
   84c3c     C2  944   2.954   0.923   1.995 -0.7119  0.2198 -0.1366
   84c3c     C3  945   3.109   0.749   1.999  0.3198  0.1958 -0.2683
   84c3c     C4  946   3.105   0.898   1.997  0.4120 -0.1311 -0.2505
   84c3c     C5  947   2.911   0.816   1.798 -0.1546 -0.4723  0.1126
   84c3c     C6  948   2.743   0.793   1.958 -0.3000  0.4032 -0.0482
   84c3c     H1  949   2.979   0.606   1.911 -0.2382 -0.9764  0.8993
   84c3c     H2  950   2.949   0.650   2.082  2.3066  1.1681  0.6041
   84c3c     H3  951   2.923   1.006   1.932  2.3351  0.9479 -0.7432
   84c3c     H4  952   2.918   0.948   2.094  1.8584  2.3763  0.2878
   84c3c     H5  953   3.186   0.711   1.932  2.1284  0.8213  1.4264
   84c3c     H6  954   3.152   0.713   2.092  0.8598 -1.4392 -1.1247
   84c3c     H7  955   3.151   0.930   1.904  1.8613 -1.1407  0.1105
   84c3c     H8  956   3.157   0.938   2.084  0.0762 -0.0608 -0.0785
   84c3c     H9  957   3.014   0.813   1.763  0.0045  0.6017  0.4562
   84c3c    H10  958   2.859   0.737   1.744 -0.1699 -0.7203  0.4915
   84c3c    H11  959   2.877   0.906   1.747  1.4494 -1.1773 -2.2666
   84c3c    H12  960   2.699   0.883   1.915  0.1515  0.6517  0.0134
   84c3c    H13  961   2.695   0.710   1.905 -1.7219  0.7693  0.6499
   84c3c     C7  962   2.696   0.791   2.103  0.0322  0.0010 -0.1155
   84c3c    H14  963   2.714   0.892   2.140  0.9937 -0.0472 -0.4371
   84c3c    H15  964   2.751   0.718   2.161 -0.8101  0.5831  1.4437
   84c3c     C8  965   2.542   0.775   2.103  0.1432  0.5085  0.4604
   84c3c    H16  966   2.496   0.833   2.184  0.0080  2.1569 -0.7495
   84c3c    H17  967   2.512   0.670   2.099  0.1768  0.5369 -0.5802
   84c3c    H18  968   2.503   0.814   2.009  0.6780  1.0151  0.4488
   85c3c      N  969   1.388   0.552   2.778 -0.1489 -0.2772 -0.0338
   85c3c     C1  970   1.272   0.561   2.872  0.0471 -0.3675 -0.6077
   85c3c     C2  971   1.488   0.473   2.846  0.0317 -0.5118 -1.0339
   85c3c     C3  972   1.272   0.422   2.943  0.5583  0.2333 -0.2287
   85c3c     C4  973   1.415   0.359   2.920  0.5997 -0.5888 -0.3483
   85c3c     C5  974   1.337   0.487   2.654 -0.0354  0.5693  0.2533
   85c3c     C6  975   1.437   0.689   2.740 -0.5147  0.2380 -0.2473
   85c3c     H1  976   1.183   0.594   2.819  1.2500  2.7248 -0.8044
   85c3c     H2  977   1.291   0.632   2.952 -1.1118  0.6715 -1.2386
   85c3c     H3  978   1.573   0.451   2.781  0.0319 -0.8453 -0.9244
   85c3c     H4  979   1.526   0.525   2.933 -3.0689  2.1838 -1.2124
   85c3c     H5  980   1.195   0.355   2.905  0.4625 -0.0133  0.3980
   85c3c     H6  981   1.263   0.443   3.049  1.5389  1.8745 -0.4411
   85c3c     H7  982   1.415   0.271   2.856  1.4930 -0.4029 -0.6116
   85c3c     H8  983   1.459   0.329   3.016 -2.1869 -2.9495  0.2557
   85c3c     H9  984   1.284   0.546   2.578 -1.1443 -0.6328  0.0845
   85c3c    H10  985   1.413   0.445   2.588  0.5836 -1.2329  2.0605
   85c3c    H11  986   1.277   0.398   2.674 -1.8291  1.6177 -0.3370
   85c3c    H12  987   1.531   0.681   2.687  0.8969 -0.1601  2.2356
   85c3c    H13  988   1.364   0.744   2.681 -2.4865 -0.2830  1.6289
   85c3c     C7  989   1.470   0.792   2.857 -0.1994  0.4025  0.2141
   85c3c    H14  990   1.559   0.758   2.911 -1.4859 -0.1169  2.0542
   85c3c    H15  991   1.398   0.811   2.937 -0.6227  1.9956 -0.5213
   85c3c     C8  992   1.508   0.930   2.800  0.3113  0.8575  0.1724
   85c3c    H16  993   1.537   1.006   2.872 -0.0212  0.2423  0.9785
   85c3c    H17  994   1.413   0.973   2.770  0.1064  0.7995  0.7307
   85c3c    H18  995   1.579   0.932   2.718  1.8280  2.7004  1.4882
   86c3c      N  996   2.563   0.899   1.335 -0.3512 -0.2320  0.2759
   86c3c     C1  997   2.544   0.756   1.363  0.3873  0.0700  0.1567
   86c3c     C2  998   2.558   0.905   1.189 -0.6274 -0.1616  0.0685
   86c3c     C3  999   2.463   0.697   1.240 -0.6473  0.1043 -0.1663
   86c3c     C4 1000   2.452   0.809   1.151 -0.5875 -0.0893  0.6139
   86c3c     C5 1001   2.446   0.969   1.395  0.2160 -0.2468 -0.0470
   86c3c     C6 1002   2.686   0.946   1.395  0.1966  1.2327 -0.2531
   86c3c     H1 1003   2.493   0.733   1.457 -1.2782  2.8464 -0.0369
   86c3c     H2 1004   2.635   0.699   1.378 -1.6465 -3.2413  0.5133
   86c3c     H3 1005   2.560   1.008   1.154  1.8886  0.2873  1.4557
   86c3c     H4 1006   2.648   0.857   1.150 -0.4194 -0.1018  0.4745
   86c3c     H5 1007   2.366   0.661   1.275  0.1826  0.0663  2.2158
   86c3c     H6 1008   2.516   0.614   1.194  0.0752  0.1115  0.6506
   86c3c     H7 1009   2.351   0.850   1.151  0.1205  1.6979 -0.1158
   86c3c     H8 1010   2.469   0.764   1.053  1.0378  0.8768  0.4293
   86c3c     H9 1011   2.446   0.944   1.501 -0.8910  1.0220  0.2621
   86c3c    H10 1012   2.448   1.078   1.387  0.2607 -0.2084  0.5062
   86c3c    H11 1013   2.348   0.942   1.357  0.3148 -1.6265  0.6576
   86c3c    H12 1014   2.684   1.054   1.380 -0.3407  1.2390 -0.1577
   86c3c    H13 1015   2.679   0.934   1.503 -1.7338 -0.5795 -0.5439
   86c3c     C7 1016   2.827   0.896   1.345 -0.3754  0.5722 -0.2880
   86c3c    H14 1017   2.839   0.906   1.237 -1.8846  1.1057 -0.4190
   86c3c    H15 1018   2.835   0.789   1.364  3.3414  0.8751  0.1792
   86c3c     C8 1019   2.942   0.970   1.411  0.1944 -0.2418  0.3046
   86c3c    H16 1020   2.937   1.074   1.376  1.1816 -0.6907 -1.2288
   86c3c    H17 1021   3.042   0.931   1.393 -1.2256 -2.8062 -2.5729
   86c3c    H18 1022   2.914   0.967   1.516 -2.5093 -0.4857 -0.3751
   87c3c      N 1023   2.334   2.635   0.667 -0.4200 -0.0967  0.3455
   87c3c     C1 1024   2.239   2.710   0.746 -0.0590  0.2785  0.3652
   87c3c     C2 1025   2.454   2.638   0.759  0.2950  0.7625 -0.4280
   87c3c     C3 1026   2.252   2.671   0.891  0.1906 -0.1909 -0.9377
   87c3c     C4 1027   2.397   2.627   0.908  0.1891 -0.4029  0.5543
   87c3c     C5 1028   2.293   2.492   0.653  0.1452  0.0144 -0.3660
   87c3c     C6 1029   2.370   2.683   0.527  0.2773 -0.2295 -0.0850
   87c3c     H1 1030   2.140   2.706   0.701 -0.0080  1.6886  0.1081
   87c3c     H2 1031   2.262   2.817   0.741  1.5547  0.0031  1.3027
   87c3c     H3 1032   2.528   2.561   0.740  1.3140  1.0668  2.1161
   87c3c     H4 1033   2.502   2.735   0.746  0.3802  0.6953 -0.6099
   87c3c     H5 1034   2.194   2.580   0.904  0.0052 -0.1190 -1.2481
   87c3c     H6 1035   2.227   2.738   0.973  2.5734 -0.7594  0.2905
   87c3c     H7 1036   2.407   2.524   0.939  1.6840 -0.5951 -0.5222
   87c3c     H8 1037   2.452   2.689   0.978 -1.6744 -0.5991  2.2417
   87c3c     H9 1038   2.196   2.483   0.603 -1.6222 -1.4037  3.0902
   87c3c    H10 1039   2.367   2.426   0.608 -0.5258 -1.6860  0.9493
   87c3c    H11 1040   2.260   2.453   0.750 -0.6169 -0.8421 -0.9676
   87c3c    H12 1041   2.452   2.627   0.481 -1.5631 -1.4426 -1.9856
   87c3c    H13 1042   2.281   2.671   0.466 -0.6551  3.8449  0.3159
   87c3c     C7 1043   2.414   2.829   0.519 -0.4052  0.2334  0.3484
   87c3c    H14 1044   2.485   2.875   0.588 -0.7119 -1.6282  1.9584
   87c3c    H15 1045   2.323   2.889   0.520 -0.5329  0.0339  0.8962
   87c3c     C8 1046   2.474   2.849   0.377 -0.2043 -0.5389  0.3770
   87c3c    H16 1047   2.429   2.788   0.299  2.1947  0.1934 -1.6612
   87c3c    H17 1048   2.578   2.820   0.368 -0.0052  0.8906 -2.9103
   87c3c    H18 1049   2.465   2.952   0.341 -0.6796 -0.8202 -0.3201
   88c3c      N 1050   0.014   2.161   2.903 -0.2651 -0.4962 -0.0706
   88c3c     C1 1051  -0.019   2.077   2.787  0.4697  0.2451 -0.0810
   88c3c     C2 1052  -0.078   2.121   3.011 -0.3246 -0.2871 -0.1967
   88c3c     C3 1053  -0.051   1.939   2.856 -0.2987  0.2282 -0.1113
   88c3c     C4 1054  -0.089   1.969   3.002  0.0539 -0.4860 -0.2400
   88c3c     C5 1055   0.155   2.134   2.934  0.0986 -0.1480 -0.2406
   88c3c     C6 1056   0.007   2.303   2.861 -0.1004 -0.0170  0.3320
   88c3c     H1 1057   0.054   2.070   2.707  0.7079  1.3762  0.0296
   88c3c     H2 1058  -0.109   2.120   2.743 -0.3013 -0.3920  0.8246
   88c3c     H3 1059  -0.036   2.152   3.107  2.4047 -1.8760 -0.8073
   88c3c     H4 1060  -0.177   2.166   3.008 -0.6407 -0.7720  1.9773
   88c3c     H5 1061   0.035   1.873   2.841 -1.1681 -0.9480  0.0707
   88c3c     H6 1062  -0.139   1.898   2.807  0.6663 -1.9686 -0.0819
   88c3c     H7 1063  -0.014   1.926   3.069 -1.2638  0.0293  1.6309
   88c3c     H8 1064  -0.192   1.933   3.005 -0.2320  0.1400 -2.0211
   88c3c     H9 1065   0.222   2.171   2.857  1.2786  0.7065  1.1944
   88c3c    H10 1066   0.178   2.186   3.026 -0.6723  1.8320 -1.1372
   88c3c    H11 1067   0.188   2.031   2.952  0.6281 -0.1242 -1.0430
   88c3c    H12 1068   0.065   2.352   2.940 -1.8709 -0.1190  1.7255
   88c3c    H13 1069   0.066   2.313   2.770 -1.8656  0.6021 -0.7674
   88c3c     C7 1070  -0.122   2.370   2.834 -0.3431 -0.1936 -0.6553
   88c3c    H14 1071  -0.187   2.359   2.921 -0.9615  0.7830 -0.9814
   88c3c    H15 1072  -0.175   2.322   2.752 -0.6261 -0.0972 -0.5328
   88c3c     C8 1073  -0.097   2.514   2.780  0.3920  0.6500  0.1899
   88c3c    H16 1074  -0.182   2.578   2.756  0.9297  1.2797 -0.0523
   88c3c    H17 1075  -0.036   2.512   2.689  0.1016 -0.8852  0.0214
   88c3c    H18 1076  -0.042   2.574   2.853 -0.2466  3.2860 -1.4238
   89c3c      N 1077   1.608   0.138   1.608  0.4193  0.5468 -0.2611
   89c3c     C1 1078   1.479   0.078   1.573 -0.8615 -0.0003  0.6280
   89c3c     C2 1079   1.692   0.111   1.490  0.1300  0.0399 -0.4174
   89c3c     C3 1080   1.453   0.112   1.420 -0.3111 -0.7582  0.2338
   89c3c     C4 1081   1.595   0.128   1.373  0.2994 -0.2861  0.3220
   89c3c     C5 1082   1.599   0.280   1.631 -0.0420  0.6414  0.3795
   89c3c     C6 1083   1.645   0.079   1.743  0.6942 -0.3499  0.0851
   89c3c     H1 1084   1.403   0.125   1.637  0.1343 -0.5032  2.2059
   89c3c     H2 1085   1.476  -0.031   1.577 -3.1936  0.0499  1.2247
   89c3c     H3 1086   1.774   0.183   1.489 -1.2420  1.6299 -1.9582
   89c3c     H4 1087   1.735   0.011   1.485  0.6801  0.2022  0.8029
   89c3c     H5 1088   1.382   0.193   1.399 -1.7703 -2.2863 -0.8461
   89c3c     H6 1089   1.405   0.022   1.381 -3.1861  0.8129 -0.0393
   89c3c     H7 1090   1.602   0.231   1.340  0.7858 -0.4096  0.0383
   89c3c     H8 1091   1.623   0.061   1.292 -2.2522  0.9306 -1.5993
   89c3c     H9 1092   1.527   0.310   1.707 -0.2656  2.8652 -0.6766
   89c3c    H10 1093   1.692   0.327   1.665 -0.0349  1.5068 -0.8209
   89c3c    H11 1094   1.578   0.333   1.538  0.2219 -0.7596 -0.4937
   89c3c    H12 1095   1.727   0.126   1.797  0.1603 -1.0435  1.5249
   89c3c    H13 1096   1.566   0.100   1.814 -1.5901  0.4203 -2.5733
   89c3c     C7 1097   1.675  -0.071   1.744  0.0204  0.8148 -0.5912
   89c3c    H14 1098   1.759  -0.085   1.675 -0.5046 -1.4160 -0.8062
   89c3c    H15 1099   1.593  -0.134   1.710  0.7019 -1.0191  1.0652
   89c3c     C8 1100   1.699  -0.123   1.891 -0.0727 -0.0779  0.1549
   89c3c    H16 1101   1.630  -0.095   1.971  1.5978 -0.7495  1.8583
   89c3c    H17 1102   1.801  -0.099   1.922  0.2255  1.9343 -2.1813
   89c3c    H18 1103   1.702  -0.232   1.888  1.4502 -0.0250 -3.5021
   90c3c      N 1104   1.150   1.201   2.536  0.4546 -0.3584  0.5197
   90c3c     C1 1105   1.060   1.177   2.423  0.3776 -0.3119 -0.0684
   90c3c     C2 1106   1.120   1.084   2.618 -0.4887 -0.0233 -0.7929
   90c3c     C3 1107   1.038   1.029   2.399 -0.3776 -0.3557  0.1545
   90c3c     C4 1108   1.103   0.968   2.523 -0.4337  0.2581  0.3848
   90c3c     C5 1109   1.284   1.196   2.491 -0.3785 -0.7262 -0.6867
   90c3c     C6 1110   1.134   1.329   2.607  0.5036 -0.2500 -0.8612
   90c3c     H1 1111   1.097   1.222   2.330 -0.5779  0.8076  0.0836
   90c3c     H2 1112   0.961   1.220   2.435 -0.6640 -2.9597  1.0000
   90c3c     H3 1113   1.198   1.058   2.688 -0.0777  1.0424 -0.8349
   90c3c     H4 1114   1.029   1.103   2.675 -2.2030 -1.4670 -2.9614
   90c3c     H5 1115   1.099   0.989   2.318  1.2894 -0.1482  1.2763
   90c3c     H6 1116   0.932   1.005   2.404 -0.0649 -1.7111  0.5559
   90c3c     H7 1117   1.199   0.922   2.499 -1.0328 -2.7996  3.4476
   90c3c     H8 1118   1.052   0.879   2.561  0.6447 -0.4609  0.1892
   90c3c     H9 1119   1.307   1.273   2.418 -1.0804  1.8736  1.7653
   90c3c    H10 1120   1.353   1.218   2.572  1.1914 -0.4803 -2.0678
   90c3c    H11 1121   1.316   1.101   2.449  0.3016  0.0658 -1.9835
   90c3c    H12 1122   1.217   1.331   2.678  0.3029  0.6955 -0.6357
   90c3c    H13 1123   1.135   1.409   2.533 -1.9369  0.3072 -0.3513
   90c3c     C7 1124   1.006   1.351   2.699  1.1797 -0.0827 -0.3626
   90c3c    H14 1125   1.029   1.312   2.798  0.1563  0.6787  0.1887
   90c3c    H15 1126   0.911   1.310   2.664 -0.5706  3.0072  0.5692
   90c3c     C8 1127   0.967   1.500   2.714  0.6611  0.8553 -0.3537
   90c3c    H16 1128   0.890   1.510   2.790  0.8822  2.5879 -0.3245
   90c3c    H17 1129   0.936   1.536   2.616 -1.0032 -0.3485 -0.2853
   90c3c    H18 1130   1.056   1.556   2.743 -0.1632  0.9030  2.1677
   91c3c      N 1131   0.853   1.787   0.824  0.2661 -0.3887 -0.4243
   91c3c     C1 1132   0.791   1.922   0.828 -0.2445  0.1602 -0.2284
   91c3c     C2 1133   0.855   1.756   0.677  0.3927 -0.5330  0.6500
   91c3c     C3 1134   0.851   2.000   0.710 -0.3892 -0.2199 -0.0125
   91c3c     C4 1135   0.868   1.890   0.603 -0.1552 -0.9148 -0.5685
   91c3c     C5 1136   0.994   1.797   0.864 -0.8927  0.0077  0.1194
   91c3c     C6 1137   0.787   1.686   0.906  0.2528 -0.1063 -0.2589
   91c3c     H1 1138   0.790   1.970   0.926  1.6528 -2.3623  1.0815
   91c3c     H2 1139   0.687   1.919   0.796 -0.4560 -1.5955  0.5699
   91c3c     H3 1140   0.930   1.684   0.642  1.7408  1.7857 -1.3627
   91c3c     H4 1141   0.758   1.717   0.648 -0.4013  2.4150 -0.7956
   91c3c     H5 1142   0.950   2.039   0.734 -0.3569  1.5705 -2.7402
   91c3c     H6 1143   0.791   2.085   0.676  0.4983  0.8853  1.1501
   91c3c     H7 1144   0.972   1.902   0.571  0.8912 -1.1015  2.6084
   91c3c     H8 1145   0.805   1.889   0.514  0.2474  0.6523 -0.8714
   91c3c     H9 1146   0.985   1.832   0.967 -3.5743  1.5499 -0.5850
   91c3c    H10 1147   1.051   1.705   0.858 -0.7503  0.1038 -0.0036
   91c3c    H11 1148   1.056   1.864   0.805  0.3681 -1.0042  0.2707
   91c3c    H12 1149   0.833   1.590   0.884 -2.2578 -0.7219 -3.1467
   91c3c    H13 1150   0.795   1.716   1.011 -0.9975 -0.3224 -0.0893
   91c3c     C7 1151   0.633   1.666   0.889 -0.7653 -0.4854 -0.8883
   91c3c    H14 1152   0.607   1.613   0.798 -1.5301 -0.7373 -0.5212
   91c3c    H15 1153   0.582   1.762   0.896 -1.3211 -0.8068 -0.5049
   91c3c     C8 1154   0.574   1.591   1.006 -0.4620  0.1458  0.0162
   91c3c    H16 1155   0.610   1.488   1.011 -0.6117 -0.0306 -2.0606
   91c3c    H17 1156   0.465   1.590   1.007 -0.4662 -1.7072  2.0148
   91c3c    H18 1157   0.592   1.640   1.101  1.6357  0.1321 -0.3559
   92c3c      N 1158   3.007   2.706   0.247  0.5958  0.0246 -0.5611
   92c3c     C1 1159   2.881   2.773   0.278 -0.2543  0.0019 -0.2317
   92c3c     C2 1160   3.037   2.747   0.107 -0.1932  0.3685 -0.5524
   92c3c     C3 1161   2.893   2.914   0.219 -0.3835  0.5335  0.0788
   92c3c     C4 1162   2.982   2.890   0.093 -0.4590 -0.8863 -0.1639
   92c3c     C5 1163   3.114   2.753   0.335 -0.9880  0.2503 -0.6662
   92c3c     C6 1164   2.974   2.560   0.275  0.2498 -0.4493  0.1367
   92c3c     H1 1165   2.856   2.764   0.384  0.7139 -1.0790 -0.0895
   92c3c     H2 1166   2.787   2.731   0.242  0.3452 -0.7720 -0.9043
   92c3c     H3 1167   3.144   2.742   0.088  0.0908 -0.5249  1.1230
   92c3c     H4 1168   2.999   2.681   0.030 -1.3751 -1.2747  1.3881
   92c3c     H5 1169   2.936   2.983   0.292  1.6347 -1.1579  0.5512
   92c3c     H6 1170   2.795   2.956   0.195  0.7439  2.5932 -1.1108
   92c3c     H7 1171   3.071   2.950   0.110 -2.0436  1.9998 -1.6113
   92c3c     H8 1172   2.924   2.920   0.006  0.3811  1.3762  0.0283
   92c3c     H9 1173   3.117   2.709   0.434  1.4225 -0.5717 -1.0744
   92c3c    H10 1174   3.209   2.724   0.290 -0.6874  2.7032 -1.7066
   92c3c    H11 1175   3.123   2.861   0.341 -0.5471  0.2086 -0.5720
   92c3c    H12 1176   3.069   2.510   0.290  0.2201  0.1567  2.5881
   92c3c    H13 1177   2.914   2.559   0.366 -1.2097 -0.0212 -0.7903
   92c3c     C7 1178   2.895   2.469   0.182  0.6147 -0.0068  1.1134
   92c3c    H14 1179   2.956   2.451   0.093 -0.0429 -0.9280  0.8444
   92c3c    H15 1180   2.804   2.516   0.145  0.3309 -1.3788  0.0184
   92c3c     C8 1181   2.851   2.347   0.260 -0.1070  0.3367 -0.8451
   92c3c    H16 1182   2.791   2.273   0.208 -0.2573 -2.0025  2.4932
   92c3c    H17 1183   2.797   2.376   0.351  2.1571  2.8019 -0.2342
   92c3c    H18 1184   2.943   2.296   0.290 -1.2207 -3.9054 -4.1182
   93c3c      N 1185   2.684   3.009   2.377 -0.0348 -0.2580 -0.0510
   93c3c     C1 1186   2.714   3.096   2.261 -0.5389 -0.8153 -0.2470
   93c3c     C2 1187   2.544   3.037   2.406  0.2806 -0.7097 -0.4979
   93c3c     C3 1188   2.588   3.110   2.182  0.9786  0.0566  0.3311
   93c3c     C4 1189   2.478   3.061   2.273  0.9218  0.7207 -0.0456
   93c3c     C5 1190   2.695   2.869   2.338  0.1401 -0.6439  0.0632
   93c3c     C6 1191   2.763   3.033   2.503  0.0448  0.4406 -0.2823
   93c3c     H1 1192   2.792   3.062   2.193 -0.7400 -1.4645 -0.1546
   93c3c     H2 1193   2.741   3.198   2.289  1.8785 -1.2396 -0.9506
   93c3c     H3 1194   2.503   2.968   2.480  1.3929 -0.1589  0.6518
   93c3c     H4 1195   2.539   3.130   2.462  0.2914 -1.1248  0.2067
   93c3c     H5 1196   2.584   3.062   2.085 -0.8148  0.5063  0.1662
   93c3c     H6 1197   2.567   3.213   2.153 -1.0565 -1.1351 -2.6561
   93c3c     H7 1198   2.430   2.969   2.238  0.7508  0.1494  1.6549
   93c3c     H8 1199   2.401   3.137   2.275  1.1273  0.9084  0.7275
   93c3c     H9 1200   2.801   2.847   2.323  0.3532 -1.4635  2.5157
   93c3c    H10 1201   2.665   2.797   2.414 -2.9323 -3.4366 -3.6119
   93c3c    H11 1202   2.631   2.847   2.253 -0.2866 -1.3863  0.5735
   93c3c    H12 1203   2.710   2.995   2.591 -0.8593 -1.1454 -1.4913
   93c3c    H13 1204   2.858   2.981   2.497  0.3991  0.5666  3.1879
   93c3c     C7 1205   2.806   3.177   2.541  0.2098 -0.5949 -0.2816
   93c3c    H14 1206   2.719   3.241   2.549  0.4291 -0.4325  0.7854
   93c3c    H15 1207   2.856   3.230   2.460  0.8284 -0.2372  0.3323
   93c3c     C8 1208   2.890   3.180   2.668  0.4427  0.5007 -0.9058
   93c3c    H16 1209   2.895   3.281   2.709  0.4814  0.3044 -0.4243
   93c3c    H17 1210   2.989   3.150   2.635  0.7135  2.6379 -2.1749
   93c3c    H18 1211   2.856   3.123   2.754  2.7025 -0.1070 -0.3901
   94c3c      N 1212   0.265   1.488   0.085 -0.3836 -0.0261  0.2888
   94c3c     C1 1213   0.282   1.366   0.157  0.1726 -0.0380 -0.1355
   94c3c     C2 1214   0.347   1.594   0.156  0.4627 -0.0508  0.8909
   94c3c     C3 1215   0.429   1.365   0.196 -0.8172 -0.1982 -0.0727
   94c3c     C4 1216   0.464   1.514   0.202 -0.4081 -0.4589 -0.2580
   94c3c     C5 1217   0.328   1.467  -0.052 -0.3281 -0.2497 -0.1067
   94c3c     C6 1218   0.126   1.534   0.066  0.0409 -0.0807 -0.1025
   94c3c     H1 1219   0.254   1.279   0.097  0.5942 -1.4813  1.7127
   94c3c     H2 1220   0.221   1.348   0.246 -1.4100 -0.2032 -1.2210
   94c3c     H3 1221   0.383   1.674   0.092  2.1801 -1.5568 -0.0927
   94c3c     H4 1222   0.297   1.648   0.236 -0.6315  0.4442 -0.1112
   94c3c     H5 1223   0.486   1.316   0.117  0.1553  1.6104 -0.5110
   94c3c     H6 1224   0.455   1.307   0.284  0.5889 -0.9901 -0.9891
   94c3c     H7 1225   0.556   1.536   0.147 -0.0962 -1.0858  0.0052
   94c3c     H8 1226   0.480   1.544   0.306 -0.1303 -0.9023 -0.1734
   94c3c     H9 1227   0.284   1.388  -0.113  1.9460 -1.6100 -0.0671
   94c3c    H10 1228   0.326   1.557  -0.113 -0.0881 -1.8598 -2.5912
   94c3c    H11 1229   0.435   1.444  -0.052 -0.2562 -0.0016 -1.9661
   94c3c    H12 1230   0.114   1.633   0.022 -3.0196 -1.1185 -1.7321
   94c3c    H13 1231   0.068   1.460   0.010  0.3744 -0.0010 -0.5510
   94c3c     C7 1232   0.043   1.540   0.192 -0.0263  0.3946 -0.3820
   94c3c    H14 1233   0.092   1.603   0.267  0.6143  0.7456 -1.0968
   94c3c    H15 1234   0.021   1.446   0.242 -2.1288  0.8843 -0.3349
   94c3c     C8 1235  -0.091   1.603   0.168 -0.1262 -0.2227  0.8415
   94c3c    H16 1236  -0.087   1.703   0.126  0.7432 -0.1104  1.1861
   94c3c    H17 1237  -0.153   1.610   0.257  0.8781 -1.4163  1.6577
   94c3c    H18 1238  -0.137   1.544   0.088 -0.0676  1.3483 -0.3618
   95c3c      N 1239   0.987   2.321   2.820  0.5351  1.0352  0.2460
   95c3c     C1 1240   0.875   2.365   2.741  0.4301 -0.0783 -0.1956
   95c3c     C2 1241   1.024   2.431   2.900 -0.4205 -0.0594 -0.1179
   95c3c     C3 1242   0.793   2.465   2.831 -0.5950  0.6218  0.4694
   95c3c     C4 1243   0.898   2.507   2.928  0.4513  0.1930  0.1378
   95c3c     C5 1244   0.930   2.220   2.914 -0.2185  0.3651 -0.5773
   95c3c     C6 1245   1.107   2.260   2.755  0.3413 -0.5831  0.6661
   95c3c     H1 1246   0.816   2.286   2.696  0.8670 -0.6814  0.2612
   95c3c     H2 1247   0.919   2.425   2.661 -0.4325 -0.2366 -0.7852
   95c3c     H3 1248   1.064   2.410   2.999 -2.4658 -0.7981  0.5920
   95c3c     H4 1249   1.097   2.497   2.854 -0.4417  0.1840  0.1996
   95c3c     H5 1250   0.712   2.410   2.879  1.5499 -0.3116  3.1320
   95c3c     H6 1251   0.748   2.548   2.777  0.9152  0.3207 -1.2999
   95c3c     H7 1252   0.873   2.498   3.034  1.2474 -1.6325  0.1813
   95c3c     H8 1253   0.920   2.613   2.912 -0.7039  0.4752  0.3703
   95c3c     H9 1254   0.900   2.125   2.869 -0.4758  0.8655 -1.4778
   95c3c    H10 1255   1.002   2.193   2.991 -1.5144 -2.2291 -0.1944
   95c3c    H11 1256   0.845   2.255   2.973  0.8013  0.7021  0.7050
   95c3c    H12 1257   1.171   2.232   2.839 -0.2787 -1.2193  0.9362
   95c3c    H13 1258   1.079   2.166   2.709 -0.4336  0.4656 -1.0511
   95c3c     C7 1259   1.185   2.357   2.659  0.0200  0.5720  0.2501
   95c3c    H14 1260   1.249   2.432   2.704 -0.7258  1.7006 -0.5466
   95c3c    H15 1261   1.133   2.410   2.579 -0.0922  0.6633  0.3805
   95c3c     C8 1262   1.276   2.264   2.578 -0.5487  0.1215 -0.4578
   95c3c    H16 1263   1.223   2.208   2.501 -0.7175 -1.0144  0.4857
   95c3c    H17 1264   1.327   2.190   2.639 -2.4392  2.7732  4.6385
   95c3c    H18 1265   1.358   2.321   2.533 -0.9886  0.1322 -1.2611
   96c3c      N 1266   0.040   1.519   1.997  0.3258 -0.1281  0.3870
   96c3c     C1 1267   0.061   1.653   2.045 -0.4963 -0.3185 -0.1101
   96c3c     C2 1268  -0.105   1.494   2.022 -0.1838  0.9735 -0.2484
   96c3c     C3 1269  -0.065   1.728   2.007 -0.2177  0.3348  0.6394
   96c3c     C4 1270  -0.172   1.625   1.988  0.4230  0.6550 -0.0255
   96c3c     C5 1271   0.065   1.520   1.852 -0.1883  0.8757  0.9774
   96c3c     C6 1272   0.135   1.414   2.047  0.1613  0.5567  0.3053
   96c3c     H1 1273   0.142   1.703   1.992 -0.8912  0.6073  0.1362
   96c3c     H2 1274   0.071   1.655   2.154  0.7940  0.5095 -0.2396
   96c3c     H3 1275  -0.135   1.414   1.954 -0.6079  1.4394 -0.6223
   96c3c     H4 1276  -0.113   1.460   2.125 -0.3824 -0.8523 -0.8487
   96c3c     H5 1277  -0.045   1.785   1.916  0.4879 -1.5006 -0.3804
   96c3c     H6 1278  -0.076   1.788   2.097  0.9384 -3.9433  3.7698
   96c3c     H7 1279  -0.191   1.627   1.881  1.2013  1.5828 -0.1483
   96c3c     H8 1280  -0.258   1.646   2.051  0.4405 -1.5710  0.7778
   96c3c     H9 1281   0.024   1.607   1.801 -0.5761 -0.8419 -1.7809
   96c3c    H10 1282   0.172   1.525   1.832 -0.4325  0.5140 -0.4589
   96c3c    H11 1283   0.031   1.432   1.797 -0.3414  1.0141  0.8511
   96c3c    H12 1284   0.127   1.325   1.984  3.3585 -0.5517  1.3881
   96c3c    H13 1285   0.239   1.440   2.028  0.6140 -1.3333  0.0625
   96c3c     C7 1286   0.119   1.368   2.192 -0.2160  0.0884  0.6536
   96c3c    H14 1287   0.021   1.322   2.210 -0.6243  0.9536  0.6568
   96c3c    H15 1288   0.127   1.455   2.257  2.6056 -0.6268  1.3421
   96c3c     C8 1289   0.224   1.270   2.240 -0.0650  0.4121 -0.5131
   96c3c    H16 1290   0.243   1.194   2.164  0.5297 -2.1043  2.0449
   96c3c    H17 1291   0.205   1.212   2.330  1.4178  0.3019 -0.2510
   96c3c    H18 1292   0.317   1.323   2.262 -0.0764  1.3650 -2.6695
   97c3c      N 1293   2.269   1.346   0.596 -0.3576 -0.6121 -0.7882
   97c3c     C1 1294   2.204   1.363   0.470 -0.1859  0.0812 -0.3911
   97c3c     C2 1295   2.172   1.329   0.703  0.5170 -0.0320 -0.1643
   97c3c     C3 1296   2.075   1.277   0.488  0.2188 -0.8738  0.3626
   97c3c     C4 1297   2.055   1.257   0.640 -0.0038 -0.4835 -0.2280
   97c3c     C5 1298   2.344   1.221   0.584 -0.2510  0.1734 -0.3878
   97c3c     C6 1299   2.369   1.451   0.622  0.1299 -0.6065 -0.1607
   97c3c     H1 1300   2.258   1.346   0.377 -0.6357  0.7493 -0.7852
   97c3c     H2 1301   2.167   1.466   0.474 -0.3573  0.0047  0.0113
   97c3c     H3 1302   2.208   1.288   0.798  3.1520  1.1139 -0.6078
   97c3c     H4 1303   2.129   1.426   0.726  2.0777  0.9024 -1.1183
   97c3c     H5 1304   2.097   1.181   0.441  1.3966 -1.2532  1.6702
   97c3c     H6 1305   1.992   1.332   0.444  1.3732  0.9759  0.4894
   97c3c     H7 1306   2.047   1.152   0.669  1.8947 -0.7608 -0.6884
   97c3c     H8 1307   1.957   1.292   0.672  0.7814  1.9415 -0.3958
   97c3c     H9 1308   2.424   1.226   0.511  0.5788  1.5785  0.6011
   97c3c    H10 1309   2.398   1.186   0.672  0.3248 -0.8391 -1.1305
   97c3c    H11 1310   2.280   1.134   0.566  0.5546 -0.2211 -1.3867
   97c3c    H12 1311   2.431   1.430   0.709 -1.5812  2.6726  1.9363
   97c3c    H13 1312   2.432   1.457   0.533  1.7560  1.4945  1.0799
   97c3c     C7 1313   2.325   1.601   0.642 -0.6699  0.9097 -0.4152
   97c3c    H14 1314   2.231   1.601   0.698  0.4381  0.8420  1.4985
   97c3c    H15 1315   2.316   1.639   0.540  0.2746  0.2552 -0.7437
   97c3c     C8 1316   2.430   1.680   0.737  0.1133  0.7330 -0.0673
   97c3c    H16 1317   2.530   1.676   0.696 -0.2040  0.1789 -0.8078
   97c3c    H17 1318   2.419   1.629   0.832  0.9159 -0.3170 -0.5342
   97c3c    H18 1319   2.406   1.786   0.739 -0.9807  0.4971 -0.2973
   98c3c      N 1320   1.258   1.270   0.425  0.0384 -0.0196 -0.1542
   98c3c     C1 1321   1.239   1.280   0.565 -0.2932  0.1213  0.9086
   98c3c     C2 1322   1.380   1.362   0.404 -0.3423  0.6384 -0.6490
   98c3c     C3 1323   1.381   1.283   0.630  0.2689 -0.0764  0.1558
   98c3c     C4 1324   1.477   1.338   0.526 -0.2010  0.8028  0.3087
   98c3c     C5 1325   1.289   1.129   0.402  0.4767 -0.6599  0.4779
   98c3c     C6 1326   1.136   1.291   0.350 -0.3993 -0.8059 -0.1489
   98c3c     H1 1327   1.182   1.205   0.621 -0.8871 -0.3105 -0.2600
   98c3c     H2 1328   1.180   1.369   0.584 -1.1085 -0.0232 -0.8367
   98c3c     H3 1329   1.422   1.351   0.304 -1.2771 -0.2224 -0.9589
   98c3c     H4 1330   1.340   1.463   0.416  1.2030  1.0488  1.2672
   98c3c     H5 1331   1.419   1.186   0.661  2.5938  0.2423 -1.5457
   98c3c     H6 1332   1.378   1.342   0.722 -4.5321  2.8580 -1.6735
   98c3c     H7 1333   1.565   1.276   0.506 -0.9400 -0.8951  2.2082
   98c3c     H8 1334   1.520   1.429   0.569  0.0450  0.5874  0.5234
   98c3c     H9 1335   1.203   1.066   0.424  0.0093 -0.6707 -1.3198
   98c3c    H10 1336   1.338   1.109   0.306 -0.3169  1.0208 -0.2955
   98c3c    H11 1337   1.368   1.084   0.463  0.0817 -0.2919  1.2600
   98c3c    H12 1338   1.136   1.255   0.247 -2.0983  0.4191 -0.5975
   98c3c    H13 1339   1.057   1.236   0.402 -0.6939  0.8892  1.2239
   98c3c     C7 1340   1.088   1.438   0.319 -0.0162  0.8643 -0.2469
   98c3c    H14 1341   1.152   1.483   0.243  0.8123  1.2554  0.6544
   98c3c    H15 1342   1.093   1.494   0.413 -1.8986  0.1089  0.3129
   98c3c     C8 1343   0.949   1.444   0.257  0.0646  0.0214  0.4407
   98c3c    H16 1344   0.886   1.371   0.308 -0.2446 -0.0945 -0.1009
   98c3c    H17 1345   0.949   1.424   0.150  0.7001  1.3071  0.1878
   98c3c    H18 1346   0.894   1.538   0.268  2.3897  1.4635  0.0348
   99c3c      N 1347   1.356   2.010   1.719 -0.5899 -0.0984 -0.2044
   99c3c     C1 1348   1.255   2.124   1.709 -0.3213 -0.1929  0.1946
   99c3c     C2 1349   1.322   1.944   1.596  0.1146 -1.1213 -0.4610
   99c3c     C3 1350   1.247   2.172   1.562  0.9468  0.2117 -0.1251
   99c3c     C4 1351   1.305   2.050   1.483 -0.1860  0.3187 -0.0750
   99c3c     C5 1352   1.496   2.056   1.713 -0.0855  0.3044 -0.1579
   99c3c     C6 1353   1.338   1.920   1.839  0.4890  0.2549  0.0066
   99c3c     H1 1354   1.266   2.194   1.792  0.3685  0.9184 -0.8131
   99c3c     H2 1355   1.153   2.086   1.713  0.7519 -3.2486 -0.3704
   99c3c     H3 1356   1.404   1.878   1.569 -0.6227 -2.4931  0.5757
   99c3c     H4 1357   1.234   1.881   1.607  0.9743 -1.9778  1.6983
   99c3c     H5 1358   1.302   2.263   1.535 -4.3024  3.1572 -1.5493
   99c3c     H6 1359   1.144   2.201   1.542  0.5691 -0.3390  0.9965
   99c3c     H7 1360   1.403   2.062   1.436 -0.1960 -0.6535 -0.3702
   99c3c     H8 1361   1.233   2.011   1.411 -2.0615  0.4508  1.6814
   99c3c     H9 1362   1.537   2.115   1.795 -0.2001  2.0343 -1.3254
   99c3c    H10 1363   1.558   1.966   1.710 -0.0586  0.3259 -0.2441
   99c3c    H11 1364   1.515   2.124   1.630 -1.1696 -0.3837 -0.9741
   99c3c    H12 1365   1.417   1.845   1.839  0.2452 -0.0170 -1.5563
   99c3c    H13 1366   1.368   1.994   1.914  0.6363  1.2292 -1.0087
   99c3c     C7 1367   1.203   1.862   1.870 -0.0979  0.2461 -0.5507
   99c3c    H14 1368   1.170   1.792   1.793 -1.4356  0.0677  0.1626
   99c3c    H15 1369   1.133   1.945   1.859  0.1440  0.6452  0.8086
   99c3c     C8 1370   1.195   1.797   2.005 -0.3274  0.5141  0.3548
   99c3c    H16 1371   1.286   1.739   1.994 -0.1537  0.7359  0.6340
   99c3c    H17 1372   1.114   1.726   2.020  1.4571 -1.3830  1.3294
   99c3c    H18 1373   1.208   1.870   2.085 -1.5567 -1.3879  2.3268
  100c3c      N 1374   1.048   0.009   0.834 -0.2701  0.5226 -0.1213
  100c3c     C1 1375   0.929   0.069   0.764  0.8259 -0.1836 -1.0507
  100c3c     C2 1376   1.151   0.113   0.834 -0.5958  0.0817  0.4149
  100c3c     C3 1377   0.932   0.214   0.809 -0.5289  0.0411  0.2877
  100c3c     C4 1378   1.079   0.242   0.863  1.0751 -0.3013  0.4652
  100c3c     C5 1379   1.014  -0.013   0.976 -0.2278  0.3501  0.0107
  100c3c     C6 1380   1.101  -0.117   0.779  0.1006 -0.4352 -0.4106
  100c3c     H1 1381   0.839   0.014   0.792  1.5999 -0.6091  0.6902
  100c3c     H2 1382   0.937   0.075   0.656 -0.9711 -0.4005 -1.2088
  100c3c     H3 1383   1.237   0.106   0.900 -1.0396  0.3724  1.0281
  100c3c     H4 1384   1.192   0.133   0.735 -0.2582  1.6877  0.8705
  100c3c     H5 1385   0.876   0.225   0.902  1.2395 -1.4046  1.5552
  100c3c     H6 1386   0.906   0.284   0.729 -0.3852 -0.3330 -0.0887
  100c3c     H7 1387   1.070   0.267   0.969 -1.5496  0.1939  0.1698
  100c3c     H8 1388   1.119   0.324   0.803 -4.2902  1.5526 -0.8508
  100c3c     H9 1389   0.931  -0.082   0.991  0.5259 -1.1178 -2.3461
  100c3c    H10 1390   1.100  -0.030   1.040 -0.1883  2.6681  0.6313
  100c3c    H11 1391   0.975   0.073   1.030 -2.8598  0.0481 -1.3115
  100c3c    H12 1392   1.193  -0.148   0.828 -0.3199 -0.2306  0.5109
  100c3c    H13 1393   1.029  -0.195   0.807 -0.0790 -0.3408 -0.6048
  100c3c     C7 1394   1.139  -0.119   0.626  1.0238 -0.6871 -0.7283
  100c3c    H14 1395   1.216  -0.045   0.608  1.0578 -0.3993  0.5949
  100c3c    H15 1396   1.055  -0.102   0.559  1.9558 -1.3852 -2.1127
  100c3c     C8 1397   1.199  -0.251   0.588 -0.0010 -0.4442 -0.2580
  100c3c    H16 1398   1.187  -0.256   0.480  1.9181  1.6233 -0.6035
  100c3c    H17 1399   1.138  -0.332   0.630 -1.0890  1.1314  1.2708
  100c3c    H18 1400   1.305  -0.257   0.612 -0.2765  2.3028  1.8802
  101fsi     F1 1401   1.608   2.351   1.728 -0.3512  0.7884  0.3520
  101fsi     S1 1402   1.607   2.445   1.603 -0.2760 -0.1722 -0.5966
  101fsi      N 1403   1.583   2.343   1.486 -0.1221  0.1138 -0.3683
  101fsi     O1 1404   1.491   2.531   1.620 -0.1670  0.4008 -0.1159
  101fsi     O2 1405   1.738   2.506   1.601  0.2582 -0.5807  0.0747
  101fsi     S2 1406   1.659   2.322   1.347  0.0941  0.0373  0.3059
  101fsi     O3 1407   1.753   2.420   1.298  0.2754 -0.1777 -0.1990
  101fsi     O4 1408   1.556   2.287   1.250 -0.0538 -0.1866 -0.1383
  101fsi     F2 1409   1.747   2.189   1.365 -0.4653  0.1447  0.1487
  102fsi     F1 1410   1.349   0.823   0.164  0.1390  0.0680 -0.4815
  102fsi     S1 1411   1.374   0.694   0.253  0.2906  0.2000  0.0097
  102fsi      N 1412   1.487   0.622   0.168  0.6035  0.4766  0.1606
  102fsi     O1 1413   1.417   0.750   0.375  0.0663 -0.2467 -0.4987
  102fsi     O2 1414   1.250   0.624   0.254 -0.4675  0.2415  0.0200
  102fsi     S2 1415   1.638   0.583   0.203 -0.0747  0.1503  0.3008
  102fsi     O3 1416   1.669   0.582   0.343  0.0097  0.1221  0.0804
  102fsi     O4 1417   1.733   0.642   0.116 -0.1446 -0.0911 -0.1077
  102fsi     F2 1418   1.647   0.430   0.159  0.6229  0.3071  0.3083
  103fsi     F1 1419   1.036   0.833   1.412 -0.7745 -0.1492  0.8778
  103fsi     S1 1420   1.043   0.955   1.511 -0.0321  0.0911  0.1572
  103fsi      N 1421   0.900   0.959   1.563 -0.0736 -0.3850  0.6546
  103fsi     O1 1422   1.135   0.904   1.606 -0.0039 -0.2184 -0.2389
  103fsi     O2 1423   1.087   1.067   1.431 -0.3235  0.6272  0.2901
  103fsi     S2 1424   0.780   1.030   1.489  0.4407  0.2404 -0.2129
  103fsi     O3 1425   0.653   0.996   1.547 -0.3179 -0.1479 -0.5978
  103fsi     O4 1426   0.788   1.029   1.344 -0.4537 -0.2836  0.1145
  103fsi     F2 1427   0.787   1.182   1.525  0.4808 -0.2866  0.3603
  104fsi     F1 1428   0.480   1.816   0.282  0.5281  0.1252 -0.2940
  104fsi     S1 1429   0.462   1.947   0.382  0.5084  0.0044  0.2529
  104fsi      N 1430   0.310   1.947   0.423  0.1750 -0.0383  0.7217
  104fsi     O1 1431   0.543   1.918   0.499  0.3625 -0.0212  0.3495
  104fsi     O2 1432   0.495   2.058   0.301  0.4972 -0.3139 -0.0938
  104fsi     S2 1433   0.188   1.943   0.331 -0.0092  0.1290  0.2184
  104fsi     O3 1434   0.065   1.903   0.397 -0.5915 -0.5264  0.4113
  104fsi     O4 1435   0.210   1.890   0.199  0.0149  0.0704  0.3191
  104fsi     F2 1436   0.166   2.101   0.321 -0.6444  0.0969  0.1051
  105fsi     F1 1437   0.704   2.051   2.712 -0.3637  0.1431  0.7610
  105fsi     S1 1438   0.570   2.118   2.753 -0.1836  0.6835  0.3969
  105fsi      N 1439   0.476   1.997   2.765 -0.3732  0.1410 -0.3273
  105fsi     O1 1440   0.593   2.182   2.876  0.0287 -0.2169 -0.3366
  105fsi     O2 1441   0.535   2.193   2.639  0.5221 -0.3208 -0.4727
  105fsi     S2 1442   0.442   1.909   2.886 -0.1905  0.1322 -0.0302
  105fsi     O3 1443   0.324   1.830   2.856 -0.2481 -0.2074 -0.2632
  105fsi     O4 1444   0.449   1.976   3.013 -0.4052  0.2925  0.0189
  105fsi     F2 1445   0.562   1.807   2.884 -0.2792 -0.4938  0.3387
  106fsi     F1 1446   0.462   2.169   2.157  0.1422  0.4690  0.9577
  106fsi     S1 1447   0.527   2.191   2.011  0.1217  0.5151  0.0618
  106fsi      N 1448   0.453   2.319   1.952  0.0001 -0.5617  0.3954
  106fsi     O1 1449   0.662   2.220   2.039 -0.2792 -0.3861  0.4802
  106fsi     O2 1450   0.504   2.070   1.943  0.3437  0.4490  0.1568
  106fsi     S2 1451   0.470   2.475   1.945  0.0292 -0.4614 -0.7431
  106fsi     O3 1452   0.377   2.539   1.863 -0.6243 -0.1935  0.4530
  106fsi     O4 1453   0.607   2.513   1.934  0.2005 -0.0296  0.2681
  106fsi     F2 1454   0.422   2.533   2.082  0.0820 -0.1007  0.1792
  107fsi     F1 1455   1.541   2.570   0.828 -0.1358 -0.2318 -0.0143
  107fsi     S1 1456   1.625   2.455   0.882 -0.0284 -0.4762  0.3054
  107fsi      N 1457   1.745   2.441   0.780 -0.2802  0.3043 -0.2292
  107fsi     O1 1458   1.662   2.491   1.019  0.4810  0.2812 -0.0583
  107fsi     O2 1459   1.540   2.342   0.876  0.3466  0.1997  0.3063
  107fsi     S2 1460   1.874   2.526   0.778  0.3354  0.8022 -0.0099
  107fsi     O3 1461   1.903   2.620   0.883 -0.1707 -0.1866 -0.3968
  107fsi     O4 1462   1.911   2.575   0.651  0.1451 -0.1854  0.3088
  107fsi     F2 1463   1.984   2.417   0.799 -0.0518  0.2682  0.2582
  108fsi     F1 1464   2.761   0.317   1.560 -0.5274 -0.4354 -0.8251
  108fsi     S1 1465   2.768   0.439   1.657 -0.1900  0.1048 -0.1479
  108fsi      N 1466   2.644   0.420   1.750  0.0698 -0.0159  0.3012
  108fsi     O1 1467   2.896   0.420   1.720 -0.6082  0.2838 -0.9062
  108fsi     O2 1468   2.751   0.551   1.572 -0.4488 -0.0074 -0.1871
  108fsi     S2 1469   2.641   0.329   1.878  0.2648 -0.1954  0.0326
  108fsi     O3 1470   2.756   0.246   1.888 -0.3850 -0.1640 -0.2515
  108fsi     O4 1471   2.513   0.273   1.897  0.5761 -0.2745 -0.3777
  108fsi     F2 1472   2.652   0.435   1.989  0.2131 -0.1409 -0.1236
  109fsi     F1 1473   2.744   1.822   1.671  0.1393 -0.0133  0.1074
  109fsi     S1 1474   2.656   1.934   1.740  0.0872 -0.0445 -0.7207
  109fsi      N 1475   2.510   1.890   1.710  0.2701 -0.1039  0.0075
  109fsi     O1 1476   2.699   1.906   1.872  0.0437 -0.3997 -0.9053
  109fsi     O2 1477   2.695   2.059   1.676 -0.2806  0.1159  0.0043
  109fsi     S2 1478   2.405   1.803   1.786  0.3477  0.4476 -0.2692
  109fsi     O3 1479   2.277   1.834   1.736 -0.3270 -0.1726  0.0725
  109fsi     O4 1480   2.415   1.796   1.934 -0.0631 -0.4549  0.0210
  109fsi     F2 1481   2.435   1.652   1.734  0.1227  0.0247 -0.0688
  110fsi     F1 1482   0.478   2.814   0.557  0.2096  0.1292  0.2961
  110fsi     S1 1483   0.476   2.679   0.633 -0.3820  0.2248 -0.3146
  110fsi      N 1484   0.609   2.679   0.706  0.7256  0.1441  0.1527
  110fsi     O1 1485   0.364   2.675   0.725  0.1064  0.2911 -0.5847
  110fsi     O2 1486   0.469   2.577   0.539 -0.5421  0.0350  0.0427
  110fsi     S2 1487   0.643   2.760   0.839 -0.1227  0.0943  0.2207
  110fsi     O3 1488   0.574   2.883   0.860  0.6048  0.6585 -0.3433
  110fsi     O4 1489   0.784   2.758   0.861 -0.4617  0.4384  1.0638
  110fsi     F2 1490   0.583   2.667   0.949 -0.3859 -0.4500 -0.1114
  111fsi     F1 1491   2.725   0.842   0.829 -0.0416  0.3398 -1.1136
  111fsi     S1 1492   2.862   0.822   0.902  0.1136  0.0919  0.1637
  111fsi      N 1493   2.918   0.966   0.933 -0.4112  0.0759 -0.1001
  111fsi     O1 1494   2.824   0.737   1.015 -0.0899  0.2281 -0.5292
  111fsi     O2 1495   2.935   0.752   0.794 -0.1577 -0.6840  0.2238
  111fsi     S2 1496   3.044   1.007   1.026  0.5319 -0.0288 -0.0002
  111fsi     O3 1497   3.111   0.903   1.096  0.1120 -0.4573  0.3203
  111fsi     O4 1498   2.996   1.112   1.115  0.1676  0.3407 -0.2688
  111fsi     F2 1499   3.146   1.074   0.921 -0.3180 -0.2743 -0.0753
  112fsi     F1 1500   1.828   1.327   0.874  0.5695 -0.3544 -0.0002
  112fsi     S1 1501   1.854   1.266   1.018 -0.1285  0.1744  0.1466
  112fsi      N 1502   1.711   1.223   1.077  0.0684 -0.3611  0.1119
  112fsi     O1 1503   1.937   1.159   0.982  0.8753 -0.1964 -0.5446
  112fsi     O2 1504   1.908   1.377   1.096  0.0091 -0.0554 -0.5097
  112fsi     S2 1505   1.663   1.079   1.129  0.3148 -0.2006  0.4064
  112fsi     O3 1506   1.741   0.973   1.076 -0.1351 -0.2342 -0.5424
  112fsi     O4 1507   1.520   1.056   1.115  0.3008 -0.7426 -0.0937
  112fsi     F2 1508   1.697   1.075   1.277  0.4041  0.4605 -0.3860
  113fsi     F1 1509   1.634   0.160   1.082 -0.0879  0.5806 -0.2280
  113fsi     S1 1510   1.497   0.149   1.007 -0.2163 -0.2415  0.1223
  113fsi      N 1511   1.451   0.000   1.024 -0.1358  0.6214 -0.1263
  113fsi     O1 1512   1.414   0.231   1.088 -0.4914  0.2764 -0.2771
  113fsi     O2 1513   1.520   0.185   0.869 -0.4557  0.1236  0.4687
  113fsi     S2 1514   1.455  -0.120   0.920 -0.2566 -0.0577  0.0695
  113fsi     O3 1515   1.441  -0.079   0.784 -0.7966  0.1232  0.5150
  113fsi     O4 1516   1.377  -0.235   0.960  0.2744 -0.2910 -0.1346
  113fsi     F2 1517   1.607  -0.168   0.937 -0.2011 -0.2536 -0.4982
  114fsi     F1 1518   0.524   1.244   0.842 -0.1191  0.1130  0.1579
  114fsi     S1 1519   0.649   1.149   0.814  0.0556 -0.3069 -0.1115
  114fsi      N 1520   0.762   1.256   0.779 -0.3357 -0.7107  0.1078
  114fsi     O1 1521   0.671   1.100   0.945  0.4600  0.0964  0.4501
  114fsi     O2 1522   0.603   1.056   0.716  0.5399 -0.6009  0.4734
  114fsi     S2 1523   0.822   1.295   0.639  0.0343 -0.1319 -0.0486
  114fsi     O3 1524   0.896   1.190   0.579 -0.1227 -0.1465 -0.0422
  114fsi     O4 1525   0.892   1.420   0.646 -0.5471 -0.1121 -1.0215
  114fsi     F2 1526   0.703   1.317   0.549  0.6036 -0.2588  0.1894
  115fsi     F1 1527   1.628   2.827   0.323 -0.3566 -0.2466 -0.1832
  115fsi     S1 1528   1.698   2.905   0.434 -0.0333 -0.1182 -0.1445
  115fsi      N 1529   1.794   2.999   0.349  0.1589  0.4952 -0.4773
  115fsi     O1 1530   1.590   2.977   0.495  0.0664  0.1242 -0.7445
  115fsi     O2 1531   1.761   2.805   0.511  0.7063 -0.1276  0.2692
  115fsi     S2 1532   1.754   3.142   0.288  0.4645  0.1308  0.0026
  115fsi     O3 1533   1.837   3.183   0.178 -0.4597  0.4666 -0.0935
  115fsi     O4 1534   1.719   3.245   0.381 -0.5258 -0.2495 -0.0870
  115fsi     F2 1535   1.618   3.119   0.211 -0.5422  0.6564 -0.7006
  116fsi     F1 1536   2.142   2.379   0.147  0.2938 -0.4470 -0.2368
  116fsi     S1 1537   2.198   2.511   0.222  0.4215 -0.3701  0.0551
  116fsi      N 1538   2.332   2.459   0.287 -0.3009 -0.0542 -0.0679
  116fsi     O1 1539   2.200   2.607   0.113  0.8395  0.0265  0.2291
  116fsi     O2 1540   2.102   2.536   0.326 -0.6326  0.2114  0.2361
  116fsi     S2 1541   2.478   2.474   0.231  0.6711 -0.1331 -0.1226
  116fsi     O3 1542   2.576   2.506   0.330  0.2936 -0.0804  0.1028
  116fsi     O4 1543   2.490   2.543   0.103  0.5684  0.3417 -0.2749
  116fsi     F2 1544   2.521   2.332   0.195  0.0509 -0.1664 -0.1466
  117fsi     F1 1545   1.742   1.094   0.587 -0.2834  0.0304  0.1707
  117fsi     S1 1546   1.673   0.995   0.682  0.1073  0.3789  0.0453
  117fsi      N 1547   1.792   0.906   0.740 -0.2726 -0.3847  0.8550
  117fsi     O1 1548   1.615   1.082   0.778 -0.5976 -0.0145  0.3595
  117fsi     O2 1549   1.572   0.918   0.610 -0.3572  0.4350  0.1397
  117fsi     S2 1550   1.827   0.754   0.714 -0.1846  0.3550  0.1186
  117fsi     O3 1551   1.743   0.665   0.641  0.5906  0.6581 -0.3764
  117fsi     O4 1552   1.866   0.696   0.840 -0.1582 -0.1174  0.4627
  117fsi     F2 1553   1.960   0.750   0.625  0.0277 -0.8085 -0.5196
  118fsi     F1 1554   1.800   0.643   2.695  0.1551 -0.5040 -0.7479
  118fsi     S1 1555   1.910   0.740   2.751  0.0681  0.2395  0.1836
  118fsi      N 1556   2.031   0.650   2.723 -0.3032 -0.4033  0.0478
  118fsi     O1 1557   1.909   0.847   2.650  0.3600 -0.2551 -0.1017
  118fsi     O2 1558   1.885   0.765   2.894 -0.3646 -0.2502  0.1745
  118fsi     S2 1559   2.141   0.643   2.612  0.5190  0.0721  0.1940
  118fsi     O3 1560   2.112   0.735   2.503  0.1164 -0.2044  0.0214
  118fsi     O4 1561   2.164   0.506   2.580 -0.1462 -0.1354  0.7936
  118fsi     F2 1562   2.271   0.689   2.673  0.3572 -0.5240  0.4640
  119fsi     F1 1563   2.013   0.974   0.397 -0.8228 -0.1193 -0.3165
  119fsi     S1 1564   1.896   0.913   0.313 -0.3063  0.0768  0.3051
  119fsi      N 1565   1.836   1.042   0.246 -0.3346 -0.9807 -0.5231
  119fsi     O1 1566   1.961   0.835   0.206  0.6366  0.2446  0.2113
  119fsi     O2 1567   1.805   0.857   0.412 -0.0069 -0.5075  0.0446
  119fsi     S2 1568   1.696   1.108   0.244 -0.1959 -0.0837 -0.0304
  119fsi     O3 1569   1.703   1.253   0.242 -0.3155  0.6589  0.1576
  119fsi     O4 1570   1.594   1.048   0.324 -0.1181 -0.0012 -0.1154
  119fsi     F2 1571   1.651   1.073   0.098 -0.5268 -0.2446  0.3469
  120fsi     F1 1572   0.270   0.721   2.328 -0.0026  0.5554  0.1893
  120fsi     S1 1573   0.290   0.655   2.471 -0.1797  0.0797 -0.2409
  120fsi      N 1574   0.314   0.501   2.439  0.0481 -0.8510 -0.0476
  120fsi     O1 1575   0.407   0.718   2.515  0.0266 -0.1677  0.0512
  120fsi     O2 1576   0.167   0.678   2.540  0.2042 -0.4200  0.4818
  120fsi     S2 1577   0.449   0.425   2.415  0.0991  0.5552 -0.0795
  120fsi     O3 1578   0.554   0.508   2.372 -0.5937  0.1603  0.0676
  120fsi     O4 1579   0.436   0.296   2.353  0.4892  0.6386 -0.3039
  120fsi     F2 1580   0.499   0.398   2.560 -0.5695  0.7597 -0.1586
  121fsi     F1 1581   2.610   1.241   0.796 -0.1139  0.2851  0.1673
  121fsi     S1 1582   2.556   1.184   0.932  0.0096 -0.3601  0.3099
  121fsi      N 1583   2.416   1.241   0.944  0.0348 -0.3011  0.5103
  121fsi     O1 1584   2.548   1.047   0.894  0.4248 -0.4816  0.3493
  121fsi     O2 1585   2.656   1.226   1.032  0.2112 -0.2166  0.4987
  121fsi     S2 1586   2.330   1.268   1.076 -0.0608  0.1217  0.0465
  121fsi     O3 1587   2.248   1.383   1.062 -0.7220  0.4646 -0.8222
  121fsi     O4 1588   2.401   1.243   1.200 -0.1060 -0.1537  0.3228
  121fsi     F2 1589   2.221   1.152   1.071 -0.2214 -0.2264  0.6730
  122fsi     F1 1590   0.245   0.148   0.461 -0.4742  0.3248 -0.3064
  122fsi     S1 1591   0.178   0.182   0.324 -0.1411  0.2115 -0.3390
  122fsi      N 1592   0.240   0.084   0.217  0.2048  0.0125  0.1985
  122fsi     O1 1593   0.035   0.164   0.345 -0.6120  0.5350  0.5460
  122fsi     O2 1594   0.213   0.319   0.310  0.1790  0.4563  0.2119
  122fsi     S2 1595   0.329   0.116   0.095  0.1113  0.0264  0.4214
  122fsi     O3 1596   0.406   0.233   0.114  0.6017  0.1758  0.2614
  122fsi     O4 1597   0.271   0.091  -0.032  0.1244 -0.1296 -0.5167
  122fsi     F2 1598   0.435   0.003   0.108  0.1885 -0.0259 -0.0490
  123fsi     F1 1599   2.474   0.459   1.444  0.7067  0.3286  0.4478
  123fsi     S1 1600   2.356   0.464   1.548 -0.0728 -0.0409 -0.1774
  123fsi      N 1601   2.403   0.559   1.669  0.3544  0.5090 -0.6671
  123fsi     O1 1602   2.253   0.530   1.481 -0.1881  0.2108  0.0009
  123fsi     O2 1603   2.340   0.325   1.592 -0.0709 -0.8913  0.1113
  123fsi     S2 1604   2.375   0.710   1.700 -0.3953 -0.8079  0.2773
  123fsi     O3 1605   2.261   0.762   1.632  0.2849 -0.1187  0.9195
  123fsi     O4 1606   2.491   0.791   1.708  0.2734  0.0041  0.5198
  123fsi     F2 1607   2.311   0.697   1.846 -0.1322  0.0891 -0.5954
  124fsi     F1 1608   1.151   0.531   1.539 -0.8250  0.0053  0.3058
  124fsi     S1 1609   1.244   0.423   1.487 -0.1827  0.3366  0.0003
  124fsi      N 1610   1.189   0.385   1.343  0.0196  0.8807 -0.4669
  124fsi     O1 1611   1.372   0.496   1.473  0.4494  0.1487  0.6695
  124fsi     O2 1612   1.233   0.319   1.587 -0.1268  0.2712 -0.2179
  124fsi     S2 1613   1.076   0.279   1.308 -0.2502  0.2482  0.2351
  124fsi     O3 1614   0.984   0.325   1.211  0.6071 -0.1023  0.4789
  124fsi     O4 1615   1.016   0.216   1.424 -0.1003  0.7950  0.7029
  124fsi     F2 1616   1.150   0.162   1.234 -0.3495  0.0231  0.1053
  125fsi     F1 1617   0.256   1.170   2.678 -0.2058  0.2612  0.2249
  125fsi     S1 1618   0.260   1.028   2.599  0.1290 -0.2843 -0.3400
  125fsi      N 1619   0.141   1.047   2.502  0.6573 -0.1058  0.0431
  125fsi     O1 1620   0.384   1.040   2.528 -0.1047 -0.7641  0.0190
  125fsi     O2 1621   0.259   0.930   2.705  0.2607  0.1199 -0.0238
  125fsi     S2 1622   0.006   0.967   2.484 -0.1622 -0.0895  0.0394
  125fsi     O3 1623  -0.035   0.874   2.592 -0.0220  0.5149 -0.0347
  125fsi     O4 1624  -0.009   0.911   2.353  0.0536  0.7166 -0.7078
  125fsi     F2 1625  -0.104   1.079   2.495  0.1995  0.0284  0.3748
  126fsi     F1 1626   0.648   2.799   0.324 -0.1613  0.3917 -0.5113
  126fsi     S1 1627   0.754   2.893   0.405 -0.0676 -0.0134 -0.0249
  126fsi      N 1628   0.690   3.024   0.446 -0.0320  0.3917  0.1473
  126fsi     O1 1629   0.788   2.811   0.514 -0.0978  0.8983 -0.4969
  126fsi     O2 1630   0.853   2.911   0.304 -0.1682  0.1081 -0.1313
  126fsi     S2 1631   0.695   3.172   0.384 -0.1725  0.1089 -0.2789
  126fsi     O3 1632   0.699   3.181   0.242 -0.0285  0.2327 -0.2534
  126fsi     O4 1633   0.780   3.260   0.462 -0.2669  0.5565 -0.6947
  126fsi     F2 1634   0.546   3.220   0.423 -0.1072 -0.2019 -0.1803
  127fsi     F1 1635   2.348   2.650   1.440 -0.1717  0.2592  0.0959
  127fsi     S1 1636   2.307   2.660   1.294  0.4022 -0.4249  0.1421
  127fsi      N 1637   2.169   2.728   1.298 -0.6290  0.8326  0.2114
  127fsi     O1 1638   2.407   2.755   1.246 -0.3209 -1.4318  0.4441
  127fsi     O2 1639   2.310   2.527   1.249  0.3259  0.0155 -0.0327
  127fsi     S2 1640   2.030   2.664   1.324  0.3139 -0.0500  0.3103
  127fsi     O3 1641   2.037   2.536   1.388  0.0107 -0.8323  0.3739
  127fsi     O4 1642   1.942   2.669   1.212 -0.2897  0.0878  0.2409
  127fsi     F2 1643   1.963   2.762   1.434  0.0552  0.1129 -1.0007
  128fsi     F1 1644   0.812   2.117   2.277  0.3849 -0.5023 -0.1004
  128fsi     S1 1645   0.916   2.149   2.380  0.0162  0.0612  0.3463
  128fsi      N 1646   1.044   2.127   2.299 -0.1482  0.4046 -0.2910
  128fsi     O1 1647   0.896   2.291   2.414 -0.0634 -0.1399 -0.3363
  128fsi     O2 1648   0.899   2.060   2.492  0.1679  0.4614 -0.2876
  128fsi     S2 1649   1.113   2.218   2.188 -0.3069  0.0681 -0.3388
  128fsi     O3 1650   1.040   2.337   2.151  0.3254  0.3198  0.3337
  128fsi     O4 1651   1.179   2.132   2.093  0.9792 -0.1391  0.2664
  128fsi     F2 1652   1.226   2.288   2.269 -0.4860 -0.1002 -0.2305
  129fsi     F1 1653   1.609   2.297   2.057 -0.0986 -0.3992  0.2937
  129fsi     S1 1654   1.657   2.157   2.106 -0.1129  0.8363 -0.5137
  129fsi      N 1655   1.718   2.194   2.242 -0.1180 -0.1956  0.3635
  129fsi     O1 1656   1.550   2.068   2.116  0.1164  0.2640  0.0193
  129fsi     O2 1657   1.760   2.116   2.016 -0.5248 -0.2990  0.5035
  129fsi     S2 1658   1.647   2.230   2.375 -0.0701 -0.1271  0.0588
  129fsi     O3 1659   1.711   2.195   2.497 -0.5183 -0.4327 -0.3325
  129fsi     O4 1660   1.505   2.209   2.367 -0.7476  0.3008 -0.1639
  129fsi     F2 1661   1.670   2.389   2.370  0.0381  0.2595 -0.1187
  130fsi     F1 1662   2.055   0.167   2.068 -0.5643 -0.2445  0.4022
  130fsi     S1 1663   2.136   0.057   1.996  0.1798  0.0064  0.1214
  130fsi      N 1664   2.049   0.042   1.869  0.8545 -0.2665 -0.0957
  130fsi     O1 1665   2.266   0.120   1.980 -0.5767  0.2195 -0.1699
  130fsi     O2 1666   2.124  -0.059   2.084  0.0759 -0.0275 -0.2559
  130fsi     S2 1667   2.094   0.025   1.720 -0.1761  0.3780 -0.1835
  130fsi     O3 1668   2.230   0.062   1.704 -0.2867 -0.7694 -0.7047
  130fsi     O4 1669   2.003   0.082   1.630  0.6162  0.0261  0.5507
  130fsi     F2 1670   2.091  -0.128   1.696 -0.3216 -0.1366  0.0228
  131fsi     F1 1671   2.591   0.667   2.696 -0.3573  0.1495  0.4081
  131fsi     S1 1672   2.655   0.528   2.652  0.1656  0.3664 -0.0354
  131fsi      N 1673   2.652   0.528   2.489 -0.3620 -0.0969 -0.5520
  131fsi     O1 1674   2.796   0.543   2.689 -0.4211  0.5221  0.3461
  131fsi     O2 1675   2.581   0.425   2.709 -0.2774  0.3364 -0.1894
  131fsi     S2 1676   2.533   0.483   2.395 -0.4551  0.2984 -0.3875
  131fsi     O3 1677   2.423   0.416   2.452 -0.0879  0.2647 -0.1763
  131fsi     O4 1678   2.586   0.425   2.274 -0.1664 -0.1778 -0.4387
  131fsi     F2 1679   2.466   0.637   2.350  0.6788 -0.2080  0.1309
  132fsi     F1 1680   0.503   2.413   0.825  0.7743  0.3054  0.4422
  132fsi     S1 1681   0.602   2.296   0.807  0.1707  0.1742 -0.0982
  132fsi      N 1682   0.731   2.364   0.754 -0.3225  0.3458 -0.0913
  132fsi     O1 1683   0.621   2.226   0.931 -0.2493  0.3540  0.1599
  132fsi     O2 1684   0.533   2.225   0.701  0.1271 -0.6928  0.2360
  132fsi     S2 1685   0.852   2.425   0.836 -0.0763  0.1535  0.2903
  132fsi     O3 1686   0.819   2.459   0.973  0.1379  0.2499 -0.5125
  132fsi     O4 1687   0.937   2.519   0.772  0.3445  0.3779  0.0180
  132fsi     F2 1688   0.946   2.300   0.856  0.2348  0.1368  0.3306
  133fsi     F1 1689   1.851   2.595   2.473 -0.3834  0.0463  0.2873
  133fsi     S1 1690   1.865   2.645   2.620 -0.1745 -0.2938 -0.2920
  133fsi      N 1691   2.005   2.594   2.664  0.1926 -0.2277  0.0152
  133fsi     O1 1692   1.854   2.785   2.602 -0.6358  0.2499  0.2636
  133fsi     O2 1693   1.765   2.577   2.698 -0.0902 -0.1380  0.4510
  133fsi     S2 1694   2.121   2.669   2.739  0.0804 -0.2559 -0.0306
  133fsi     O3 1695   2.183   2.584   2.832 -0.7572 -0.1257 -0.2402
  133fsi     O4 1696   2.083   2.795   2.786  0.4498 -0.6996  0.0314
  133fsi     F2 1697   2.230   2.693   2.631  0.0478  0.4445 -0.5947
  134fsi     F1 1698   0.536   2.649   2.335 -0.3827  0.0883  0.1572
  134fsi     S1 1699   0.621   2.525   2.380 -0.0234  0.5508 -0.1719
  134fsi      N 1700   0.762   2.586   2.397 -0.0715 -0.8083  0.1443
  134fsi     O1 1701   0.560   2.491   2.509  0.1371  0.0305 -0.1001
  134fsi     O2 1702   0.606   2.430   2.273 -0.0780 -0.0491 -0.3172
  134fsi     S2 1703   0.871   2.625   2.286 -0.0790  0.2142 -0.1137
  134fsi     O3 1704   0.838   2.578   2.152 -0.4696 -0.3347 -0.1951
  134fsi     O4 1705   1.004   2.600   2.339  0.0490  0.1525 -0.4166
  134fsi     F2 1706   0.865   2.779   2.280  0.1337  0.2386 -0.6242
  135fsi     F1 1707   0.104   2.090   2.354  0.8151 -0.2757  0.1716
  135fsi     S1 1708   0.077   2.202   2.458  0.0970 -0.3324 -0.2561
  135fsi      N 1709   0.061   2.327   2.361 -0.0991  0.4828  0.1866
  135fsi     O1 1710  -0.046   2.161   2.515  1.1066  0.4828 -0.1159
  135fsi     O2 1711   0.198   2.193   2.534 -0.1121 -0.4559 -0.1093
  135fsi     S2 1712   0.136   2.466   2.383 -0.0584 -0.0916 -0.5115
  135fsi     O3 1713   0.243   2.474   2.479 -1.1354  0.3134  0.1952
  135fsi     O4 1714   0.054   2.584   2.355 -0.5343  0.0694 -0.2531
  135fsi     F2 1715   0.231   2.472   2.256  0.4745 -0.1778  0.0287
  136fsi     F1 1716   2.457   0.372   0.001  0.0818  0.2134 -0.0528
  136fsi     S1 1717   2.316   0.437  -0.032  0.1044 -0.2581 -0.1883
  136fsi      N 1718   2.353   0.592  -0.029 -0.0341  0.1773 -0.0179
  136fsi     O1 1719   2.295   0.397  -0.166  0.4626  0.3935 -0.2650
  136fsi     O2 1720   2.243   0.379   0.075  0.2042  0.1787 -0.5482
  136fsi     S2 1721   2.268   0.712   0.023 -0.2202  0.0359  0.2371
  136fsi     O3 1722   2.133   0.674   0.056  0.2267  0.0390  0.4891
  136fsi     O4 1723   2.297   0.841  -0.034  0.6608  0.2019  0.5327
  136fsi     F2 1724   2.338   0.738   0.163 -0.1289 -0.8922  0.5025
  137fsi     F1 1725   2.001   0.351   2.758 -0.1921  0.2152  0.3674
  137fsi     S1 1726   1.926   0.315   2.893  0.2510 -0.1720  0.5589
  137fsi      N 1727   1.792   0.253   2.848 -0.4566 -0.4357  0.3953
  137fsi     O1 1728   2.017   0.211   2.950 -0.1785 -0.3755 -0.0729
  137fsi     O2 1729   1.897   0.436   2.965  0.0525 -0.3309  0.2099
  137fsi     S2 1730   1.756   0.102   2.813  0.3088  0.0832  0.1337
  137fsi     O3 1731   1.857   0.005   2.834  0.3220  0.6532  0.0513
  137fsi     O4 1732   1.705   0.094   2.676 -0.3486  0.1890 -0.7813
  137fsi     F2 1733   1.633   0.071   2.904  0.2403  0.3359 -0.1379
  138fsi     F1 1734   0.516   0.348   1.400  0.2088  0.0421  0.3056
  138fsi     S1 1735   0.619   0.254   1.330  0.0195  0.0895  0.0869
  138fsi      N 1736   0.681   0.358   1.224 -0.2297 -0.0589  0.9527
  138fsi     O1 1737   0.709   0.215   1.434 -0.2998 -0.5668 -0.5641
  138fsi     O2 1738   0.533   0.156   1.266 -0.6959  0.2283  0.0137
  138fsi     S2 1739   0.672   0.362   1.068  0.3791 -0.1983 -0.3118
  138fsi     O3 1740   0.651   0.234   1.008  0.6606 -0.1168 -0.1156
  138fsi     O4 1741   0.772   0.451   1.018  0.2040  0.2576  0.1619
  138fsi     F2 1742   0.539   0.445   1.039 -0.2415  0.0610  0.6470
  139fsi     F1 1743   0.822   1.845   0.251  0.0906  0.1578  0.2455
  139fsi     S1 1744   0.895   1.926   0.138  0.1875 -0.1748 -0.0743
  139fsi      N 1745   0.969   1.821   0.054  0.5964  0.0136 -0.0177
  139fsi     O1 1746   0.787   1.974   0.058  0.5167  0.1927 -0.3982
  139fsi     O2 1747   0.981   2.020   0.196  0.7468 -0.1845  0.1592
  139fsi     S2 1748   1.113   1.759   0.068 -0.3083  0.3744  0.1708
  139fsi     O3 1749   1.157   1.729   0.204 -0.0759  0.2156 -0.4076
  139fsi     O4 1750   1.215   1.812  -0.022  0.1567  0.0423  0.1270
  139fsi     F2 1751   1.079   1.617   0.015  0.4009 -0.5977 -0.2137
  140fsi     F1 1752   0.824   1.271   2.219  0.0931  0.2923 -0.2299
  140fsi     S1 1753   0.745   1.380   2.283 -0.2675  0.2115 -0.4290
  140fsi      N 1754   0.860   1.459   2.348 -1.1254 -0.1880 -0.1914
  140fsi     O1 1755   0.683   1.446   2.177  0.8397 -0.3824  0.2459
  140fsi     O2 1756   0.665   1.313   2.376 -0.3302  0.2640 -0.6067
  140fsi     S2 1757   0.960   1.569   2.285 -0.3088 -0.1392  0.0329
  140fsi     O3 1758   0.928   1.615   2.153  0.2323  0.2563 -0.0406
  140fsi     O4 1759   1.096   1.545   2.321 -0.3751  0.6425 -0.0365
  140fsi     F2 1760   0.909   1.693   2.371 -0.1766  0.2562 -0.0446
  141fsi     F1 1761   2.234   1.596   2.931  0.1302  0.1278 -0.2103
  141fsi     S1 1762   2.238   1.666   3.064  0.1370 -0.1225 -0.1827
  141fsi      N 1763   2.390   1.660   3.098 -0.1155  0.0096 -0.3494
  141fsi     O1 1764   2.184   1.800   3.040 -0.2806  0.4731 -0.4760
  141fsi     O2 1765   2.159   1.579   3.153  0.1209  0.3420 -0.3652
  141fsi     S2 1766   2.468   1.532   3.148 -0.0678 -0.3993 -0.1462
  141fsi     O3 1767   2.444   1.412   3.072  0.0956 -0.0838  0.5323
  141fsi     O4 1768   2.469   1.526   3.289 -0.6988  0.4432  0.0247
  141fsi     F2 1769   2.611   1.559   3.118  0.3410  0.0283  0.5557
  142fsi     F1 1770   1.066   0.696   2.288 -0.1781 -0.2446  0.2161
  142fsi     S1 1771   1.024   0.557   2.336 -0.1693 -0.1710  0.1141
  142fsi      N 1772   1.030   0.573   2.491  0.0494 -0.3419 -1.1408
  142fsi     O1 1773   0.894   0.537   2.285 -0.2767  0.7770 -0.2510
  142fsi     O2 1774   1.124   0.469   2.284  0.2443 -1.1808 -0.1722
  142fsi     S2 1775   0.922   0.572   2.602  0.1158 -0.0902  0.0239
  142fsi     O3 1776   0.786   0.568   2.563 -0.6567 -0.1294  0.5480
  142fsi     O4 1777   0.954   0.663   2.710 -0.0800  0.2199 -0.2757
  142fsi     F2 1778   0.951   0.427   2.673  0.6573 -0.2426  0.0887
  143fsi     F1 1779   1.472   2.601   2.755 -0.2108  0.4440  0.3066
  143fsi     S1 1780   1.425   2.724   2.670 -0.4154  0.0742  0.1826
  143fsi      N 1781   1.300   2.784   2.744 -0.4097  0.4216 -0.0359
  143fsi     O1 1782   1.536   2.812   2.679 -0.3755  0.0270 -0.0984
  143fsi     O2 1783   1.395   2.665   2.549  0.4269  0.4039  0.3158
  143fsi     S2 1784   1.145   2.768   2.732  0.2252  0.0165 -0.0374
  143fsi     O3 1785   1.071   2.799   2.849 -0.1007  0.0046 -0.3986
  143fsi     O4 1786   1.108   2.652   2.653 -0.4263 -0.7701  0.6507
  143fsi     F2 1787   1.098   2.877   2.638  0.3252 -0.3883  0.4826
  144fsi     F1 1788   0.411   1.464   1.717 -0.0004  0.3338  0.6284
  144fsi     S1 1789   0.538   1.441   1.808  0.1347  0.0164  0.0461
  144fsi      N 1790   0.564   1.287   1.788 -0.3120  0.7422  0.0145
  144fsi     O1 1791   0.643   1.521   1.739  0.2504  0.4130  0.0349
  144fsi     O2 1792   0.516   1.483   1.942  0.4991 -0.1702  0.2852
  144fsi     S2 1793   0.511   1.164   1.881  0.2949 -0.4996  0.3522
  144fsi     O3 1794   0.531   1.036   1.819 -0.1064 -0.2989  0.3537
  144fsi     O4 1795   0.382   1.182   1.932  0.0515  0.7013 -0.2697
  144fsi     F2 1796   0.602   1.174   2.008 -0.3342  0.0661 -0.2721
  145fsi     F1 1797   2.460   1.518   2.039 -0.6865  0.2786  0.4526
  145fsi     S1 1798   2.492   1.459   2.179  0.4670  0.4943 -0.0233
  145fsi      N 1799   2.497   1.305   2.142  0.0289  0.6905 -0.7925
  145fsi     O1 1800   2.618   1.518   2.215 -0.2506 -0.0262 -0.1572
  145fsi     O2 1801   2.374   1.481   2.266 -0.5448  0.0808  0.1853
  145fsi     S2 1802   2.619   1.203   2.126 -0.3584 -0.2185  0.5497
  145fsi     O3 1803   2.749   1.256   2.152 -0.0026 -0.3540 -0.0820
  145fsi     O4 1804   2.600   1.099   2.023  0.6214  0.5213 -0.2223
  145fsi     F2 1805   2.594   1.127   2.264 -0.8129  0.0643  0.0847
  146fsi     F1 1806   1.963   0.381   1.682  0.6535  0.4036 -0.0681
  146fsi     S1 1807   1.991   0.465   1.811 -0.2722  0.1995  0.0266
  146fsi      N 1808   1.989   0.615   1.755 -0.0308 -0.2191  0.0296
  146fsi     O1 1809   1.876   0.439   1.897  0.1846  0.7057 -0.1041
  146fsi     O2 1810   2.125   0.421   1.853 -0.1527 -0.2796 -0.1159
  146fsi     S2 1811   1.858   0.708   1.729  0.2655  0.1879 -0.2367
  146fsi     O3 1812   1.742   0.630   1.696  0.2424  0.5536  0.0748
  146fsi     O4 1813   1.880   0.825   1.641  0.4111 -0.0448  0.3125
  146fsi     F2 1814   1.835   0.762   1.877  0.8660 -0.6975 -0.0919
  147fsi     F1 1815   1.114   1.649   1.308 -0.6493  0.2545  0.4277
  147fsi     S1 1816   1.038   1.562   1.409 -0.4567  0.0463 -0.4524
  147fsi      N 1817   0.919   1.495   1.328  0.2007 -0.2273  0.3977
  147fsi     O1 1818   1.132   1.467   1.452 -0.0020 -0.2593 -0.5743
  147fsi     O2 1819   0.986   1.654   1.499  0.0945 -0.7507  0.2174
  147fsi     S2 1820   0.921   1.378   1.222 -0.1334 -0.0439  0.1370
  147fsi     O3 1821   0.799   1.299   1.222  0.4885 -0.6509  0.1044
  147fsi     O4 1822   1.043   1.308   1.227  0.1914 -0.0858 -0.1780
  147fsi     F2 1823   0.923   1.446   1.082 -0.2899  0.2669  0.4048
  148fsi     F1 1824   3.004   1.710   1.131 -0.7486  0.3083 -0.0752
  148fsi     S1 1825   3.072   1.587   1.205 -0.0055  0.0113 -0.4864
  148fsi      N 1826   3.035   1.618   1.352 -0.5356  0.3224  0.1922
  148fsi     O1 1827   3.007   1.465   1.168  0.1516 -0.2314  0.1877
  148fsi     O2 1828   3.210   1.603   1.170 -0.1035 -0.2526  0.1160
  148fsi     S2 1829   3.131   1.652   1.477 -0.0795 -0.0161 -0.3919
  148fsi     O3 1830   3.062   1.729   1.580  0.2135 -0.6058  0.1426
  148fsi     O4 1831   3.269   1.691   1.444 -0.1873  0.1769  0.4783
  148fsi     F2 1832   3.166   1.518   1.545  0.8352  0.3877 -0.0755
  149fsi     F1 1833   2.902   2.502   0.789 -0.0188 -0.1541  0.3568
  149fsi     S1 1834   2.984   2.599   0.695 -0.7706  0.0047  0.5564
  149fsi      N 1835   3.053   2.503   0.591  0.7204 -0.0558 -0.3381
  149fsi     O1 1836   2.884   2.686   0.629 -0.4626  0.2954 -0.0245
  149fsi     O2 1837   3.079   2.657   0.786 -0.8095  0.3225 -0.1537
  149fsi     S2 1838   3.164   2.392   0.597  0.0158 -0.0932 -0.1630
  149fsi     O3 1839   3.238   2.385   0.724  0.4362 -0.1190  0.0194
  149fsi     O4 1840   3.245   2.381   0.476 -0.4696 -0.0484  0.2290
  149fsi     F2 1841   3.078   2.260   0.596  0.7847  0.4474 -0.3539
  150fsi     F1 1842   2.780   1.485   0.943  0.1797 -0.4460 -0.4120
  150fsi     S1 1843   2.880   1.467   0.820  0.0211 -0.2942  0.0597
  150fsi      N 1844   2.789   1.496   0.697  0.3964  0.0595 -0.0397
  150fsi     O1 1845   2.973   1.570   0.841 -0.2708 -0.0338  0.3710
  150fsi     O2 1846   2.933   1.329   0.830 -0.0415  0.2871 -0.0583
  150fsi     S2 1847   2.814   1.561   0.557 -0.0469 -0.2904  0.3390
  150fsi     O3 1848   2.702   1.551   0.465 -0.2745 -0.0277 -0.7205
  150fsi     O4 1849   2.947   1.550   0.501 -0.3783 -0.0423  0.1685
  150fsi     F2 1850   2.820   1.711   0.598  0.1078  0.3649  0.3231
  151fsi     F1 1851   1.434   0.360   0.361  0.2837 -0.3909  0.0949
  151fsi     S1 1852   1.404   0.351   0.512  0.3247 -0.1237 -0.2005
  151fsi      N 1853   1.261   0.414   0.529 -0.1337  0.3357  0.9532
  151fsi     O1 1854   1.418   0.216   0.550 -0.1467  0.6603 -0.0784
  151fsi     O2 1855   1.503   0.437   0.565  0.1172  0.0154  0.0602
  151fsi     S2 1856   1.120   0.354   0.502 -0.4139  0.1843 -0.0431
  151fsi     O3 1857   1.023   0.435   0.566  0.7154  0.3695 -0.4409
  151fsi     O4 1858   1.095   0.216   0.516 -0.0104  0.2256  0.1146
  151fsi     F2 1859   1.090   0.383   0.347  0.3123 -0.4473  0.0481
  152fsi     F1 1860   0.623   0.361   1.761 -1.0625  0.2654  0.2697
  152fsi     S1 1861   0.769   0.361   1.786 -0.1228  0.4639  0.1781
  152fsi      N 1862   0.833   0.431   1.659  0.3062  0.4980 -0.0704
  152fsi     O1 1863   0.793   0.428   1.910 -0.4895 -0.2716 -0.0118
  152fsi     O2 1864   0.794   0.225   1.784  0.2779 -0.2239 -0.5118
  152fsi     S2 1865   0.825   0.583   1.615  0.2100  0.2400 -0.1434
  152fsi     O3 1866   0.721   0.664   1.672 -0.1059 -0.0039 -0.1949
  152fsi     O4 1867   0.841   0.592   1.477  0.0587  0.0254  0.0790
  152fsi     F2 1868   0.960   0.645   1.674  0.4357 -0.2309 -0.2382
  153fsi     F1 1869   2.595   2.441   1.483  0.5517  0.0213 -0.8146
  153fsi     S1 1870   2.746   2.455   1.435 -0.4090 -0.1963 -0.0831
  153fsi      N 1871   2.730   2.506   1.289 -0.3461  0.4252 -0.7056
  153fsi     O1 1872   2.800   2.558   1.518 -0.4989  0.1422  0.6782
  153fsi     O2 1873   2.793   2.320   1.450 -0.2124  0.5905 -0.1038
  153fsi     S2 1874   2.669   2.418   1.175 -0.3474 -0.1750 -0.3625
  153fsi     O3 1875   2.657   2.481   1.046 -0.0448  0.1573 -0.9965
  153fsi     O4 1876   2.559   2.335   1.216 -0.3404  0.2583 -0.3250
  153fsi     F2 1877   2.778   2.309   1.136  0.4269 -0.0820 -0.3687
  154fsi     F1 1878   1.914   1.844   0.958  0.2008  0.2420  0.1856
  154fsi     S1 1879   2.005   1.742   0.889 -0.0970 -0.0853 -0.4529
  154fsi      N 1880   1.895   1.653   0.817  0.1689 -1.0935 -0.2858
  154fsi     O1 1881   2.088   1.816   0.798 -0.2403  0.3022  0.4268
  154fsi     O2 1882   2.064   1.664   0.992 -0.3976 -0.5209 -0.9458
  154fsi     S2 1883   1.879   1.626   0.666 -0.2999  0.1219 -0.0099
  154fsi     O3 1884   1.789   1.518   0.645  0.2703  0.1433 -0.4508
  154fsi     O4 1885   2.000   1.633   0.582  0.3195 -0.6141 -0.1481
  154fsi     F2 1886   1.793   1.741   0.623 -0.5443  0.4737  0.1211
  155fsi     F1 1887   1.188   1.028   0.902 -0.0244 -0.3643 -0.0690
  155fsi     S1 1888   1.115   1.002   1.046 -0.0451 -0.1462 -0.2751
  155fsi      N 1889   1.111   0.844   1.067 -0.2936  0.7891  0.5030
  155fsi     O1 1890   1.205   1.065   1.138  0.2391  0.0646  0.0143
  155fsi     O2 1891   0.985   1.060   1.033 -0.0546 -0.3856 -0.0806
  155fsi     S2 1892   0.990   0.743   1.055 -0.0340  0.1633  0.1300
  155fsi     O3 1893   0.864   0.812   1.034 -0.0263 -0.0987  0.0373
  155fsi     O4 1894   0.994   0.647   1.161 -0.6159 -0.5699  0.0109
  155fsi     F2 1895   1.021   0.660   0.927 -0.3709 -1.0283  0.4645
  156fsi     F1 1896   2.162   1.691   2.441  0.4490  0.0910 -0.1173
  156fsi     S1 1897   2.190   1.605   2.575 -0.4690 -0.5155 -0.2653
  156fsi      N 1898   2.049   1.574   2.637 -0.0183  0.1848  0.5176
  156fsi     O1 1899   2.258   1.484   2.531  0.1340  0.3997  0.4048
  156fsi     O2 1900   2.274   1.694   2.659 -0.4330 -0.4619  0.1973
  156fsi     S2 1901   1.945   1.682   2.683 -0.6724  0.0995  0.1445
  156fsi     O3 1902   2.010   1.790   2.755  0.4305  0.7196 -0.0198
  156fsi     O4 1903   1.837   1.615   2.745  0.0454  0.4234 -0.4195
  156fsi     F2 1904   1.881   1.739   2.551  0.5366  0.1078  0.0543
  157fsi     F1 1905   0.336   2.554   0.219  0.7363 -0.4055  0.2173
  157fsi     S1 1906   0.343   2.409   0.156  0.1003 -0.2181  0.1179
  157fsi      N 1907   0.406   2.435   0.013 -0.2836  0.2236 -1.1076
  157fsi     O1 1908   0.433   2.350   0.253  0.1036 -0.1763 -0.3760
  157fsi     O2 1909   0.203   2.369   0.148  0.4287 -0.1409  0.2332
  157fsi     S2 1910   0.337   2.499  -0.118  0.0158  0.2943  0.1912
  157fsi     O3 1911   0.224   2.574  -0.092 -0.4247  0.5529 -0.2355
  157fsi     O4 1912   0.343   2.412  -0.231  1.1301  0.2005 -0.2993
  157fsi     F2 1913   0.439   2.610  -0.155 -0.7313  0.1504  0.3201
  158fsi     F1 1914   2.979   1.132   2.821 -0.2537 -0.3278 -0.1728
  158fsi     S1 1915   2.999   1.100   2.967 -0.1382  0.2648  0.0062
  158fsi      N 1916   2.936   0.957   2.966  1.0884  0.6050 -0.2136
  158fsi     O1 1917   3.145   1.100   2.984 -0.0295 -0.1165 -0.1009
  158fsi     O2 1918   2.929   1.200   3.039  0.0687  0.1795  0.1015
  158fsi     S2 1919   3.000   0.817   2.968  0.0764 -0.3795  0.2176
  158fsi     O3 1920   3.147   0.814   2.952  0.1038 -0.3717  0.0819
  158fsi     O4 1921   2.928   0.725   2.884 -0.2286 -0.0717 -0.8044
  158fsi     F2 1922   2.974   0.771   3.114 -0.0956 -0.3805  0.6553
  159fsi     F1 1923   2.325   2.285   1.670  0.0201  0.0685  0.0630
  159fsi     S1 1924   2.257   2.227   1.547 -0.0850  0.5006 -0.0489
  159fsi      N 1925   2.107   2.256   1.573  0.0514 -0.1037  0.2509
  159fsi     O1 1926   2.317   2.304   1.439  0.9677 -0.5855 -0.0826
  159fsi     O2 1927   2.291   2.087   1.545 -0.4750 -0.3738 -0.4032
  159fsi     S2 1928   2.002   2.161   1.637 -0.1429  0.4811 -0.3408
  159fsi     O3 1929   2.007   2.015   1.620 -0.1821  0.5359 -0.3547
  159fsi     O4 1930   1.869   2.202   1.616  0.9093 -0.2161  0.4560
  159fsi     F2 1931   2.022   2.177   1.791 -0.3250 -0.1563  0.3247
  160fsi     F1 1932   2.769   1.493   1.447  0.0941  0.4408 -0.1667
  160fsi     S1 1933   2.726   1.339   1.452 -0.0772 -0.0612  0.2991
  160fsi      N 1934   2.827   1.287   1.564 -1.0003 -0.1338  0.8811
  160fsi     O1 1935   2.585   1.349   1.487 -0.4888  0.1554  0.1620
  160fsi     O2 1936   2.761   1.300   1.322  0.6858  0.2948  0.0106
  160fsi     S2 1937   2.790   1.229   1.706  0.2588 -0.3709 -0.2354
  160fsi     O3 1938   2.905   1.202   1.786  0.2741  0.4690  0.0852
  160fsi     O4 1939   2.685   1.131   1.695 -0.0440  0.2133  0.2733
  160fsi     F2 1940   2.727   1.353   1.773  0.2870 -0.2713  0.3197
  161fsi     F1 1941   1.291   0.080   2.684  0.1566 -0.6203  0.4494
  161fsi     S1 1942   1.329   0.113   2.522  0.5267 -0.0901 -0.0750
  161fsi      N 1943   1.343  -0.024   2.452  0.1283 -0.2668 -0.0185
  161fsi     O1 1944   1.221   0.199   2.493  0.3796  0.0639  1.0196
  161fsi     O2 1945   1.459   0.175   2.543  0.8151 -0.0697  0.4075
  161fsi     S2 1946   1.290  -0.081   2.319 -0.4402  0.3933 -0.0292
  161fsi     O3 1947   1.209   0.010   2.245  0.0092  0.4096 -0.1541
  161fsi     O4 1948   1.239  -0.217   2.342 -0.8203 -0.5968  0.4336
  161fsi     F2 1949   1.427  -0.096   2.238 -0.3427 -0.3282  0.0009
  162fsi     F1 1950   0.829   2.775   1.137 -0.2450  0.2561  0.1322
  162fsi     S1 1951   0.813   2.888   1.249 -0.1960 -0.0531  0.2461
  162fsi      N 1952   0.958   2.920   1.305  0.0516 -0.1576  0.0306
  162fsi     O1 1953   0.754   2.998   1.164  0.6993  0.3762 -0.6598
  162fsi     O2 1954   0.722   2.832   1.345 -0.4660  0.0894  0.3907
  162fsi     S2 1955   1.006   2.909   1.452 -0.3551  0.5694  0.1500
  162fsi     O3 1956   0.930   2.989   1.544  0.5330  0.2086  0.7912
  162fsi     O4 1957   1.154   2.914   1.455  0.3358  0.5340  0.4259
  162fsi     F2 1958   0.980   2.757   1.489  0.0009 -0.2641  0.3474
  163fsi     F1 1959   2.519   0.554   0.855 -0.0249 -0.6941 -0.0841
  163fsi     S1 1960   2.465   0.406   0.890 -0.3319  0.4520 -0.0966
  163fsi      N 1961   2.508   0.388   1.039 -0.0068  0.1752 -0.2425
  163fsi     O1 1962   2.324   0.416   0.878  0.0955  0.1759 -0.0062
  163fsi     O2 1963   2.536   0.328   0.797 -0.2809 -0.2640  0.2925
  163fsi     S2 1964   2.622   0.300   1.109  0.4133  0.3109 -0.1069
  163fsi     O3 1965   2.668   0.193   1.026 -0.7543 -0.1069 -0.4855
  163fsi     O4 1966   2.596   0.267   1.244  0.5052  0.1432 -0.6214
  163fsi     F2 1967   2.745   0.392   1.122 -0.2689  0.4384 -0.5493
  164fsi     F1 1968   2.150   0.155   0.527  0.0857  0.6524 -0.1129
  164fsi     S1 1969   2.210   0.277   0.448 -0.2304 -0.0710  0.1258
  164fsi      N 1970   2.082   0.326   0.364 -0.4014  0.0120 -0.3486
  164fsi     O1 1971   2.256   0.365   0.550  0.2361  0.0108  0.2585
  164fsi     O2 1972   2.310   0.220   0.359  0.0358  0.1142  0.1285
  164fsi     S2 1973   2.021   0.466   0.367 -0.2942 -0.0791 -0.1650
  164fsi     O3 1974   1.932   0.497   0.481 -0.0086  0.0143  0.1496
  164fsi     O4 1975   1.970   0.508   0.236 -0.5573  0.3990  0.1896
  164fsi     F2 1976   2.143   0.558   0.389 -0.1054 -0.3215 -0.0552
  165fsi     F1 1977   2.129   0.609   1.134  0.0065  0.3652  0.1432
  165fsi     S1 1978   2.031   0.720   1.191  0.0892  0.1015  0.1369
  165fsi      N 1979   1.904   0.638   1.207  0.2786  0.0038 -0.1956
  165fsi     O1 1980   2.101   0.764   1.306 -0.2108 -0.3428  0.5809
  165fsi     O2 1981   2.010   0.814   1.087 -0.3598  0.3138 -0.7002
  165fsi     S2 1982   1.830   0.574   1.336  0.4013 -0.1325  0.0167
  165fsi     O3 1983   1.931   0.554   1.440  0.9388  0.2854 -0.3621
  165fsi     O4 1984   1.732   0.473   1.299  0.1149 -0.1846  0.1917
  165fsi     F2 1985   1.747   0.695   1.395 -0.5171  0.1402  0.1753
  166fsi     F1 1986   2.728   2.193   0.837  0.0172 -0.1410  0.1724
  166fsi     S1 1987   2.613   2.185   0.729 -0.0398  0.3687 -0.1500
  166fsi      N 1988   2.487   2.253   0.797  0.4305  1.0053  0.3471
  166fsi     O1 1989   2.663   2.267   0.622  0.5121 -0.1934 -0.2101
  166fsi     O2 1990   2.603   2.043   0.706  0.0225  0.3924  0.1280
  166fsi     S2 1991   2.382   2.188   0.893 -0.0797  0.4034 -0.3893
  166fsi     O3 1992   2.344   2.283   0.996  0.8243 -0.3691 -0.5753
  166fsi     O4 1993   2.406   2.049   0.936  0.2362  0.2365  0.6205
  166fsi     F2 1994   2.253   2.181   0.807 -0.1820  0.1649 -0.0980
  167fsi     F1 1995   0.816   0.907   1.874 -0.4348 -0.1309  0.0999
  167fsi     S1 1996   0.874   0.875   2.020 -0.2602 -0.1645 -0.4436
  167fsi      N 1997   0.788   0.964   2.120 -0.1030 -0.3890 -0.4685
  167fsi     O1 1998   0.858   0.735   2.043  0.1351  0.0687  0.6103
  167fsi     O2 1999   1.007   0.926   2.015  0.0282 -0.4624 -0.2604
  167fsi     S2 2000   0.680   0.918   2.233 -0.1310 -0.0061  0.4616
  167fsi     O3 2001   0.645   1.025   2.318 -0.2416 -0.3052 -0.8993
  167fsi     O4 2002   0.718   0.795   2.297 -0.3296 -0.7476  0.2709
  167fsi     F2 2003   0.550   0.885   2.147 -0.5355  0.2946  0.3321
  168fsi     F1 2004   0.295   2.984   0.751 -0.1559  0.1918  0.5595
  168fsi     S1 2005   0.263   3.053   0.886 -0.0924  0.0268 -0.3147
  168fsi      N 2006   0.221   2.933   0.979  0.3959  0.7561  0.3557
  168fsi     O1 2007   0.383   3.119   0.916 -0.5026 -0.1190 -0.4797
  168fsi     O2 2008   0.152   3.141   0.863  0.2717 -0.0072  0.3224
  168fsi     S2 2009   0.301   2.845   1.080 -0.0938 -0.1255 -0.1402
  168fsi     O3 2010   0.418   2.901   1.136  0.4561  0.6373 -0.0315
  168fsi     O4 2011   0.305   2.705   1.057  0.2595  0.1719  0.6527
  168fsi     F2 2012   0.218   2.851   1.207 -0.0162 -0.6417  0.4165
  169fsi     F1 2013   2.313   0.880   0.904 -0.2591  0.2157  0.0552
  169fsi     S1 2014   2.226   0.834   0.782  0.5582  0.2367  0.1086
  169fsi      N 2015   2.306   0.881   0.656 -0.1814  0.0436  0.7576
  169fsi     O1 2016   2.214   0.692   0.798 -0.7276 -0.4245  0.0118
  169fsi     O2 2017   2.110   0.916   0.802 -0.3339 -0.5265 -0.0304
  169fsi     S2 2018   2.361   0.795   0.531 -0.2146 -0.4772  0.1718
  169fsi     O3 2019   2.378   0.656   0.562  0.4202  0.7683  0.0972
  169fsi     O4 2020   2.465   0.863   0.468  1.0914 -0.0134 -0.1040
  169fsi     F2 2021   2.245   0.793   0.422  0.2992 -0.0808 -0.2998
  170fsi     F1 2022   2.162   1.932   1.122  0.3936 -0.5334 -0.1272
  170fsi     S1 2023   2.098   2.041   1.221  0.0042 -0.1874  0.1753
  170fsi      N 2024   1.962   2.079   1.148 -0.0105  0.8155  0.0002
  170fsi     O1 2025   2.082   1.965   1.347 -0.4964 -0.1375  0.1514
  170fsi     O2 2026   2.198   2.144   1.223 -0.2153 -0.0845 -0.2051
  170fsi     S2 2027   1.928   2.202   1.067  0.0831 -0.1627  0.1788
  170fsi     O3 2028   1.990   2.324   1.104 -0.3929 -0.5175 -0.0353
  170fsi     O4 2029   1.790   2.209   1.041  0.2418  0.4078  0.1020
  170fsi     F2 2030   1.989   2.166   0.923  0.4936  0.5661 -0.5482
  171fsi     F1 2031   1.836   2.601   1.906 -0.4660 -0.2427 -0.6369
  171fsi     S1 2032   1.992   2.592   1.890  0.3041  0.2832  0.0976
  171fsi      N 2033   2.036   2.467   1.970  0.6699 -0.1128 -0.1640
  171fsi     O1 2034   2.003   2.575   1.747  0.1316 -0.1841 -0.5072
  171fsi     O2 2035   2.044   2.714   1.942 -0.3787  0.1176  0.0406
  171fsi     S2 2036   2.032   2.442   2.125 -0.5194 -0.0672  0.0567
  171fsi     O3 2037   2.021   2.562   2.197  0.2075 -0.5904  0.1642
  171fsi     O4 2038   2.135   2.364   2.169  0.1646  0.1376 -0.2132
  171fsi     F2 2039   1.905   2.363   2.159 -0.4546 -0.2632  0.5705
  172fsi     F1 2040   0.695   2.260   1.675 -0.2385  0.0812 -0.1587
  172fsi     S1 2041   0.845   2.292   1.672 -0.1331  0.2163  0.6022
  172fsi      N 2042   0.842   2.424   1.582 -0.1534  0.0330 -0.1910
  172fsi     O1 2043   0.874   2.317   1.812  0.8997  0.0080  0.0360
  172fsi     O2 2044   0.904   2.179   1.603 -0.5289 -0.3156 -0.4482
  172fsi     S2 2045   0.774   2.447   1.439  0.2408 -0.2664  0.1662
  172fsi     O3 2046   0.692   2.335   1.393  0.3202  0.0797  0.8360
  172fsi     O4 2047   0.854   2.522   1.343 -0.3238 -0.3132 -0.1835
  172fsi     F2 2048   0.669   2.551   1.487 -0.0053  0.5178 -0.0297
  173fsi     F1 2049   0.581   0.887   1.210  0.1459 -0.3379 -0.5265
  173fsi     S1 2050   0.532   0.738   1.257 -0.4240 -0.2568  0.1696
  173fsi      N 2051   0.507   0.754   1.410 -0.1328  0.1712 -0.1026
  173fsi     O1 2052   0.411   0.717   1.186 -0.0521 -0.3048 -0.4493
  173fsi     O2 2053   0.648   0.659   1.217 -0.3870 -0.4330  0.4849
  173fsi     S2 2054   0.381   0.761   1.497  0.0086 -0.0213  0.1860
  173fsi     O3 2055   0.258   0.788   1.430 -0.5907  0.5499  0.8635
  173fsi     O4 2056   0.404   0.831   1.621 -0.4770  0.3931 -0.4107
  173fsi     F2 2057   0.376   0.609   1.552  0.0880 -0.2180 -0.1968
  174fsi     F1 2058   0.807   0.150   2.081  0.6339 -0.7814  0.2760
  174fsi     S1 2059   0.703   0.186   2.186 -0.1814  0.2564 -0.0608
  174fsi      N 2060   0.740   0.096   2.304 -0.7333  0.0563 -0.4098
  174fsi     O1 2061   0.715   0.322   2.204 -0.4875 -0.6904 -0.1977
  174fsi     O2 2062   0.582   0.142   2.122  0.1993 -0.0632  0.2357
  174fsi     S2 2063   0.850   0.124   2.415  0.2398 -0.5949  0.1797
  174fsi     O3 2064   0.949   0.223   2.369 -0.0639 -0.5762 -0.3589
  174fsi     O4 2065   0.905   0.003   2.475  0.1985 -0.2085 -0.3315
  174fsi     F2 2066   0.761   0.205   2.524 -0.9995 -0.3257  0.2297
  175fsi     F1 2067   0.856   2.605   0.269  0.4631  0.0347 -0.4551
  175fsi     S1 2068   0.935   2.502   0.352 -0.4884 -0.1372 -0.3009
  175fsi      N 2069   0.894   2.360   0.302 -0.0981  0.1108  0.4432
  175fsi     O1 2070   1.073   2.528   0.319 -0.5145 -0.3672 -0.3170
  175fsi     O2 2071   0.894   2.537   0.485 -0.3121  0.0731  0.1526
  175fsi     S2 2072   0.762   2.285   0.323  0.6177 -0.3154 -0.0795
  175fsi     O3 2073   0.714   2.232   0.199 -0.2509 -0.1697 -0.4059
  175fsi     O4 2074   0.671   2.352   0.414  0.0737  0.0429  0.1143
  175fsi     F2 2075   0.804   2.158   0.392  0.4502  0.2079  0.1227
  176fsi     F1 2076   1.762   2.193   0.445  0.3130  0.0671 -0.1825
  176fsi     S1 2077   1.847   2.277   0.341 -0.1380 -0.1184 -0.2905
  176fsi      N 2078   1.756   2.246   0.215  0.3408 -0.2254 -0.4779
  176fsi     O1 2079   1.833   2.409   0.391 -0.5496 -0.2144  0.0075
  176fsi     O2 2080   1.974   2.213   0.340 -0.1460 -0.1226 -0.0550
  176fsi     S2 2081   1.724   2.326   0.086  0.4853 -0.4329 -0.7455
  176fsi     O3 2082   1.627   2.264   0.004  0.4130  0.5328  0.0415
  176fsi     O4 2083   1.844   2.377   0.025  0.4687  0.3429  0.0757
  176fsi     F2 2084   1.663   2.460   0.136  0.0739 -0.1983 -0.2133
  177fsi     F1 2085   2.221   2.877   0.146 -0.2588  0.2690  0.4291
  177fsi     S1 2086   2.085   2.916   0.201 -0.3114  0.0362 -0.3017
  177fsi      N 2087   1.982   2.872   0.090  0.3132 -1.0130  0.1569
  177fsi     O1 2088   2.080   2.845   0.322  0.2570  0.5656 -0.3725
  177fsi     O2 2089   2.104   3.056   0.216 -0.5647 -0.2211  0.2474
  177fsi     S2 2090   1.881   2.749   0.095 -0.6641  0.2765  0.4021
  177fsi     O3 2091   1.870   2.677   0.217  0.2701 -0.6576  0.0319
  177fsi     O4 2092   1.885   2.677  -0.029  0.4947  0.3037  0.1839
  177fsi     F2 2093   1.744   2.829   0.082 -0.2280  0.1634 -0.4350
  178fsi     F1 2094   0.156   0.144   2.437  0.2866  0.4066 -0.5060
  178fsi     S1 2095   0.102   0.101   2.296 -0.1038  0.2032  0.1438
  178fsi      N 2096  -0.004   0.214   2.265 -0.3679 -0.1588  0.0592
  178fsi     O1 2097   0.218   0.091   2.212  0.4009 -0.1535 -0.4525
  178fsi     O2 2098   0.039  -0.025   2.318  0.4436 -0.1647  0.7020
  178fsi     S2 2099   0.023   0.358   2.197  0.1839 -0.0064  0.0581
  178fsi     O3 2100  -0.074   0.376   2.091  0.1930 -0.1073  0.0468
  178fsi     O4 2101   0.165   0.384   2.170  0.5799  0.3466  0.1607
  178fsi     F2 2102  -0.014   0.453   2.323 -0.0000 -0.3405  0.3976
  179fsi     F1 2103   0.024   1.452   2.590  0.2332 -0.5795  0.0191
  179fsi     S1 2104   0.113   1.577   2.636 -0.1602  0.4450  0.3318
  179fsi      N 2105   0.102   1.659   2.505 -0.4240  0.4386 -0.3158
  179fsi     O1 2106   0.046   1.625   2.755  0.8409 -0.4324 -0.7266
  179fsi     O2 2107   0.244   1.522   2.648 -0.8355  0.2304  0.7124
  179fsi     S2 2108  -0.011   1.761   2.471  0.2786 -0.2553 -0.1681
  179fsi     O3 2109  -0.140   1.726   2.522  0.7370 -0.9770 -0.1823
  179fsi     O4 2110   0.009   1.817   2.342 -0.1917  0.1105  0.1131
  179fsi     F2 2111   0.025   1.888   2.556  0.2138  0.0461  0.1289
  180fsi     F1 2112   1.390   1.725   0.501  0.1759 -0.1167 -0.3230
  180fsi     S1 2113   1.333   1.768   0.647  0.0887 -0.5672  0.1825
  180fsi      N 2114   1.449   1.839   0.724 -0.3576 -0.3477  0.1863
  180fsi     O1 2115   1.233   1.863   0.612 -0.3539 -0.5885 -0.3692
  180fsi     O2 2116   1.296   1.636   0.701  0.3317  0.0919  0.1607
  180fsi     S2 2117   1.491   1.989   0.753  0.5139 -0.1071 -0.3241
  180fsi     O3 2118   1.506   2.011   0.895  0.3847 -0.2695 -0.6024
  180fsi     O4 2119   1.413   2.088   0.683 -0.2583  0.0178 -0.2490
  180fsi     F2 2120   1.641   2.002   0.698 -0.1187 -0.1611 -0.0646
  181fsi     F1 2121   1.584   1.269   1.476 -0.1914  0.0411 -0.0561
  181fsi     S1 2122   1.442   1.292   1.540 -0.1986  0.6636 -0.2029
  181fsi      N 2123   1.450   1.444   1.550  0.6917 -0.1693  0.0607
  181fsi     O1 2124   1.352   1.243   1.445 -0.1857 -0.2458 -0.4087
  181fsi     O2 2125   1.447   1.222   1.666 -0.3827 -0.7626  0.2658
  181fsi     S2 2126   1.491   1.530   1.679 -0.1247 -0.1369  0.4451
  181fsi     O3 2127   1.472   1.474   1.813  0.6328  0.5044  0.9081
  181fsi     O4 2128   1.433   1.657   1.670  0.0015 -0.4092  0.2826
  181fsi     F2 2129   1.643   1.561   1.657 -0.4889 -0.9480  0.5503
  182fsi     F1 2130   1.862   2.131   2.789  0.1533 -0.2180 -0.2758
  182fsi     S1 2131   2.022   2.171   2.775 -0.5163  0.0805  0.5757
  182fsi      N 2132   2.032   2.182   2.620  0.6067 -0.0053  1.0213
  182fsi     O1 2133   2.038   2.303   2.832  0.0602  0.0821 -0.1196
  182fsi     O2 2134   2.093   2.062   2.835 -0.1110  0.0484 -0.5960
  182fsi     S2 2135   2.096   2.084   2.522 -0.4378  0.3200  0.7809
  182fsi     O3 2136   2.168   1.970   2.566  0.2211  1.0361  0.0370
  182fsi     O4 2137   2.147   2.148   2.406 -0.1223  0.4501 -0.0091
  182fsi     F2 2138   1.968   2.020   2.473 -0.5728 -0.3773  0.0568
  183fsi     F1 2139   2.569   2.347   2.628  0.3267 -0.2158 -0.3088
  183fsi     S1 2140   2.437   2.309   2.709  0.4428 -0.5350  0.5641
  183fsi      N 2141   2.452   2.149   2.718  0.2870  0.1167  0.0669
  183fsi     O1 2142   2.451   2.377   2.833 -0.1708 -0.2416  0.2655
  183fsi     O2 2143   2.340   2.350   2.611 -0.2938 -0.1531 -0.0059
  183fsi     S2 2144   2.484   2.051   2.836  0.0855 -0.1191 -0.1919
  183fsi     O3 2145   2.400   1.933   2.849  0.5295 -0.6827 -0.6524
  183fsi     O4 2146   2.518   2.121   2.955  0.1434 -0.1631 -0.2309
  183fsi     F2 2147   2.625   1.993   2.792  0.1480 -0.0075 -0.0354
  184fsi     F1 2148   2.408   2.750   2.401  0.2928  0.0394 -0.3383
  184fsi     S1 2149   2.379   2.644   2.291  0.1592 -0.0650  0.5245
  184fsi      N 2150   2.525   2.603   2.235  0.5085 -0.6755 -0.5427
  184fsi     O1 2151   2.304   2.542   2.361 -0.7003  0.5565 -0.5767
  184fsi     O2 2152   2.310   2.721   2.193  0.1221 -0.2740  0.2042
  184fsi     S2 2153   2.616   2.479   2.269  0.2121  0.1582  0.3164
  184fsi     O3 2154   2.694   2.435   2.161 -0.0098  0.1930 -0.2459
  184fsi     O4 2155   2.550   2.369   2.335  0.7436 -0.0405  0.0545
  184fsi     F2 2156   2.708   2.544   2.374 -0.2339  0.4185  0.1934
  185fsi     F1 2157   0.952   2.137   1.329 -0.3742 -0.2317 -0.2591
  185fsi     S1 2158   0.947   2.098   1.177 -0.0339  0.0406 -0.3025
  185fsi      N 2159   1.080   2.165   1.126 -0.2812  0.0897 -0.2882
  185fsi     O1 2160   0.933   1.955   1.172  0.2114 -0.7316  0.1045
  185fsi     O2 2161   0.832   2.171   1.131 -0.3213 -0.4286  0.5820
  185fsi     S2 2162   1.207   2.097   1.044  0.0293 -0.1513  0.0208
  185fsi     O3 2163   1.204   1.953   1.029  0.0851 -0.3547  0.4232
  185fsi     O4 2164   1.338   2.147   1.080 -0.1253  0.1380  0.1776
  185fsi     F2 2165   1.180   2.156   0.902  0.2798  0.2902  0.0636
  186fsi     F1 2166   0.356   0.316   1.719 -0.2945 -0.2946 -0.3878
  186fsi     S1 2167   0.288   0.359   1.853 -0.4150  0.2295  0.0174
  186fsi      N 2168   0.328   0.511   1.868  0.5549 -0.0668 -0.3299
  186fsi     O1 2169   0.149   0.348   1.824  0.2387  0.0712  0.0137
  186fsi     O2 2170   0.342   0.275   1.956  0.5867  0.0794 -0.1208
  186fsi     S2 2171   0.437   0.584   1.962 -0.2419 -0.1585  0.4653
  186fsi     O3 2172   0.510   0.689   1.902 -0.2291 -0.3562 -0.3767
  186fsi     O4 2173   0.521   0.487   2.029 -0.2275 -0.0327  0.0930
  186fsi     F2 2174   0.352   0.658   2.076 -0.4820 -0.0489 -0.3228
  187fsi     F1 2175   0.395   2.317   1.393  0.4312  0.0394 -0.0419
  187fsi     S1 2176   0.385   2.276   1.237 -0.0756 -0.1400  0.1568
  187fsi      N 2177   0.230   2.254   1.219  0.1582  0.2851 -0.2603
  187fsi     O1 2178   0.446   2.392   1.173  0.3938 -0.7058 -0.4516
  187fsi     O2 2179   0.459   2.153   1.222 -0.3934 -0.2681  0.3985
  187fsi     S2 2180   0.132   2.330   1.118  0.0593  0.6871 -0.2688
  187fsi     O3 2181   0.039   2.238   1.061  0.6375  0.0339 -0.1263
  187fsi     O4 2182   0.181   2.431   1.027 -0.3836  0.1396 -0.5007
  187fsi     F2 2183   0.037   2.409   1.216  0.5144  0.0149 -0.4363
  188fsi     F1 2184   0.635   1.169   2.984  0.5148  0.2878  0.3278
  188fsi     S1 2185   0.538   1.121   2.865 -0.1373 -0.4547  0.0309
  188fsi      N 2186   0.594   0.987   2.806 -0.0121 -0.7177 -0.0237
  188fsi     O1 2187   0.418   1.105   2.941 -0.6085 -0.2727  0.1021
  188fsi     O2 2188   0.531   1.227   2.765 -0.3379 -0.2395  0.3216
  188fsi     S2 2189   0.698   0.966   2.695  0.0944  0.4250 -0.2524
  188fsi     O3 2190   0.750   1.085   2.632  0.0211 -0.3438  0.1910
  188fsi     O4 2191   0.656   0.862   2.603  0.1191 -0.3990  0.0566
  188fsi     F2 2192   0.831   0.901   2.759  0.1622  0.1350 -0.0820
  189fsi     F1 2193   2.492   0.136   2.861  0.3684 -0.3341  0.2301
  189fsi     S1 2194   2.391   0.053   2.765  0.1714 -0.3684 -0.2465
  189fsi      N 2195   2.475  -0.076   2.734 -0.0346  0.2110  0.3217
  189fsi     O1 2196   2.274   0.027   2.849 -0.6955 -0.9067 -0.4143
  189fsi     O2 2197   2.370   0.142   2.654 -0.2063 -0.2353 -0.8126
  189fsi     S2 2198   2.511  -0.203   2.817 -0.1511  0.5059  0.5179
  189fsi     O3 2199   2.566  -0.306   2.729  0.2031 -0.3584  0.1737
  189fsi     O4 2200   2.408  -0.242   2.913  0.2048  0.4735 -0.1989
  189fsi     F2 2201   2.639  -0.166   2.905 -0.4908  0.3981  0.0394
  190fsi     F1 2202   1.421   1.278   0.067  0.4646  0.3348  0.3938
  190fsi     S1 2203   1.311   1.255  -0.050 -0.2028 -0.2165 -0.1208
  190fsi      N 2204   1.256   1.110  -0.027  0.4180  0.0095  0.2473
  190fsi     O1 2205   1.206   1.348  -0.029 -0.3488  0.2472 -0.2873
  190fsi     O2 2206   1.377   1.262  -0.171 -0.0029  0.4738  0.1023
  190fsi     S2 2207   1.119   1.053   0.029 -0.0213  0.0058 -0.0216
  190fsi     O3 2208   1.003   1.135   0.000 -0.5231  0.0525  0.7531
  190fsi     O4 2209   1.125   1.002   0.162 -0.5727 -0.1089  0.4407
  190fsi     F2 2210   1.100   0.919  -0.058  0.0614 -0.2916  0.1653
  191fsi     F1 2211   0.144   2.876   1.973  0.1970 -0.0758 -0.1785
  191fsi     S1 2212   0.010   2.941   1.922  0.0445  0.2927  0.0694
  191fsi      N 2213   0.020   2.920   1.769 -0.1797 -0.2007  0.7216
  191fsi     O1 2214  -0.094   2.859   1.976  0.3536  0.2433  0.1949
  191fsi     O2 2215   0.014   3.075   1.966 -0.3251 -0.5096  0.1852
  191fsi     S2 2216  -0.020   3.018   1.652  0.0147 -0.0111 -0.1519
  191fsi     O3 2217   0.068   3.018   1.537 -0.6756 -0.1779 -0.0153
  191fsi     O4 2218  -0.072   3.147   1.687 -0.6346 -0.2374  0.8834
  191fsi     F2 2219  -0.146   2.949   1.585 -0.1691 -0.0407  0.1379
  192fsi     F1 2220   1.976   0.002   0.642  0.6473  0.0798  0.0899
  192fsi     S1 2221   1.900   0.033   0.777  0.0553  0.1123 -0.1946
  192fsi      N 2222   1.953   0.177   0.825  0.2840 -0.4481  0.5943
  192fsi     O1 2223   1.763   0.032   0.740  0.2731 -0.0748 -0.5234
  192fsi     O2 2224   1.948  -0.066   0.868 -0.3359  0.0741 -0.2548
  192fsi     S2 2225   1.906   0.327   0.795 -0.0973 -0.0939 -0.1683
  192fsi     O3 2226   1.778   0.333   0.726  0.2043  0.3012  0.1612
  192fsi     O4 2227   2.012   0.415   0.764  0.7160 -0.4137  0.5311
  192fsi     F2 2228   1.859   0.370   0.943  0.1794 -0.2120 -0.7514
  193fsi     F1 2229   1.669   1.407   2.652  0.4296 -0.0129  0.0245
  193fsi     S1 2230   1.676   1.342   2.508 -0.2733  0.0843  0.1174
  193fsi      N 2231   1.803   1.409   2.448  0.3490  0.4058  0.0236
  193fsi     O1 2232   1.691   1.203   2.539 -0.0491 -0.1763  0.0731
  193fsi     O2 2233   1.554   1.387   2.447 -0.2734  0.6480 -0.3156
  193fsi     S2 2234   1.926   1.336   2.381 -0.3554  0.5521  0.3985
  193fsi     O3 2235   1.990   1.226   2.455  0.6027  0.2371 -0.3080
  193fsi     O4 2236   2.024   1.426   2.328 -0.0401 -0.1894  0.1650
  193fsi     F2 2237   1.868   1.270   2.251 -0.1514 -0.0322  0.4097
  194fsi     F1 2238   0.179   0.600   0.472  0.3447  0.2011 -0.5814
  194fsi     S1 2239   0.271   0.646   0.353  0.3506  0.1129 -0.0817
  194fsi      N 2240   0.298   0.801   0.380 -0.2054  0.0711 -0.1674
  194fsi     O1 2241   0.384   0.563   0.376  0.1953  0.1446 -0.0897
  194fsi     O2 2242   0.198   0.624   0.229 -0.7204  0.2431 -0.1488
  194fsi     S2 2243   0.303   0.919   0.270 -0.0933 -0.4616 -0.1158
  194fsi     O3 2244   0.357   0.872   0.143  1.2384  0.7041 -0.2739
  194fsi     O4 2245   0.353   1.045   0.313  0.6284 -0.0413 -0.7709
  194fsi     F2 2246   0.151   0.949   0.241 -0.0143 -0.0998 -0.4273
  195fsi     F1 2247   2.122   0.094   2.363  0.1256 -0.3896  0.1793
  195fsi     S1 2248   2.059  -0.025   2.446  0.0953  0.6250  0.4459
  195fsi      N 2249   1.907  -0.005   2.407 -0.2086 -0.1428 -0.0179
  195fsi     O1 2250   2.128  -0.143   2.401  0.1658 -0.3822  0.4564
  195fsi     O2 2251   2.087   0.009   2.581  0.4895  0.1303 -0.5493
  195fsi     S2 2252   1.821  -0.086   2.308 -0.1190  0.2302 -0.1538
  195fsi     O3 2253   1.696  -0.124   2.359  0.3021  0.5309 -0.2264
  195fsi     O4 2254   1.891  -0.176   2.225  0.1612 -0.2288 -0.3498
  195fsi     F2 2255   1.771   0.023   2.202 -0.0838  0.1212  0.1740
  196fsi     F1 2256   1.507   0.105   2.061  0.0602 -0.1078  0.1664
  196fsi     S1 2257   1.435   0.241   2.051 -0.2660 -0.5579  0.3407
  196fsi      N 2258   1.328   0.218   1.936  0.4072  0.2037  0.3562
  196fsi     O1 2259   1.378   0.252   2.184  0.1072 -0.6234  0.5404
  196fsi     O2 2260   1.532   0.337   2.015  0.3424 -0.0992 -0.3723
  196fsi     S2 2261   1.170   0.202   1.944 -0.6440 -0.2802  0.5083
  196fsi     O3 2262   1.116   0.212   2.076  0.0575  0.1528 -0.1000
  196fsi     O4 2263   1.120   0.093   1.863 -0.3415 -0.1060 -0.1444
  196fsi     F2 2264   1.115   0.331   1.872  0.1753  0.2989  0.0543
  197fsi     F1 2265   2.320   1.011   2.119 -0.0274  0.4404  0.1191
  197fsi     S1 2266   2.199   1.079   2.195 -0.3237 -0.0403  0.2817
  197fsi      N 2267   2.200   1.007   2.333  0.8147  0.0470 -0.4402
  197fsi     O1 2268   2.217   1.221   2.185 -0.0122  0.0679  0.1447
  197fsi     O2 2269   2.092   1.030   2.110  0.1650 -0.0005 -0.1235
  197fsi     S2 2270   2.300   1.044   2.458  0.3752  0.0042 -0.0582
  197fsi     O3 2271   2.224   1.028   2.579  0.4420  0.0551 -0.4535
  197fsi     O4 2272   2.369   1.175   2.452  0.1624  0.4496 -0.2612
  197fsi     F2 2273   2.411   0.941   2.452  0.1255 -0.0554  0.0165
  198fsi     F1 2274   0.553   0.542   2.796  0.3597 -0.1777  0.1800
  198fsi     S1 2275   0.425   0.593   2.874 -0.4074  0.0257 -0.0514
  198fsi      N 2276   0.305   0.550   2.782  0.3674 -0.2931  0.0810
  198fsi     O1 2277   0.437   0.525   2.996  0.1491  0.1660 -0.4224
  198fsi     O2 2278   0.445   0.735   2.873  0.4468 -0.0410  0.4960
  198fsi     S2 2279   0.202   0.430   2.807  0.1659 -0.5085  0.0285
  198fsi     O3 2280   0.081   0.450   2.732 -0.5466  0.1360  0.0467
  198fsi     O4 2281   0.187   0.382   2.942  0.8047  0.2393  0.5800
  198fsi     F2 2282   0.271   0.313   2.733  0.0043 -0.5692  0.5293
  199fsi     F1 2283   1.895   1.713   1.506  0.3128 -0.4218  0.3674
  199fsi     S1 2284   1.976   1.588   1.463  0.1381  0.2714 -0.2859
  199fsi      N 2285   2.123   1.627   1.494  0.1254  0.0418 -0.4026
  199fsi     O1 2286   1.929   1.491   1.552  0.1537  0.5515  0.3711
  199fsi     O2 2287   1.949   1.583   1.326 -0.7582 -0.2007 -0.0836
  199fsi     S2 2288   2.255   1.639   1.407  0.0028  0.4374 -0.2244
  199fsi     O3 2289   2.327   1.762   1.426  0.6872 -0.0492  0.3846
  199fsi     O4 2290   2.238   1.589   1.275 -0.3566 -0.1556 -0.1514
  199fsi     F2 2291   2.346   1.529   1.473 -0.0274  0.1690  0.8837
  200fsi     F1 2292   1.757   0.891   2.146 -0.6459  0.4687 -0.0366
  200fsi     S1 2293   1.711   0.938   2.294  0.3062  0.1207 -0.1036
  200fsi      N 2294   1.609   0.834   2.327  0.4029  0.6495  0.1673
  200fsi     O1 2295   1.832   0.928   2.368  0.0430  0.1235  0.3200
  200fsi     O2 2296   1.649   1.065   2.277  0.1580  0.3937 -0.3625
  200fsi     S2 2297   1.451   0.843   2.351  0.1361 -0.0215  0.0419
  200fsi     O3 2298   1.385   0.719   2.367  0.2328  0.6472  0.3265
  200fsi     O4 2299   1.381   0.932   2.262  0.4689 -0.1794 -0.3886
  200fsi     F2 2300   1.443   0.910   2.490 -0.2406  0.3210  0.2958
   3.01659   3.01659   3.01659
