L1P1 short trajectory practice
 1150
    1Li+     Li    1   2.553   0.353   4.533
    2Li+     Li    2   0.186   0.980   1.050
    3Li+     Li    3   2.484   3.126   0.943
    4Li+     Li    4   2.826   3.394   4.629
    5Li+     Li    5   1.252   0.619   1.668
    6Li+     Li    6   4.326   0.814   1.216
    7Li+     Li    7   1.958   0.959   5.035
    8Li+     Li    8   2.656   1.953   0.543
    9Li+     Li    9   3.088   2.236   2.450
   10Li+     Li   10   0.727   1.006   1.956
   11Li+     Li   11   2.263   4.367   0.544
   12Li+     Li   12   1.981   1.982   2.927
   13Li+     Li   13   4.283   2.096   3.732
   14Li+     Li   14   3.394   3.655   0.856
   15Li+     Li   15   4.691   2.095   4.309
   16Li+     Li   16   0.470   5.087   4.497
   17Li+     Li   17   1.903   2.459   2.880
   18Li+     Li   18   2.988   3.118   4.519
   19Li+     Li   19   2.574   4.127   3.883
   20Li+     Li   20   2.573   1.183   4.641
   21Li+     Li   21   0.521   2.942   2.746
   22Li+     Li   22   2.723   5.003   4.017
   23Li+     Li   23   3.979   2.558   3.290
   24Li+     Li   24   0.150   2.774   1.907
   25Li+     Li   25   2.672   2.507   3.153
   26c3c     N4   26   1.070   1.131   3.172
   26c3c     C1   27   1.103   1.275   3.164
   26c3c     C1   28   1.153   1.068   3.276
   26c3c     C2   29   1.216   1.305   3.262
   26c3c     C2   30   1.248   1.174   3.333
   26c3c     C1   31   0.929   1.117   3.209
   26c3c     C1   32   1.093   1.066   3.043
   26c3c     H1   33   1.016   1.338   3.186
   26c3c     H1   34   1.131   1.305   3.063
   26c3c     H1   35   1.093   1.025   3.356
   26c3c     H1   36   1.209   0.983   3.239
   26c3c     HC   37   1.184   1.381   3.333
   26c3c     HC   38   1.304   1.343   3.210
   26c3c     HC   39   1.232   1.182   3.441
   26c3c     HC   40   1.352   1.144   3.318
   26c3c     H1   41   0.864   1.163   3.135
   26c3c     H1   42   0.901   1.012   3.217
   26c3c     H1   43   0.910   1.164   3.305
   26c3c     H1   44   1.066   0.961   3.049
   26c3c     H1   45   1.029   1.111   2.967
   26c3c     C2   46   1.241   1.078   2.999
   26c3c     HC   47   1.309   1.033   3.071
   26c3c     HC   48   1.273   1.182   2.990
   26c3c     CT   49   1.264   1.011   2.866
   26c3c     HC   50   1.201   1.058   2.789
   26c3c     HC   51   1.238   0.905   2.873
   26c3c     HC   52   1.368   1.021   2.838
   27c3c     N4   53   2.087   0.555   1.516
   27c3c     C1   54   2.092   0.426   1.445
   27c3c     C1   55   2.112   0.532   1.659
   27c3c     C2   56   2.113   0.315   1.547
   27c3c     C2   57   2.126   0.382   1.684
   27c3c     C1   58   2.192   0.642   1.464
   27c3c     C1   59   1.957   0.620   1.497
   27c3c     H1   60   2.170   0.424   1.369
   27c3c     H1   61   2.001   0.407   1.387
   27c3c     H1   62   2.201   0.585   1.695
   27c3c     H1   63   2.033   0.573   1.723
   27c3c     HC   64   2.204   0.259   1.522
   27c3c     HC   65   2.030   0.244   1.546
   27c3c     HC   66   2.223   0.361   1.729
   27c3c     HC   67   2.050   0.347   1.753
   27c3c     H1   68   2.179   0.660   1.357
   27c3c     H1   69   2.194   0.738   1.515
   27c3c     H1   70   2.290   0.596   1.477
   27c3c     H1   71   1.956   0.717   1.547
   27c3c     H1   72   1.941   0.639   1.391
   27c3c     C2   73   1.842   0.533   1.551
   27c3c     HC   74   1.853   0.511   1.657
   27c3c     HC   75   1.838   0.435   1.503
   27c3c     CT   76   1.708   0.600   1.531
   27c3c     HC   77   1.692   0.617   1.424
   27c3c     HC   78   1.707   0.695   1.583
   27c3c     HC   79   1.630   0.536   1.570
   28c3c     N4   80   2.022   1.270   2.322
   28c3c     C1   81   2.004   1.405   2.380
   28c3c     C1   82   2.115   1.278   2.208
   28c3c     C2   83   2.084   1.505   2.296
   28c3c     C2   84   2.155   1.424   2.187
   28c3c     C1   85   2.079   1.182   2.423
   28c3c     C1   86   1.893   1.216   2.278
   28c3c     H1   87   2.036   1.408   2.484
   28c3c     H1   88   1.900   1.435   2.384
   28c3c     H1   89   2.204   1.216   2.224
   28c3c     H1   90   2.073   1.236   2.116
   28c3c     HC   91   2.156   1.556   2.359
   28c3c     HC   92   2.018   1.580   2.253
   28c3c     HC   93   2.263   1.434   2.194
   28c3c     HC   94   2.125   1.458   2.087
   28c3c     H1   95   2.014   1.174   2.510
   28c3c     H1   96   2.095   1.081   2.385
   28c3c     H1   97   2.175   1.220   2.458
   28c3c     H1   98   1.906   1.116   2.238
   28c3c     H1   99   1.825   1.207   2.363
   28c3c     C2  100   1.828   1.305   2.170
   28c3c     HC  101   1.891   1.316   2.082
   28c3c     HC  102   1.811   1.407   2.205
   28c3c     CT  103   1.695   1.249   2.125
   28c3c     HC  104   1.627   1.243   2.210
   28c3c     HC  105   1.710   1.150   2.084
   28c3c     HC  106   1.652   1.314   2.049
   29c3c     N4  107   0.576   2.760   3.716
   29c3c     C1  108   0.692   2.688   3.661
   29c3c     C1  109   0.494   2.667   3.795
   29c3c     C2  110   0.682   2.541   3.700
   29c3c     C2  111   0.556   2.527   3.785
   29c3c     C1  112   0.624   2.867   3.804
   29c3c     C1  113   0.496   2.819   3.608
   29c3c     H1  114   0.786   2.730   3.696
   29c3c     H1  115   0.700   2.698   3.553
   29c3c     H1  116   0.486   2.697   3.900
   29c3c     H1  117   0.390   2.664   3.763
   29c3c     HC  118   0.770   2.511   3.756
   29c3c     HC  119   0.676   2.478   3.612
   29c3c     HC  120   0.580   2.490   3.885
   29c3c     HC  121   0.485   2.457   3.741
   29c3c     H1  122   0.686   2.938   3.750
   29c3c     H1  123   0.541   2.921   3.849
   29c3c     H1  124   0.683   2.825   3.886
   29c3c     H1  125   0.412   2.874   3.650
   29c3c     H1  126   0.556   2.890   3.552
   29c3c     C2  127   0.442   2.711   3.512
   29c3c     HC  128   0.380   2.637   3.563
   29c3c     HC  129   0.523   2.653   3.466
   29c3c     CT  130   0.360   2.772   3.401
   29c3c     HC  131   0.422   2.841   3.344
   29c3c     HC  132   0.275   2.825   3.444
   29c3c     HC  133   0.324   2.693   3.335
   30c3c     N4  134   0.429   4.969   1.709
   30c3c     C1  135   0.507   4.946   1.832
   30c3c     C1  136   0.387   4.840   1.653
   30c3c     C2  137   0.522   4.795   1.853
   30c3c     C2  138   0.446   4.728   1.739
   30c3c     C1  139   0.310   5.047   1.743
   30c3c     C1  140   0.509   5.044   1.612
   30c3c     H1  141   0.460   4.992   1.920
   30c3c     H1  142   0.605   4.993   1.830
   30c3c     H1  143   0.279   4.831   1.647
   30c3c     H1  144   0.418   4.828   1.549
   30c3c     HC  145   0.480   4.767   1.950
   30c3c     HC  146   0.627   4.766   1.853
   30c3c     HC  147   0.365   4.665   1.776
   30c3c     HC  148   0.512   4.664   1.679
   30c3c     H1  149   0.336   5.143   1.786
   30c3c     H1  150   0.248   5.065   1.655
   30c3c     H1  151   0.248   4.993   1.815
   30c3c     H1  152   0.450   5.064   1.522
   30c3c     H1  153   0.537   5.141   1.653
   30c3c     C2  154   0.637   4.967   1.572
   30c3c     HC  155   0.615   4.869   1.529
   30c3c     HC  156   0.701   4.945   1.658
   30c3c     CT  157   0.719   5.044   1.472
   30c3c     HC  158   0.749   5.140   1.515
   30c3c     HC  159   0.660   5.061   1.382
   30c3c     HC  160   0.808   4.987   1.446
   31c3c     N4  161   0.738   3.431   4.759
   31c3c     C1  162   0.601   3.486   4.755
   31c3c     C1  163   0.835   3.542   4.752
   31c3c     C2  164   0.609   3.637   4.738
   31c3c     C2  165   0.758   3.673   4.737
   31c3c     C1  166   0.757   3.360   4.885
   31c3c     C1  167   0.759   3.338   4.648
   31c3c     H1  168   0.545   3.460   4.845
   31c3c     H1  169   0.541   3.442   4.676
   31c3c     H1  170   0.899   3.546   4.840
   31c3c     H1  171   0.906   3.531   4.671
   31c3c     HC  172   0.558   3.686   4.821
   31c3c     HC  173   0.560   3.669   4.647
   31c3c     HC  174   0.783   3.741   4.818
   31c3c     HC  175   0.785   3.723   4.644
   31c3c     H1  176   0.687   3.277   4.895
   31c3c     H1  177   0.858   3.319   4.893
   31c3c     H1  178   0.742   3.427   4.970
   31c3c     H1  179   0.859   3.296   4.653
   31c3c     H1  180   0.690   3.255   4.655
   31c3c     C2  181   0.741   3.408   4.511
   31c3c     HC  182   0.809   3.492   4.498
   31c3c     HC  183   0.641   3.451   4.500
   31c3c     CT  184   0.762   3.312   4.397
   31c3c     HC  185   0.691   3.230   4.404
   31c3c     HC  186   0.864   3.272   4.402
   31c3c     HC  187   0.749   3.364   4.303
   32c3c     N4  188   0.698   1.803   2.426
   32c3c     C1  189   0.558   1.822   2.468
   32c3c     C1  190   0.752   1.931   2.378
   32c3c     C2  191   0.518   1.966   2.440
   32c3c     C2  192   0.641   2.036   2.383
   32c3c     C1  193   0.776   1.758   2.541
   32c3c     C1  194   0.706   1.702   2.320
   32c3c     H1  195   0.543   1.798   2.573
   32c3c     H1  196   0.489   1.754   2.417
   32c3c     H1  197   0.838   1.964   2.437
   32c3c     H1  198   0.793   1.925   2.277
   32c3c     HC  199   0.485   2.014   2.533
   32c3c     HC  200   0.434   1.971   2.370
   32c3c     HC  201   0.672   2.119   2.446
   32c3c     HC  202   0.621   2.076   2.284
   32c3c     H1  203   0.739   1.664   2.580
   32c3c     H1  204   0.881   1.745   2.514
   32c3c     H1  205   0.772   1.832   2.621
   32c3c     H1  206   0.810   1.686   2.291
   32c3c     H1  207   0.669   1.606   2.356
   32c3c     C2  208   0.625   1.743   2.195
   32c3c     HC  209   0.659   1.838   2.153
   32c3c     HC  210   0.520   1.759   2.218
   32c3c     CT  211   0.634   1.639   2.087
   32c3c     HC  212   0.594   1.545   2.123
   32c3c     HC  213   0.738   1.626   2.057
   32c3c     HC  214   0.576   1.672   2.001
   33c3c     N4  215   3.829   3.010   0.569
   33c3c     C1  216   3.913   2.948   0.673
   33c3c     C1  217   3.913   3.095   0.483
   33c3c     C2  218   4.056   3.000   0.659
   33c3c     C2  219   4.056   3.093   0.538
   33c3c     C1  220   3.769   2.905   0.487
   33c3c     C1  221   3.722   3.090   0.631
   33c3c     H1  222   3.911   2.839   0.667
   33c3c     H1  223   3.876   2.968   0.774
   33c3c     H1  224   3.912   3.063   0.379
   33c3c     H1  225   3.877   3.198   0.477
   33c3c     HC  226   4.124   2.916   0.644
   33c3c     HC  227   4.088   3.052   0.749
   33c3c     HC  228   4.124   3.058   0.461
   33c3c     HC  229   4.088   3.194   0.566
   33c3c     H1  230   3.707   2.839   0.547
   33c3c     H1  231   3.708   2.947   0.408
   33c3c     H1  232   3.847   2.844   0.440
   33c3c     H1  233   3.659   3.133   0.553
   33c3c     H1  234   3.658   3.026   0.692
   33c3c     C2  235   3.779   3.203   0.719
   33c3c     HC  236   3.843   3.271   0.662
   33c3c     HC  237   3.843   3.165   0.799
   33c3c     CT  238   3.669   3.285   0.781
   33c3c     HC  239   3.607   3.220   0.844
   33c3c     HC  240   3.608   3.329   0.703
   33c3c     HC  241   3.713   3.363   0.843
   34c3c     N4  242   1.782   4.364   4.132
   34c3c     C1  243   1.907   4.286   4.137
   34c3c     C1  244   1.667   4.273   4.140
   34c3c     C2  245   1.871   4.137   4.141
   34c3c     C2  246   1.719   4.129   4.143
   34c3c     C1  247   1.779   4.455   4.247
   34c3c     C1  248   1.776   4.443   4.008
   34c3c     H1  249   1.969   4.312   4.222
   34c3c     H1  250   1.972   4.306   4.052
   34c3c     H1  251   1.605   4.293   4.227
   34c3c     H1  252   1.597   4.286   4.057
   34c3c     HC  253   1.914   4.092   4.230
   34c3c     HC  254   1.912   4.085   4.055
   34c3c     HC  255   1.683   4.079   4.234
   34c3c     HC  256   1.681   4.072   4.058
   34c3c     H1  257   1.864   4.523   4.245
   34c3c     H1  258   1.688   4.514   4.248
   34c3c     H1  259   1.783   4.398   4.340
   34c3c     H1  260   1.686   4.503   4.007
   34c3c     H1  261   1.860   4.512   4.004
   34c3c     C2  262   1.779   4.352   3.883
   34c3c     HC  263   1.697   4.281   3.881
   34c3c     HC  264   1.869   4.291   3.879
   34c3c     CT  265   1.773   4.434   3.757
   34c3c     HC  266   1.859   4.502   3.752
   34c3c     HC  267   1.681   4.492   3.755
   34c3c     HC  268   1.775   4.367   3.671
   35c3c     N4  269   3.914   3.568   2.622
   35c3c     C1  270   4.043   3.639   2.618
   35c3c     C1  271   3.803   3.665   2.622
   35c3c     C2  272   4.015   3.789   2.622
   35c3c     C2  273   3.863   3.806   2.625
   35c3c     C1  274   3.903   3.483   2.503
   35c3c     C1  275   3.907   3.483   2.742
   35c3c     H1  276   4.101   3.613   2.530
   35c3c     H1  277   4.109   3.611   2.700
   35c3c     H1  278   3.738   3.653   2.536
   35c3c     H1  279   3.735   3.652   2.706
   35c3c     HC  280   4.058   3.837   2.534
   35c3c     HC  281   4.061   3.835   2.710
   35c3c     HC  282   3.828   3.862   2.538
   35c3c     HC  283   3.831   3.860   2.714
   35c3c     H1  284   3.984   3.410   2.499
   35c3c     H1  285   3.808   3.429   2.502
   35c3c     H1  286   3.908   3.544   2.413
   35c3c     H1  287   3.813   3.428   2.743
   35c3c     H1  288   3.987   3.409   2.740
   35c3c     C2  289   3.918   3.566   2.871
   35c3c     HC  290   3.839   3.641   2.879
   35c3c     HC  291   4.011   3.623   2.876
   35c3c     CT  292   3.910   3.479   2.993
   35c3c     HC  293   3.992   3.406   2.992
   35c3c     HC  294   3.815   3.426   2.995
   35c3c     HC  295   3.918   3.540   3.083
   36c3c     N4  296   3.100   3.907   1.117
   36c3c     C1  297   3.233   3.970   1.114
   36c3c     C1  298   2.997   4.012   1.112
   36c3c     C2  299   3.216   4.122   1.115
   36c3c     C2  300   3.065   4.149   1.113
   36c3c     C1  301   3.086   3.822   0.999
   36c3c     C1  302   3.085   3.826   1.238
   36c3c     H1  303   3.292   3.940   1.028
   36c3c     H1  304   3.296   3.940   1.198
   36c3c     H1  305   2.933   4.002   1.024
   36c3c     H1  306   2.926   4.005   1.195
   36c3c     HC  307   3.264   4.165   1.027
   36c3c     HC  308   3.263   4.166   1.202
   36c3c     HC  309   3.036   4.205   1.025
   36c3c     HC  310   3.035   4.207   1.200
   36c3c     H1  311   3.162   3.743   0.998
   36c3c     H1  312   2.988   3.774   0.996
   36c3c     H1  313   3.097   3.880   0.908
   36c3c     H1  314   2.987   3.777   1.238
   36c3c     H1  315   3.159   3.747   1.240
   36c3c     C2  316   3.098   3.911   1.366
   36c3c     HC  317   3.025   3.991   1.370
   36c3c     HC  318   3.195   3.961   1.372
   36c3c     CT  319   3.082   3.827   1.489
   36c3c     HC  320   3.159   3.749   1.492
   36c3c     HC  321   2.984   3.780   1.490
   36c3c     HC  322   3.092   3.890   1.578
   37c3c     N4  323   0.522   4.005   2.230
   37c3c     C1  324   0.387   3.958   2.193
   37c3c     C1  325   0.605   3.889   2.268
   37c3c     C2  326   0.381   3.807   2.215
   37c3c     C2  327   0.519   3.763   2.262
   37c3c     C1  328   0.583   4.070   2.114
   37c3c     C1  329   0.514   4.101   2.341
   37c3c     H1  330   0.362   3.983   2.090
   37c3c     H1  331   0.309   4.008   2.250
   37c3c     H1  332   0.693   3.879   2.204
   37c3c     H1  333   0.649   3.901   2.367
   37c3c     HC  334   0.354   3.758   2.121
   37c3c     HC  335   0.304   3.782   2.288
   37c3c     HC  336   0.564   3.692   2.194
   37c3c     HC  337   0.514   3.716   2.360
   37c3c     H1  338   0.524   4.156   2.082
   37c3c     H1  339   0.683   4.106   2.137
   37c3c     H1  340   0.590   4.001   2.030
   37c3c     H1  341   0.614   4.138   2.366
   37c3c     H1  342   0.456   4.188   2.311
   37c3c     C2  343   0.451   4.037   2.466
   37c3c     HC  344   0.507   3.951   2.502
   37c3c     HC  345   0.350   4.000   2.448
   37c3c     CT  346   0.443   4.136   2.580
   37c3c     HC  347   0.382   4.222   2.550
   37c3c     HC  348   0.543   4.171   2.605
   37c3c     HC  349   0.398   4.089   2.667
   38c3c     N4  350   2.594   4.081   0.655
   38c3c     C1  351   2.609   3.955   0.730
   38c3c     C1  352   2.539   4.185   0.744
   38c3c     C2  353   2.555   3.976   0.871
   38c3c     C2  354   2.510   4.122   0.880
   38c3c     C1  355   2.725   4.125   0.608
   38c3c     C1  356   2.506   4.061   0.539
   38c3c     H1  357   2.713   3.922   0.733
   38c3c     H1  358   2.558   3.872   0.682
   38c3c     H1  359   2.606   4.270   0.755
   38c3c     H1  360   2.448   4.230   0.704
   38c3c     HC  361   2.633   3.954   0.944
   38c3c     HC  362   2.472   3.908   0.891
   38c3c     HC  363   2.565   4.176   0.957
   38c3c     HC  364   2.404   4.129   0.905
   38c3c     H1  365   2.771   4.050   0.543
   38c3c     H1  366   2.719   4.219   0.553
   38c3c     H1  367   2.793   4.141   0.692
   38c3c     H1  368   2.498   4.154   0.482
   38c3c     H1  369   2.549   3.987   0.472
   38c3c     C2  370   2.365   4.015   0.582
   38c3c     HC  371   2.316   4.087   0.649
   38c3c     HC  372   2.367   3.922   0.639
   38c3c     CT  373   2.275   3.995   0.463
   38c3c     HC  374   2.317   3.919   0.398
   38c3c     HC  375   2.265   4.088   0.408
   38c3c     HC  376   2.177   3.963   0.497
   39c3c     N4  377   3.471   2.287   2.672
   39c3c     C1  378   3.473   2.433   2.654
   39c3c     C1  379   3.350   2.247   2.745
   39c3c     C2  380   3.350   2.492   2.724
   39c3c     C2  381   3.272   2.374   2.782
   39c3c     C1  382   3.470   2.223   2.540
   39c3c     C1  383   3.591   2.243   2.745
   39c3c     H1  384   3.474   2.461   2.548
   39c3c     H1  385   3.564   2.479   2.692
   39c3c     H1  386   3.288   2.179   2.687
   39c3c     H1  387   3.372   2.189   2.834
   39c3c     HC  388   3.290   2.548   2.652
   39c3c     HC  389   3.381   2.561   2.802
   39c3c     HC  390   3.172   2.369   2.740
   39c3c     HC  391   3.262   2.383   2.890
   39c3c     H1  392   3.558   2.250   2.482
   39c3c     H1  393   3.469   2.114   2.549
   39c3c     H1  394   3.382   2.254   2.483
   39c3c     H1  395   3.592   2.135   2.755
   39c3c     H1  396   3.681   2.269   2.689
   39c3c     C2  397   3.598   2.307   2.885
   39c3c     HC  398   3.511   2.283   2.946
   39c3c     HC  399   3.600   2.416   2.880
   39c3c     CT  400   3.721   2.262   2.959
   39c3c     HC  401   3.810   2.291   2.904
   39c3c     HC  402   3.719   2.154   2.971
   39c3c     HC  403   3.723   2.309   3.058
   40c3c     N4  404   4.565   1.728   0.449
   40c3c     C1  405   4.573   1.875   0.444
   40c3c     C1  406   4.424   1.687   0.465
   40c3c     C2  407   4.433   1.932   0.465
   40c3c     C2  408   4.338   1.813   0.478
   40c3c     C1  409   4.616   1.674   0.323
   40c3c     C1  410   4.646   1.676   0.559
   40c3c     H1  411   4.615   1.911   0.350
   40c3c     H1  412   4.641   1.916   0.519
   40c3c     H1  413   4.390   1.626   0.381
   40c3c     H1  414   4.409   1.622   0.551
   40c3c     HC  415   4.406   1.995   0.380
   40c3c     HC  416   4.429   1.995   0.554
   40c3c     HC  417   4.263   1.814   0.400
   40c3c     HC  418   4.286   1.814   0.574
   40c3c     H1  419   4.719   1.703   0.306
   40c3c     H1  420   4.610   1.565   0.321
   40c3c     H1  421   4.557   1.711   0.239
   40c3c     H1  422   4.642   1.567   0.560
   40c3c     H1  423   4.750   1.703   0.545
   40c3c     C2  424   4.597   1.729   0.696
   40c3c     HC  425   4.493   1.703   0.715
   40c3c     HC  426   4.600   1.838   0.701
   40c3c     CT  427   4.681   1.675   0.809
   40c3c     HC  428   4.785   1.705   0.795
   40c3c     HC  429   4.675   1.566   0.810
   40c3c     HC  430   4.644   1.715   0.903
   41c3c     N4  431   3.230   1.288   2.474
   41c3c     C1  432   3.319   1.238   2.580
   41c3c     C1  433   3.257   1.430   2.450
   41c3c     C2  434   3.402   1.355   2.633
   41c3c     C2  435   3.363   1.477   2.550
   41c3c     C1  436   3.258   1.214   2.351
   41c3c     C1  437   3.090   1.268   2.511
   41c3c     H1  438   3.384   1.158   2.546
   41c3c     H1  439   3.265   1.191   2.662
   41c3c     H1  440   3.290   1.449   2.348
   41c3c     H1  441   3.167   1.492   2.459
   41c3c     HC  442   3.508   1.332   2.622
   41c3c     HC  443   3.384   1.371   2.739
   41c3c     HC  444   3.448   1.518   2.496
   41c3c     HC  445   3.324   1.556   2.614
   41c3c     H1  446   3.241   1.107   2.364
   41c3c     H1  447   3.195   1.248   2.269
   41c3c     H1  448   3.362   1.227   2.321
   41c3c     H1  449   3.024   1.301   2.431
   41c3c     H1  450   3.070   1.161   2.526
   41c3c     C2  451   3.054   1.343   2.641
   41c3c     HC  452   3.071   1.451   2.632
   41c3c     HC  453   3.116   1.312   2.725
   41c3c     CT  454   2.910   1.323   2.679
   41c3c     HC  455   2.891   1.217   2.695
   41c3c     HC  456   2.845   1.359   2.599
   41c3c     HC  457   2.888   1.377   2.771
   42c3c     N4  458   1.297   1.117   4.573
   42c3c     C1  459   1.291   1.187   4.702
   42c3c     C1  460   1.436   1.079   4.544
   42c3c     C2  461   1.433   1.202   4.756
   42c3c     C2  462   1.525   1.134   4.655
   42c3c     C1  463   1.217   0.995   4.581
   42c3c     C1  464   1.244   1.202   4.466
   42c3c     H1  465   1.228   1.134   4.774
   42c3c     H1  466   1.243   1.284   4.694
   42c3c     H1  467   1.449   0.972   4.534
   42c3c     H1  468   1.471   1.117   4.447
   42c3c     HC  469   1.440   1.155   4.854
   42c3c     HC  470   1.458   1.307   4.768
   42c3c     HC  471   1.580   1.052   4.701
   42c3c     HC  472   1.599   1.204   4.615
   42c3c     H1  473   1.112   1.017   4.603
   42c3c     H1  474   1.220   0.939   4.487
   42c3c     H1  475   1.254   0.929   4.660
   42c3c     H1  476   1.246   1.148   4.371
   42c3c     H1  477   1.140   1.227   4.486
   42c3c     C2  478   1.325   1.332   4.452
   42c3c     HC  479   1.430   1.314   4.430
   42c3c     HC  480   1.325   1.391   4.544
   42c3c     CT  481   1.270   1.419   4.342
   42c3c     HC  482   1.166   1.446   4.364
   42c3c     HC  483   1.274   1.366   4.247
   42c3c     HC  484   1.329   1.511   4.335
   43c3c     N4  485   1.437   3.225   1.523
   43c3c     C1  486   1.562   3.224   1.602
   43c3c     C1  487   1.458   3.153   1.397
   43c3c     C2  488   1.670   3.154   1.519
   43c3c     C2  489   1.604   3.109   1.389
   43c3c     C1  490   1.333   3.157   1.600
   43c3c     C1  491   1.395   3.363   1.497
   43c3c     H1  492   1.549   3.174   1.698
   43c3c     H1  493   1.595   3.324   1.630
   43c3c     H1  494   1.391   3.068   1.387
   43c3c     H1  495   1.432   3.214   1.310
   43c3c     HC  496   1.709   3.069   1.575
   43c3c     HC  497   1.753   3.221   1.500
   43c3c     HC  498   1.608   3.001   1.378
   43c3c     HC  499   1.653   3.153   1.303
   43c3c     H1  500   1.315   3.207   1.695
   43c3c     H1  501   1.239   3.155   1.545
   43c3c     H1  502   1.361   3.054   1.621
   43c3c     H1  503   1.301   3.364   1.442
   43c3c     H1  504   1.377   3.416   1.591
   43c3c     C2  505   1.502   3.441   1.416
   43c3c     HC  506   1.523   3.394   1.320
   43c3c     HC  507   1.598   3.444   1.468
   43c3c     CT  508   1.458   3.582   1.390
   43c3c     HC  509   1.442   3.635   1.484
   43c3c     HC  510   1.365   3.582   1.333
   43c3c     HC  511   1.535   3.634   1.333
   44c3c     N4  512   1.467   0.861   0.883
   44c3c     C1  513   1.464   0.984   0.800
   44c3c     C1  514   1.349   0.779   0.851
   44c3c     C2  515   1.336   0.983   0.717
   44c3c     C2  516   1.263   0.853   0.750
   44c3c     C1  517   1.588   0.786   0.850
   44c3c     C1  518   1.469   0.896   1.025
   44c3c     H1  519   1.552   0.991   0.736
   44c3c     H1  520   1.470   1.075   0.860
   44c3c     H1  521   1.377   0.681   0.813
   44c3c     H1  522   1.291   0.754   0.940
   44c3c     HC  523   1.361   0.989   0.611
   44c3c     HC  524   1.274   1.070   0.741
   44c3c     HC  525   1.250   0.792   0.660
   44c3c     HC  526   1.164   0.873   0.790
   44c3c     H1  527   1.678   0.844   0.871
   44c3c     H1  528   1.594   0.693   0.908
   44c3c     H1  529   1.589   0.759   0.745
   44c3c     H1  530   1.474   0.805   1.085
   44c3c     H1  531   1.558   0.954   1.048
   44c3c     C2  532   1.343   0.976   1.066
   44c3c     HC  533   1.251   0.922   1.045
   44c3c     HC  534   1.334   1.069   1.009
   44c3c     CT  535   1.345   1.011   1.212
   44c3c     HC  536   1.433   1.072   1.234
   44c3c     HC  537   1.348   0.920   1.272
   44c3c     HC  538   1.256   1.068   1.237
   45c3c     N4  539   1.369   2.383   1.086
   45c3c     C1  540   1.505   2.327   1.080
   45c3c     C1  541   1.376   2.524   1.128
   45c3c     C2  542   1.604   2.433   1.126
   45c3c     C2  543   1.523   2.558   1.157
   45c3c     C1  544   1.309   2.377   0.953
   45c3c     C1  545   1.287   2.306   1.180
   45c3c     H1  546   1.530   2.293   0.979
   45c3c     H1  547   1.516   2.236   1.139
   45c3c     H1  548   1.336   2.591   1.053
   45c3c     H1  549   1.315   2.545   1.216
   45c3c     HC  550   1.677   2.452   1.047
   45c3c     HC  551   1.659   2.399   1.213
   45c3c     HC  552   1.553   2.642   1.094
   45c3c     HC  553   1.536   2.589   1.261
   45c3c     H1  554   1.303   2.275   0.916
   45c3c     H1  555   1.208   2.419   0.953
   45c3c     H1  556   1.368   2.434   0.881
   45c3c     H1  557   1.185   2.346   1.182
   45c3c     H1  558   1.279   2.203   1.146
   45c3c     C2  559   1.345   2.309   1.323
   45c3c     HC  560   1.354   2.410   1.362
   45c3c     HC  561   1.446   2.268   1.326
   45c3c     CT  562   1.260   2.230   1.418
   45c3c     HC  563   1.255   2.126   1.386
   45c3c     HC  564   1.159   2.272   1.422
   45c3c     HC  565   1.304   2.234   1.518
   46c3c     N4  566   1.034   1.758   0.957
   46c3c     C1  567   0.940   1.649   0.925
   46c3c     C1  568   1.012   1.871   0.866
   46c3c     C2  569   0.858   1.691   0.803
   46c3c     C2  570   0.903   1.832   0.766
   46c3c     C1  571   1.010   1.802   1.094
   46c3c     C1  572   1.173   1.710   0.946
   46c3c     H1  573   0.875   1.625   1.008
   46c3c     H1  574   0.991   1.555   0.904
   46c3c     H1  575   0.983   1.962   0.920
   46c3c     H1  576   1.102   1.902   0.813
   46c3c     HC  577   0.752   1.689   0.828
   46c3c     HC  578   0.873   1.622   0.720
   46c3c     HC  579   0.820   1.903   0.772
   46c3c     HC  580   0.941   1.836   0.664
   46c3c     H1  581   1.025   1.720   1.165
   46c3c     H1  582   1.077   1.883   1.122
   46c3c     H1  583   0.907   1.837   1.105
   46c3c     H1  584   1.242   1.790   0.973
   46c3c     H1  585   1.190   1.629   1.016
   46c3c     C2  586   1.205   1.663   0.803
   46c3c     HC  587   1.191   1.741   0.728
   46c3c     HC  588   1.139   1.582   0.770
   46c3c     CT  589   1.347   1.614   0.792
   46c3c     HC  590   1.363   1.531   0.860
   46c3c     HC  591   1.416   1.695   0.817
   46c3c     HC  592   1.366   1.582   0.690
   47c3c     N4  593   1.399   1.794   2.777
   47c3c     C1  594   1.400   1.648   2.761
   47c3c     C1  595   1.513   1.852   2.704
   47c3c     C2  596   1.524   1.608   2.680
   47c3c     C2  597   1.595   1.738   2.644
   47c3c     C1  598   1.275   1.847   2.720
   47c3c     C1  599   1.406   1.830   2.919
   47c3c     H1  600   1.310   1.611   2.713
   47c3c     H1  601   1.400   1.595   2.857
   47c3c     H1  602   1.481   1.921   2.626
   47c3c     H1  603   1.576   1.914   2.767
   47c3c     HC  604   1.493   1.553   2.591
   47c3c     HC  605   1.588   1.542   2.738
   47c3c     HC  606   1.602   1.750   2.536
   47c3c     HC  607   1.697   1.739   2.683
   47c3c     H1  608   1.188   1.806   2.771
   47c3c     H1  609   1.271   1.955   2.729
   47c3c     H1  610   1.268   1.821   2.615
   47c3c     H1  611   1.402   1.938   2.931
   47c3c     H1  612   1.320   1.790   2.973
   47c3c     C2  613   1.535   1.777   2.985
   47c3c     HC  614   1.625   1.815   2.936
   47c3c     HC  615   1.544   1.669   2.978
   47c3c     CT  616   1.542   1.815   3.130
   47c3c     HC  617   1.457   1.772   3.184
   47c3c     HC  618   1.540   1.923   3.141
   47c3c     HC  619   1.634   1.776   3.174
   48c3c     N4  620   2.819   0.822   4.325
   48c3c     C1  621   2.706   0.731   4.299
   48c3c     C1  622   2.767   0.957   4.354
   48c3c     C2  623   2.576   0.811   4.304
   48c3c     C2  624   2.615   0.955   4.339
   48c3c     C1  625   2.892   0.773   4.442
   48c3c     C1  626   2.909   0.826   4.210
   48c3c     H1  627   2.703   0.648   4.370
   48c3c     H1  628   2.715   0.680   4.203
   48c3c     H1  629   2.796   0.991   4.453
   48c3c     H1  630   2.810   1.032   4.289
   48c3c     HC  631   2.509   0.769   4.379
   48c3c     HC  632   2.524   0.807   4.208
   48c3c     HC  633   2.568   0.986   4.432
   48c3c     HC  634   2.583   1.024   4.261
   48c3c     H1  635   2.932   0.673   4.425
   48c3c     H1  636   2.976   0.838   4.466
   48c3c     H1  637   2.827   0.770   4.530
   48c3c     H1  638   2.995   0.890   4.231
   48c3c     H1  639   2.951   0.727   4.191
   48c3c     C2  640   2.837   0.876   4.083
   48c3c     HC  641   2.796   0.976   4.096
   48c3c     HC  642   2.752   0.814   4.056
   48c3c     CT  643   2.931   0.880   3.965
   48c3c     HC  644   2.969   0.780   3.945
   48c3c     HC  645   3.014   0.947   3.986
   48c3c     HC  646   2.877   0.916   3.877
   49c3c     N4  647   0.360   1.008   2.293
   49c3c     C1  648   0.445   1.122   2.255
   49c3c     C1  649   0.359   0.994   2.439
   49c3c     C2  650   0.507   1.181   2.382
   49c3c     C2  651   0.452   1.099   2.499
   49c3c     C1  652   0.224   1.033   2.246
   49c3c     C1  653   0.411   0.885   2.230
   49c3c     H1  654   0.389   1.198   2.201
   49c3c     H1  655   0.523   1.095   2.184
   49c3c     H1  656   0.259   1.004   2.480
   49c3c     H1  657   0.388   0.894   2.472
   49c3c     HC  658   0.479   1.286   2.391
   49c3c     HC  659   0.616   1.176   2.378
   49c3c     HC  660   0.396   1.162   2.569
   49c3c     HC  661   0.532   1.052   2.556
   49c3c     H1  662   0.220   1.045   2.138
   49c3c     H1  663   0.157   0.951   2.273
   49c3c     H1  664   0.184   1.124   2.291
   49c3c     H1  665   0.346   0.801   2.256
   49c3c     H1  666   0.408   0.894   2.122
   49c3c     C2  667   0.555   0.853   2.276
   49c3c     HC  668   0.562   0.840   2.384
   49c3c     HC  669   0.624   0.933   2.252
   49c3c     CT  670   0.605   0.726   2.211
   49c3c     HC  671   0.605   0.737   2.103
   49c3c     HC  672   0.541   0.643   2.239
   49c3c     HC  673   0.707   0.706   2.245
   50c3c     N4  674   4.196   3.652   4.219
   50c3c     C1  675   4.055   3.636   4.180
   50c3c     C1  676   4.264   3.522   4.211
   50c3c     C2  677   4.029   3.489   4.151
   50c3c     C2  678   4.161   3.416   4.171
   50c3c     C1  679   4.261   3.745   4.127
   50c3c     C1  680   4.205   3.705   4.356
   50c3c     H1  681   4.030   3.697   4.092
   50c3c     H1  682   3.985   3.673   4.255
   50c3c     H1  683   4.347   3.523   4.141
   50c3c     H1  684   4.312   3.494   4.305
   50c3c     HC  685   3.992   3.477   4.049
   50c3c     HC  686   3.951   3.450   4.217
   50c3c     HC  687   4.193   3.366   4.079
   50c3c     HC  688   4.153   3.339   4.248
   50c3c     H1  689   4.213   3.843   4.129
   50c3c     H1  690   4.366   3.759   4.152
   50c3c     H1  691   4.256   3.707   4.025
   50c3c     H1  692   4.309   3.720   4.384
   50c3c     H1  693   4.157   3.803   4.361
   50c3c     C2  694   4.137   3.611   4.458
   50c3c     HC  695   4.182   3.512   4.459
   50c3c     HC  696   4.032   3.595   4.436
   50c3c     CT  697   4.147   3.667   4.598
   50c3c     HC  698   4.097   3.764   4.602
   50c3c     HC  699   4.251   3.679   4.626
   50c3c     HC  700   4.098   3.598   4.667
   51fsi    FSI  701   4.350   3.223   2.826
   51fsi    SBT  702   4.368   3.136   2.695
   51fsi    NBT  703   4.333   3.240   2.586
   51fsi    OBT  704   4.504   3.092   2.697
   51fsi    OBT  705   4.265   3.036   2.700
   51fsi    SBT  706   4.437   3.339   2.531
   51fsi    OBT  707   4.549   3.360   2.619
   51fsi    OBT  708   4.374   3.456   2.477
   51fsi    FSI  709   4.494   3.259   2.407
   52fsi    FSI  710   2.585   3.025   2.607
   52fsi    SBT  711   2.624   3.172   2.647
   52fsi    NBT  712   2.764   3.183   2.580
   52fsi    OBT  713   2.521   3.254   2.590
   52fsi    OBT  714   2.634   3.168   2.791
   52fsi    SBT  715   2.780   3.222   2.431
   52fsi    OBT  716   2.662   3.196   2.352
   52fsi    OBT  717   2.904   3.173   2.378
   52fsi    FSI  718   2.794   3.379   2.440
   53fsi    FSI  719   1.689   2.785   0.308
   53fsi    SBT  720   1.765   2.649   0.281
   53fsi    NBT  721   1.902   2.677   0.348
   53fsi    OBT  722   1.686   2.550   0.346
   53fsi    OBT  723   1.776   2.641   0.138
   53fsi    SBT  724   1.924   2.658   0.500
   53fsi    OBT  725   1.803   2.660   0.578
   53fsi    OBT  726   2.033   2.739   0.548
   53fsi    FSI  727   1.977   2.509   0.506
   54fsi    FSI  728   3.524   1.132   3.959
   54fsi    SBT  729   3.396   1.137   4.049
   54fsi    NBT  730   3.349   0.989   4.045
   54fsi    OBT  731   3.441   1.182   4.177
   54fsi    OBT  732   3.303   1.222   3.980
   54fsi    SBT  733   3.414   0.881   4.135
   54fsi    OBT  734   3.542   0.918   4.189
   54fsi    OBT  735   3.402   0.750   4.078
   54fsi    FSI  736   3.313   0.884   4.259
   55fsi    FSI  737   2.306   3.946   4.322
   55fsi    SBT  738   2.435   4.011   4.258
   55fsi    NBT  739   2.522   3.885   4.231
   55fsi    OBT  740   2.391   4.079   4.140
   55fsi    OBT  741   2.491   4.092   4.362
   55fsi    SBT  742   2.503   3.798   4.104
   55fsi    OBT  743   2.376   3.816   4.040
   55fsi    OBT  744   2.549   3.664   4.125
   55fsi    FSI  745   2.608   3.865   4.006
   56fsi    FSI  746   1.519   1.807   4.169
   56fsi    SBT  747   1.558   1.919   4.272
   56fsi    NBT  748   1.441   1.907   4.373
   56fsi    OBT  749   1.686   1.881   4.323
   56fsi    OBT  750   1.550   2.042   4.197
   56fsi    SBT  751   1.442   1.802   4.487
   56fsi    OBT  752   1.531   1.692   4.465
   56fsi    OBT  753   1.309   1.769   4.531
   56fsi    FSI  754   1.506   1.886   4.606
   57fsi    FSI  755   4.105   1.174   2.768
   57fsi    SBT  756   3.958   1.229   2.786
   57fsi    NBT  757   3.934   1.199   2.936
   57fsi    OBT  758   3.967   1.369   2.754
   57fsi    OBT  759   3.878   1.147   2.701
   57fsi    SBT  760   3.982   1.295   3.048
   57fsi    OBT  761   4.089   1.383   3.008
   57fsi    OBT  762   4.001   1.225   3.173
   57fsi    FSI  763   3.855   1.388   3.068
   58fsi    FSI  764   4.901   0.754   1.524
   58fsi    SBT  765   4.809   0.627   1.539
   58fsi    NBT  766   4.672   0.684   1.492
   58fsi    OBT  767   4.868   0.529   1.452
   58fsi    OBT  768   4.810   0.598   1.680
   58fsi    SBT  769   4.634   0.692   1.343
   58fsi    OBT  770   4.747   0.691   1.254
   58fsi    OBT  771   4.533   0.792   1.317
   58fsi    FSI  772   4.560   0.553   1.321
   59fsi    FSI  773   0.744   4.814   4.460
   59fsi    SBT  774   0.741   4.672   4.530
   59fsi    NBT  775   0.608   4.683   4.610
   59fsi    OBT  776   0.739   4.578   4.422
   59fsi    OBT  777   0.855   4.672   4.617
   59fsi    SBT  778   0.471   4.652   4.546
   59fsi    OBT  779   0.471   4.664   4.402
   59fsi    OBT  780   0.365   4.721   4.615
   59fsi    FSI  781   0.453   4.498   4.578
   60fsi    FSI  782   3.576   1.458   4.454
   60fsi    SBT  783   3.582   1.569   4.566
   60fsi    NBT  784   3.535   1.489   4.690
   60fsi    OBT  785   3.720   1.610   4.569
   60fsi    OBT  786   3.484   1.667   4.526
   60fsi    SBT  787   3.633   1.401   4.772
   60fsi    OBT  788   3.753   1.364   4.701
   60fsi    OBT  789   3.564   1.297   4.843
   60fsi    FSI  790   3.680   1.504   4.884
   61fsi    FSI  791   3.505   3.654   4.960
   61fsi    SBT  792   3.656   3.608   4.962
   61fsi    NBT  793   3.639   3.454   4.969
   61fsi    OBT  794   3.712   3.658   4.840
   61fsi    OBT  795   3.708   3.660   5.085
   61fsi    SBT  796   3.616   3.369   4.842
   61fsi    OBT  797   3.564   3.443   4.730
   61fsi    OBT  798   3.549   3.245   4.872
   61fsi    FSI  799   3.764   3.329   4.803
   62fsi    FSI  800   3.463   3.378   3.171
   62fsi    SBT  801   3.417   3.503   3.255
   62fsi    NBT  802   3.494   3.617   3.183
   62fsi    OBT  803   3.274   3.506   3.240
   62fsi    OBT  804   3.468   3.477   3.387
   62fsi    SBT  805   3.439   3.684   3.055
   62fsi    OBT  806   3.343   3.604   2.984
   62fsi    OBT  807   3.545   3.741   2.976
   62fsi    FSI  808   3.358   3.806   3.116
   63fsi    FSI  809   1.308   4.206   1.011
   63fsi    SBT  810   1.257   4.183   0.863
   63fsi    NBT  811   1.344   4.063   0.819
   63fsi    OBT  812   1.116   4.155   0.876
   63fsi    OBT  813   1.293   4.303   0.793
   63fsi    SBT  814   1.306   3.917   0.855
   63fsi    OBT  815   1.215   3.906   0.966
   63fsi    OBT  816   1.422   3.831   0.856
   63fsi    FSI  817   1.223   3.875   0.726
   64fsi    FSI  818   2.050   0.462   2.137
   64fsi    SBT  819   2.015   0.601   2.070
   64fsi    NBT  820   2.037   0.700   2.187
   64fsi    OBT  821   2.108   0.615   1.961
   64fsi    OBT  822   1.876   0.592   2.035
   64fsi    SBT  823   2.178   0.752   2.224
   64fsi    OBT  824   2.286   0.672   2.172
   64fsi    OBT  825   2.185   0.793   2.361
   64fsi    FSI  826   2.182   0.887   2.141
   65fsi    FSI  827   0.718   2.541   4.316
   65fsi    SBT  828   0.663   2.673   4.250
   65fsi    NBT  829   0.551   2.618   4.157
   65fsi    OBT  830   0.615   2.755   4.359
   65fsi    OBT  831   0.771   2.726   4.173
   65fsi    SBT  832   0.410   2.584   4.211
   65fsi    OBT  833   0.402   2.567   4.353
   65fsi    OBT  834   0.344   2.486   4.129
   65fsi    FSI  835   0.334   2.720   4.180
   66fsi    FSI  836   3.262   4.708   1.224
   66fsi    SBT  837   3.111   4.690   1.267
   66fsi    NBT  838   3.079   4.829   1.328
   66fsi    OBT  839   3.041   4.658   1.145
   66fsi    OBT  840   3.114   4.587   1.367
   66fsi    SBT  841   3.039   4.950   1.240
   66fsi    OBT  842   3.081   4.937   1.104
   66fsi    OBT  843   3.068   5.075   1.304
   66fsi    FSI  844   2.881   4.938   1.241
   67fsi    FSI  845   0.863   0.415   3.280
   67fsi    SBT  846   0.780   0.534   3.341
   67fsi    NBT  847   0.878   0.588   3.448
   67fsi    OBT  848   0.755   0.623   3.231
   67fsi    OBT  849   0.665   0.472   3.401
   67fsi    SBT  850   0.992   0.687   3.411
   67fsi    OBT  851   1.027   0.689   3.272
   67fsi    OBT  852   1.101   0.681   3.505
   67fsi    FSI  853   0.921   0.826   3.439
   68fsi    FSI  854   0.991   4.086   3.668
   68fsi    SBT  855   0.858   4.012   3.711
   68fsi    NBT  856   0.898   3.955   3.849
   68fsi    OBT  857   0.758   4.116   3.715
   68fsi    OBT  858   0.840   3.909   3.613
   68fsi    SBT  859   0.893   4.040   3.978
   68fsi    OBT  860   0.893   4.182   3.955
   68fsi    OBT  861   0.983   3.991   4.079
   68fsi    FSI  862   0.747   4.005   4.032
   69fsi    FSI  863   3.328   4.610   2.959
   69fsi    SBT  864   3.395   4.517   2.851
   69fsi    NBT  865   3.484   4.619   2.775
   69fsi    OBT  866   3.467   4.418   2.925
   69fsi    OBT  867   3.286   4.472   2.769
   69fsi    SBT  868   3.624   4.660   2.827
   69fsi    OBT  869   3.645   4.633   2.967
   69fsi    OBT  870   3.664   4.789   2.779
   69fsi    FSI  871   3.717   4.556   2.750
   70fsi    FSI  872   0.271   1.207   1.741
   70fsi    SBT  873   0.421   1.173   1.776
   70fsi    NBT  874   0.495   1.301   1.733
   70fsi    OBT  875   0.425   1.147   1.918
   70fsi    OBT  876   0.456   1.062   1.692
   70fsi    SBT  877   0.501   1.427   1.823
   70fsi    OBT  878   0.403   1.429   1.928
   70fsi    OBT  879   0.520   1.547   1.747
   70fsi    FSI  880   0.640   1.401   1.896
   71fsi    FSI  881   2.857   4.673   0.654
   71fsi    SBT  882   2.769   4.805   0.651
   71fsi    NBT  883   2.695   4.795   0.787
   71fsi    OBT  884   2.863   4.913   0.639
   71fsi    OBT  885   2.679   4.785   0.541
   71fsi    SBT  886   2.760   4.842   0.919
   71fsi    OBT  887   2.903   4.849   0.909
   71fsi    OBT  888   2.704   4.775   1.032
   71fsi    FSI  889   2.710   4.992   0.928
   72fsi    FSI  890   1.736   1.067   4.316
   72fsi    SBT  891   1.818   0.984   4.423
   72fsi    NBT  892   1.711   0.884   4.473
   72fsi    OBT  893   1.927   0.925   4.351
   72fsi    OBT  894   1.851   1.078   4.526
   72fsi    SBT  895   1.679   0.753   4.396
   72fsi    OBT  896   1.721   0.754   4.258
   72fsi    OBT  897   1.546   0.707   4.423
   72fsi    FSI  898   1.776   0.651   4.469
   73fsi    FSI  899   3.157   0.622   4.602
   73fsi    SBT  900   3.191   0.470   4.571
   73fsi    NBT  901   3.164   0.465   4.419
   73fsi    OBT  902   3.328   0.454   4.611
   73fsi    OBT  903   3.092   0.397   4.644
   73fsi    SBT  904   3.271   0.508   4.315
   73fsi    OBT  905   3.370   0.596   4.370
   73fsi    OBT  906   3.206   0.547   4.193
   73fsi    FSI  907   3.344   0.371   4.285
   74fsi    FSI  908   3.688   2.199   4.561
   74fsi    SBT  909   3.840   2.177   4.597
   74fsi    NBT  910   3.829   2.080   4.718
   74fsi    OBT  911   3.899   2.121   4.478
   74fsi    OBT  912   3.887   2.306   4.637
   74fsi    SBT  913   3.810   1.928   4.699
   74fsi    OBT  914   3.760   1.894   4.569
   74fsi    OBT  915   3.747   1.869   4.814
   74fsi    FSI  916   3.961   1.878   4.703
   75fsi    FSI  917   1.620   1.786   1.553
   75fsi    SBT  918   1.709   1.896   1.483
   75fsi    NBT  919   1.776   1.962   1.606
   75fsi    OBT  920   1.798   1.822   1.397
   75fsi    OBT  921   1.615   1.984   1.420
   75fsi    SBT  922   1.903   1.902   1.672
   75fsi    OBT  923   1.923   1.762   1.644
   75fsi    OBT  924   1.914   1.942   1.810
   75fsi    FSI  925   2.018   1.979   1.595
   76fsi    FSI  926   1.442   2.143   0.552
   76fsi    SBT  927   1.554   2.251   0.580
   76fsi    NBT  928   1.682   2.164   0.572
   76fsi    OBT  929   1.535   2.346   0.476
   76fsi    OBT  930   1.527   2.294   0.715
   76fsi    SBT  931   1.750   2.131   0.436
   76fsi    OBT  932   1.662   2.144   0.323
   76fsi    OBT  933   1.827   2.011   0.445
   76fsi    FSI  934   1.855   2.249   0.424
   77fsi    FSI  935   3.774   4.378   0.554
   77fsi    SBT  936   3.630   4.369   0.618
   77fsi    NBT  937   3.587   4.519   0.618
   77fsi    OBT  938   3.554   4.285   0.529
   77fsi    OBT  939   3.650   4.319   0.751
   77fsi    SBT  940   3.529   4.588   0.493
   77fsi    OBT  941   3.557   4.519   0.370
   77fsi    OBT  942   3.550   4.730   0.495
   77fsi    FSI  943   3.373   4.568   0.518
   78fsi    FSI  944   4.462   2.894   3.046
   78fsi    SBT  945   4.320   2.866   2.982
   78fsi    NBT  946   4.258   2.769   3.085
   78fsi    OBT  947   4.255   2.994   2.978
   78fsi    OBT  948   4.349   2.798   2.858
   78fsi    SBT  949   4.189   2.821   3.213
   78fsi    OBT  950   4.227   2.954   3.253
   78fsi    OBT  951   4.186   2.719   3.315
   78fsi    FSI  952   4.038   2.831   3.165
   79fsi    FSI  953   2.373   3.645   0.633
   79fsi    SBT  954   2.440   3.511   0.585
   79fsi    NBT  955   2.581   3.561   0.545
   79fsi    OBT  956   2.437   3.424   0.699
   79fsi    OBT  957   2.364   3.471   0.470
   79fsi    SBT  958   2.694   3.579   0.649
   79fsi    OBT  959   2.647   3.592   0.785
   79fsi    OBT  960   2.792   3.675   0.606
   79fsi    FSI  961   2.766   3.438   0.642
   80fsi    FSI  962   4.543   4.820   0.527
   80fsi    SBT  963   4.426   4.804   0.631
   80fsi    NBT  964   4.437   4.653   0.665
   80fsi    OBT  965   4.459   4.894   0.738
   80fsi    OBT  966   4.307   4.833   0.555
   80fsi    SBT  967   4.536   4.601   0.771
   80fsi    OBT  968   4.646   4.690   0.798
   80fsi    OBT  969   4.570   4.463   0.747
   80fsi    FSI  970   4.446   4.601   0.902
   81fsi    FSI  971   1.300   3.440   0.843
   81fsi    SBT  972   1.261   3.462   0.994
   81fsi    NBT  973   1.139   3.367   1.009
   81fsi    OBT  974   1.376   3.423   1.071
   81fsi    OBT  975   1.220   3.599   1.003
   81fsi    SBT  976   1.156   3.216   1.036
   81fsi    OBT  977   1.286   3.164   1.004
   81fsi    OBT  978   1.043   3.140   0.991
   81fsi    FSI  979   1.148   3.213   1.195
   82fsi    FSI  980   4.470   4.259   1.132
   82fsi    SBT  981   4.507   4.311   1.276
   82fsi    NBT  982   4.367   4.349   1.332
   82fsi    OBT  983   4.570   4.200   1.341
   82fsi    OBT  984   4.589   4.427   1.253
   82fsi    SBT  985   4.273   4.244   1.394
   82fsi    OBT  986   4.304   4.109   1.355
   82fsi    OBT  987   4.135   4.285   1.385
   82fsi    FSI  988   4.311   4.255   1.547
   83fsi    FSI  989   1.946   3.297   4.414
   83fsi    SBT  990   2.013   3.435   4.451
   83fsi    NBT  991   1.981   3.519   4.324
   83fsi    OBT  992   1.947   3.478   4.571
   83fsi    OBT  993   2.154   3.406   4.461
   83fsi    SBT  994   1.845   3.590   4.305
   83fsi    OBT  995   1.740   3.537   4.387
   83fsi    OBT  996   1.815   3.611   4.167
   83fsi    FSI  997   1.877   3.734   4.364
   84fsi    FSI  998   1.260   4.508   2.588
   84fsi    SBT  999   1.396   4.537   2.513
   84fsi    NBT 1000   1.467   4.399   2.526
   84fsi    OBT 1001   1.357   4.574   2.380
   84fsi    OBT 1002   1.460   4.637   2.593
   84fsi    SBT 1003   1.438   4.283   2.428
   84fsi    OBT 1004   1.313   4.295   2.358
   84fsi    OBT 1005   1.467   4.156   2.487
   84fsi    FSI 1006   1.551   4.306   2.319
   85fsi    FSI 1007   1.677   4.528   1.777
   85fsi    SBT 1008   1.546   4.609   1.745
   85fsi    NBT 1009   1.446   4.546   1.845
   85fsi    OBT 1010   1.578   4.747   1.771
   85fsi    OBT 1011   1.513   4.575   1.609
   85fsi    SBT 1012   1.438   4.590   1.993
   85fsi    OBT 1013   1.555   4.659   2.039
   85fsi    OBT 1014   1.384   4.486   2.075
   85fsi    FSI 1015   1.324   4.701   1.985
   86fsi    FSI 1016   2.771   0.541   3.193
   86fsi    SBT 1017   2.634   0.617   3.175
   86fsi    NBT 1018   2.675   0.763   3.205
   86fsi    OBT 1019   2.594   0.592   3.039
   86fsi    OBT 1020   2.549   0.564   3.278
   86fsi    SBT 1021   2.739   0.854   3.097
   86fsi    OBT 1022   2.796   0.782   2.986
   86fsi    OBT 1023   2.818   0.959   3.155
   86fsi    FSI 1024   2.611   0.926   3.038
   87fsi    FSI 1025   5.039   0.579   4.971
   87fsi    SBT 1026   5.063   0.707   4.882
   87fsi    NBT 1027   4.918   0.740   4.838
   87fsi    OBT 1028   5.123   0.803   4.970
   87fsi    OBT 1029   5.143   0.661   4.772
   87fsi    SBT 1030   4.821   0.821   4.928
   87fsi    OBT 1031   4.859   0.822   5.067
   87fsi    OBT 1032   4.684   0.793   4.898
   87fsi    FSI 1033   4.847   0.969   4.876
   88fsi    FSI 1034   3.765   3.631   4.010
   88fsi    SBT 1035   3.626   3.559   3.998
   88fsi    NBT 1036   3.579   3.607   3.859
   88fsi    OBT 1037   3.656   3.418   4.007
   88fsi    OBT 1038   3.547   3.615   4.104
   88fsi    SBT 1039   3.625   3.538   3.728
   88fsi    OBT 1040   3.746   3.461   3.743
   88fsi    OBT 1041   3.620   3.629   3.617
   88fsi    FSI 1042   3.509   3.433   3.706
   89fsi    FSI 1043   0.633   2.336   4.932
   89fsi    SBT 1044   0.559   2.214   4.865
   89fsi    NBT 1045   0.420   2.277   4.833
   89fsi    OBT 1046   0.638   2.180   4.750
   89fsi    OBT 1047   0.549   2.115   4.968
   89fsi    SBT 1048   0.396   2.362   4.706
   89fsi    OBT 1049   0.517   2.415   4.648
   89fsi    OBT 1050   0.287   2.453   4.724
   89fsi    FSI 1051   0.344   2.252   4.604
   90fsi    FSI 1052   3.831   1.242   1.865
   90fsi    SBT 1053   3.921   1.117   1.897
   90fsi    NBT 1054   3.814   1.007   1.916
   90fsi    OBT 1055   4.006   1.101   1.782
   90fsi    OBT 1056   3.986   1.150   2.021
   90fsi    SBT 1057   3.753   0.931   1.795
   90fsi    OBT 1058   3.767   1.000   1.670
   90fsi    OBT 1059   3.623   0.879   1.826
   90fsi    FSI 1060   3.849   0.805   1.786
   91fsi    FSI 1061   1.126   2.277   4.070
   91fsi    SBT 1062   1.058   2.271   3.928
   91fsi    NBT 1063   1.025   2.421   3.902
   91fsi    OBT 1064   1.157   2.217   3.839
   91fsi    OBT 1065   0.939   2.194   3.946
   91fsi    SBT 1066   1.131   2.520   3.849
   91fsi    OBT 1067   1.267   2.476   3.864
   91fsi    OBT 1068   1.101   2.656   3.885
   91fsi    FSI 1069   1.102   2.512   3.693
   92fsi    FSI 1070   4.087   3.894   1.323
   92fsi    SBT 1071   4.017   3.903   1.465
   92fsi    NBT 1072   4.026   3.755   1.512
   92fsi    OBT 1073   4.096   3.994   1.543
   92fsi    OBT 1074   3.881   3.940   1.437
   92fsi    SBT 1075   4.154   3.698   1.578
   92fsi    OBT 1076   4.273   3.773   1.551
   92fsi    OBT 1077   4.162   3.556   1.562
   92fsi    FSI 1078   4.122   3.722   1.732
   93fsi    FSI 1079   3.425   1.071   3.040
   93fsi    SBT 1080   3.502   1.201   3.085
   93fsi    NBT 1081   3.408   1.312   3.030
   93fsi    OBT 1082   3.510   1.193   3.228
   93fsi    OBT 1083   3.625   1.198   3.010
   93fsi    SBT 1084   3.284   1.359   3.110
   93fsi    OBT 1085   3.237   1.264   3.208
   93fsi    OBT 1086   3.185   1.417   3.023
   93fsi    FSI 1087   3.344   1.480   3.193
   94fsi    FSI 1088   1.840   1.699   3.967
   94fsi    SBT 1089   1.701   1.679   3.896
   94fsi    NBT 1090   1.653   1.825   3.881
   94fsi    OBT 1091   1.731   1.613   3.771
   94fsi    OBT 1092   1.621   1.604   3.989
   94fsi    SBT 1093   1.699   1.916   3.765
   94fsi    OBT 1094   1.819   1.871   3.699
   94fsi    OBT 1095   1.693   2.056   3.797
   94fsi    FSI 1096   1.584   1.892   3.659
   95fsi    FSI 1097   1.962   4.457   0.993
   95fsi    SBT 1098   1.971   4.610   0.956
   95fsi    NBT 1099   1.837   4.664   1.014
   95fsi    OBT 1100   2.089   4.657   1.022
   95fsi    OBT 1101   1.972   4.613   0.813
   95fsi    SBT 1102   1.822   4.700   1.164
   95fsi    OBT 1103   1.921   4.640   1.249
   95fsi    OBT 1104   1.685   4.692   1.206
   95fsi    FSI 1105   1.856   4.855   1.161
   96fsi    FSI 1106   3.833   1.192   3.513
   96fsi    SBT 1107   3.832   1.295   3.633
   96fsi    NBT 1108   3.694   1.364   3.614
   96fsi    OBT 1109   3.845   1.215   3.752
   96fsi    OBT 1110   3.940   1.386   3.605
   96fsi    SBT 1111   3.563   1.300   3.667
   96fsi    OBT 1112   3.574   1.159   3.691
   96fsi    OBT 1113   3.448   1.346   3.594
   96fsi    FSI 1114   3.553   1.369   3.810
   97fsi    FSI 1115   1.356   3.657   3.372
   97fsi    SBT 1116   1.422   3.779   3.449
   97fsi    NBT 1117   1.535   3.707   3.526
   97fsi    OBT 1118   1.466   3.868   3.346
   97fsi    OBT 1119   1.319   3.826   3.537
   97fsi    SBT 1120   1.672   3.676   3.461
   97fsi    OBT 1121   1.669   3.674   3.317
   97fsi    OBT 1122   1.738   3.565   3.525
   97fsi    FSI 1123   1.756   3.804   3.500
   98fsi    FSI 1124   4.009   2.027   2.512
   98fsi    SBT 1125   3.863   1.968   2.511
   98fsi    NBT 1126   3.890   1.817   2.501
   98fsi    OBT 1127   3.803   2.012   2.635
   98fsi    OBT 1128   3.803   2.020   2.391
   98fsi    SBT 1129   3.925   1.731   2.626
   98fsi    OBT 1130   3.970   1.808   2.738
   98fsi    OBT 1131   4.001   1.616   2.588
   98fsi    FSI 1132   3.780   1.677   2.666
   99fsi    FSI 1133   2.603   1.468   0.827
   99fsi    SBT 1134   2.448   1.477   0.800
   99fsi    NBT 1135   2.392   1.396   0.920
   99fsi    OBT 1136   2.418   1.617   0.801
   99fsi    OBT 1137   2.428   1.408   0.676
   99fsi    SBT 1138   2.372   1.460   1.060
   99fsi    OBT 1139   2.448   1.580   1.080
   99fsi    OBT 1140   2.375   1.362   1.164
   99fsi    FSI 1141   2.221   1.507   1.050
  100fsi    FSI 1142   2.847   4.773   3.894
  100fsi    SBT 1143   2.800   4.717   3.753
  100fsi    NBT 1144   2.716   4.838   3.703
  100fsi    OBT 1145   2.921   4.691   3.681
  100fsi    OBT 1146   2.716   4.605   3.786
  100fsi    SBT 1147   2.782   4.958   3.630
  100fsi    OBT 1148   2.921   4.974   3.661
  100fsi    OBT 1149   2.700   5.076   3.644
  100fsi    FSI 1150   2.773   4.914   3.478
   5.28770   5.28770   5.28770
