simbox
 2300
    1Li      Li    1   2.053   1.795   2.790  0.4627 -1.3713 -0.9968
    2Li      Li    2   0.440   2.375   2.714  0.1010 -0.0941  0.4728
    3Li      Li    3   1.960   0.662   0.013  0.3442  0.8614 -0.1588
    4Li      Li    4   1.910   0.954   2.438 -0.2802  0.1276  0.5621
    5Li      Li    5   2.343   0.418   2.622  0.0875 -0.0253  1.1085
    6Li      Li    6   1.098   1.291   1.306  0.0222  0.9168 -1.0639
    7Li      Li    7   1.726   0.835   0.470  0.2555 -0.4271  0.3437
    8Li      Li    8   1.606   0.100   0.698  0.6130  1.2708 -0.7278
    9Li      Li    9   0.684   2.219   2.156 -0.3084  0.3666 -1.0543
   10Li      Li   10   1.974   2.699   0.407 -0.5779  0.8271 -0.0562
   11Li      Li   11   2.085   0.668   1.601 -0.7555 -0.2661  0.9360
   12Li      Li   12   2.093   1.343   2.203 -0.0177  0.4762 -0.3111
   13Li      Li   13   0.924   0.258   1.532  0.0482  0.4442 -1.0354
   14Li      Li   14   1.992   0.986   1.006 -0.5163  0.9836 -0.6830
   15Li      Li   15   1.179   0.223   2.215 -0.6081 -0.5026 -0.2657
   16Li      Li   16   2.157   2.726   2.239 -0.8474  0.6615 -0.3487
   17Li      Li   17   0.638   0.619   2.565 -0.8614  0.3987  0.3108
   18Li      Li   18   2.209   2.249   2.413 -0.3593 -0.2292  0.1476
   19Li      Li   19   0.484   2.372   0.440  0.1034 -0.4512  0.8439
   20Li      Li   20   2.276   0.548   0.705 -0.5420  0.5483 -0.7927
   21Li      Li   21   2.968   0.718   2.511 -0.0531 -1.0178 -0.3399
   22Li      Li   22   2.044   2.881   2.853  0.2478  0.5804 -0.1249
   23Li      Li   23   2.317   0.254   1.784 -0.9016  0.1159 -0.3727
   24Li      Li   24   2.316   2.561   2.807  1.1427  0.1249  0.0501
   25Li      Li   25   0.748   2.263   1.075  0.4173 -0.5341 -0.6395
   26Li      Li   26   1.862   0.450   0.496  0.2191 -0.2268 -0.7269
   27Li      Li   27   1.959   2.801   0.951 -0.3880  0.6123 -0.8468
   28Li      Li   28   0.622   2.046   0.121  0.2796 -0.8448 -0.1556
   29Li      Li   29   0.718   0.426   2.165 -0.6660 -0.8216  0.6780
   30Li      Li   30   2.122   1.646   1.167  0.8898  0.6714 -0.4218
   31Li      Li   31   1.825   2.423   2.902 -0.2300  0.2818  0.3861
   32Li      Li   32   0.282   0.951   2.795  0.1531 -0.0853  0.3526
   33Li      Li   33   0.560   0.817   1.783 -1.6158  0.3050 -0.8059
   34Li      Li   34   1.178   2.610   2.437  0.9178 -0.1933  0.4200
   35Li      Li   35   2.867   1.249   0.938 -0.1074  0.1851  0.3493
   36Li      Li   36   2.969   0.182   1.775 -0.8105  1.0625  0.4655
   37Li      Li   37   0.293   2.596   0.949 -1.1650  0.0641  0.1940
   38Li      Li   38   0.819   2.672   0.646 -0.3004 -0.2950 -0.1013
   39Li      Li   39   0.550   1.206   2.309 -0.2585 -0.1773  0.2142
   40Li      Li   40   0.156   0.374   0.023 -0.8674 -0.0549 -0.2610
   41Li      Li   41   1.612   2.897   2.535 -0.9118 -0.4497 -0.5505
   42Li      Li   42   0.401   0.200   2.101 -0.4248  0.4401 -1.1204
   43Li      Li   43   0.869   0.578   1.234 -0.4122 -0.1207 -0.6861
   44Li      Li   44   1.692   2.237   1.065  0.2280 -0.4463 -0.1556
   45Li      Li   45   2.252   1.947   1.591 -0.4360  0.6427 -0.5576
   46Li      Li   46   2.095   0.212   0.174 -1.2615 -0.0934  1.2096
   47Li      Li   47   0.564   0.104   1.002  0.8418 -0.4174  0.0613
   48Li      Li   48   0.653   1.120   1.234 -0.6014  0.5546 -0.4098
   49Li      Li   49   1.924   2.474   1.626 -0.4742 -0.2684 -0.3978
   50Li      Li   50   2.305   2.346   1.138 -0.2450  0.5062 -0.0225
   51c3c      N   51   1.289   2.833   0.204 -0.4401  0.4405  0.3071
   51c3c     C1   52   1.338   2.952   0.276  0.1048  0.0014 -0.2513
   51c3c     C2   53   1.366   2.816   0.083  0.7663  0.4008  0.0097
   51c3c     C3   54   1.395   3.050   0.162  0.3563 -0.3210  0.2996
   51c3c     C4   55   1.407   2.961   0.039  0.2664 -0.3238 -0.5302
   51c3c     C5   56   1.309   2.710   0.290 -0.3887  0.0310  0.6780
   51c3c     C6   57   1.144   2.843   0.182  0.2564 -0.3156  0.6302
   51c3c     H1   58   1.427   2.929   0.335  0.0166 -0.0846 -0.1502
   51c3c     H2   59   1.266   3.001   0.342  0.9170 -0.4090  0.9556
   51c3c     H3   60   1.457   2.759   0.101 -0.3856 -1.3336  0.4255
   51c3c     H4   61   1.312   2.762   0.005  1.9988  0.8529 -1.1855
   51c3c     H5   62   1.494   3.084   0.190 -0.8407  1.9244  1.9217
   51c3c     H6   63   1.325   3.129   0.135  0.7480 -0.6491 -1.7226
   51c3c     H7   64   1.509   2.969   0.004  0.6434  1.5016  0.8814
   51c3c     H8   65   1.341   2.986  -0.044  1.4808 -0.9461 -1.6946
   51c3c     H9   66   1.412   2.693   0.322 -0.1452 -0.1970 -0.1989
   51c3c    H10   67   1.248   2.721   0.379 -0.4716 -0.7082  0.7154
   51c3c    H11   68   1.271   2.619   0.245  1.5316 -1.1058  1.2907
   51c3c    H12   69   1.108   2.753   0.131 -1.3663  0.8798 -0.3994
   51c3c    H13   70   1.095   2.839   0.279 -1.9073  0.3651 -0.4061
   51c3c     C7   71   1.094   2.968   0.107  0.5288 -0.5408  0.7211
   51c3c    H14   72   1.133   2.989   0.007  2.6372  2.3577  2.0682
   51c3c    H15   73   1.106   3.062   0.161  0.5631 -0.5931  0.8048
   51c3c     C8   74   0.947   2.956   0.074 -0.9848  0.8790 -0.2266
   51c3c    H16   75   0.896   2.924   0.164  4.3989 -1.5929  2.1795
   51c3c    H17   76   0.933   2.885  -0.008  0.0490 -0.0275  0.3625
   51c3c    H18   77   0.898   3.043   0.030 -1.2083  1.2543  0.7708
   52c3c      N   78   1.477   0.717   0.995 -0.3756  0.7020 -0.0270
   52c3c     C1   79   1.503   0.795   0.870  0.0967 -0.0217  0.4447
   52c3c     C2   80   1.361   0.629   0.964  0.3091  0.1305 -0.5548
   52c3c     C3   81   1.468   0.704   0.754 -0.2195  0.6994 -0.1160
   52c3c     C4   82   1.372   0.600   0.818  0.5207  0.4123 -0.7704
   52c3c     C5   83   1.592   0.624   1.014 -0.2705  0.0837 -0.0302
   52c3c     C6   84   1.464   0.792   1.123  0.0552 -0.6329  0.6532
   52c3c     H1   85   1.602   0.840   0.862  0.5233 -1.0920 -0.3583
   52c3c     H2   86   1.432   0.878   0.874 -1.1371 -0.9113 -1.9855
   52c3c     H3   87   1.346   0.543   1.029 -0.4923 -1.1317 -2.3924
   52c3c     H4   88   1.271   0.687   0.983  1.6065  1.9014  0.3162
   52c3c     H5   89   1.564   0.661   0.727 -0.5948 -1.7961  2.2851
   52c3c     H6   90   1.415   0.752   0.672  1.3371  1.0842 -0.9091
   52c3c     H7   91   1.415   0.503   0.793  1.2067  0.5172 -0.0381
   52c3c     H8   92   1.274   0.606   0.771  0.3311 -0.3515 -0.4826
   52c3c     H9   93   1.687   0.677   1.027  0.6277 -0.9037 -2.1982
   52c3c    H10   94   1.568   0.557   1.096 -0.0629 -2.1846 -1.7578
   52c3c    H11   95   1.611   0.564   0.925  1.7568 -1.2661  1.2498
   52c3c    H12   96   1.450   0.727   1.210  0.0338 -0.7478  0.5632
   52c3c    H13   97   1.559   0.844   1.139 -1.5853  2.4672  0.6013
   52c3c     C7   98   1.347   0.892   1.133 -0.7491 -0.4746  0.0104
   52c3c    H14   99   1.260   0.829   1.113 -1.3273  1.0265 -2.4061
   52c3c    H15  100   1.348   0.968   1.055 -1.5177 -1.3230 -0.8228
   52c3c     C8  101   1.325   0.964   1.268 -0.8054 -0.4722  0.2211
   52c3c    H16  102   1.226   1.008   1.256 -0.2223  0.6059 -0.6947
   52c3c    H17  103   1.414   1.023   1.288 -0.4711  0.0007 -2.4489
   52c3c    H18  104   1.334   0.886   1.344 -0.3697  0.5462  1.2333
   53c3c      N  105   0.271   1.372   1.337 -0.6873  0.0524 -0.0506
   53c3c     C1  106   0.386   1.395   1.254 -0.5460 -0.4298 -0.1627
   53c3c     C2  107   0.222   1.513   1.351  0.1334  0.3441 -0.1823
   53c3c     C3  108   0.349   1.497   1.145  0.7087 -0.0387  0.3392
   53c3c     C4  109   0.275   1.591   1.232 -0.0804 -0.0007 -0.2148
   53c3c     C5  110   0.162   1.303   1.268  0.1625  0.8528 -0.9074
   53c3c     C6  111   0.308   1.300   1.460 -0.3006 -0.4413  0.4385
   53c3c     H1  112   0.430   1.306   1.209  1.6118  0.3274  0.3912
   53c3c     H2  113   0.469   1.436   1.312 -1.7947 -0.9154  2.0136
   53c3c     H3  114   0.114   1.515   1.368  0.5512  0.2138  2.6483
   53c3c     H4  115   0.268   1.566   1.434 -2.8813 -0.7989  2.3206
   53c3c     H5  116   0.281   1.458   1.070 -0.0006  0.1847  0.8569
   53c3c     H6  117   0.439   1.532   1.095 -0.4778  0.2533 -1.6253
   53c3c     H7  118   0.190   1.633   1.177 -0.1657  0.4430  0.2607
   53c3c     H8  119   0.345   1.667   1.264  0.6031 -0.0274 -1.5918
   53c3c     H9  120   0.200   1.208   1.230 -0.3907 -0.1419  0.9776
   53c3c    H10  121   0.078   1.288   1.335 -0.2208  1.3098 -1.2778
   53c3c    H11  122   0.126   1.358   1.181 -0.8956 -1.8618 -2.2526
   53c3c    H12  123   0.220   1.273   1.518 -1.0585 -0.8879 -0.8858
   53c3c    H13  124   0.353   1.205   1.434  2.0090  0.8650 -0.5382
   53c3c     C7  125   0.393   1.383   1.567 -0.4459  0.2669  0.5457
   53c3c    H14  126   0.324   1.459   1.602 -1.1208 -0.0949  0.0235
   53c3c    H15  127   0.473   1.435   1.514  0.6600 -1.3153  0.6262
   53c3c     C8  128   0.437   1.294   1.683  0.4521  0.7527  0.0692
   53c3c    H16  129   0.346   1.254   1.727 -0.7621  0.1216 -2.9177
   53c3c    H17  130   0.496   1.349   1.757  1.6280 -0.6697  0.2147
   53c3c    H18  131   0.507   1.214   1.663 -0.3054  0.5537 -1.8303
   54c3c      N  132   0.211   1.867   0.803 -0.6071  0.6277  0.1311
   54c3c     C1  133   0.307   1.982   0.800 -0.3669 -0.3049 -0.0359
   54c3c     C2  134   0.238   1.822   0.940  0.5573  0.6842 -0.3496
   54c3c     C3  135   0.298   2.047   0.938 -0.1812 -0.4983  0.0484
   54c3c     C4  136   0.254   1.941   1.032  0.0159  0.8378 -0.8742
   54c3c     C5  137   0.073   1.913   0.799  0.4472 -0.4271  0.1370
   54c3c     C6  138   0.241   1.760   0.705  0.7274 -0.4407 -0.2258
   54c3c     H1  139   0.291   2.062   0.728  0.5662 -1.2287 -1.2794
   54c3c     H2  140   0.405   1.937   0.787 -0.1237  0.6663 -1.6285
   54c3c     H3  141   0.166   1.745   0.968  0.8188  0.5469 -0.0486
   54c3c     H4  142   0.335   1.774   0.956  0.0936  0.0170  0.4967
   54c3c     H5  143   0.220   2.123   0.934  0.2342 -0.0465  0.4625
   54c3c     H6  144   0.392   2.094   0.968 -0.0956  0.1742 -1.2354
   54c3c     H7  145   0.160   1.973   1.077 -0.4641 -2.1062  0.3668
   54c3c     H8  146   0.325   1.924   1.113 -2.5927  0.2238  1.3772
   54c3c     H9  147   0.067   2.004   0.859  0.1651 -0.2241 -0.1914
   54c3c    H10  148   0.046   1.936   0.696  2.3679  2.3989  0.2200
   54c3c    H11  149  -0.009   1.852   0.838 -0.6350  1.7516  1.3830
   54c3c    H12  150   0.160   1.687   0.712 -0.8715  1.3806  0.9579
   54c3c    H13  151   0.229   1.799   0.604  1.0770 -0.7703 -0.3964
   54c3c     C7  152   0.385   1.687   0.711  0.3693 -0.6604  0.2558
   54c3c    H14  153   0.418   1.645   0.806 -2.3592 -3.5183  0.0057
   54c3c    H15  154   0.453   1.767   0.680  0.1787 -1.5006 -2.4942
   54c3c     C8  155   0.396   1.588   0.603 -0.3083  0.0656  0.3077
   54c3c    H16  156   0.348   1.490   0.613  0.7492 -0.5837 -0.8915
   54c3c    H17  157   0.496   1.557   0.573 -0.8347 -0.1784 -1.2606
   54c3c    H18  158   0.345   1.626   0.514  0.4964 -0.1079 -0.2313
   55c3c      N  159   1.267   2.152   0.347  0.3146  0.1391  0.4170
   55c3c     C1  160   1.410   2.121   0.315 -0.0879  0.7268 -0.8061
   55c3c     C2  161   1.219   2.223   0.232 -0.7396 -0.0266  0.2160
   55c3c     C3  162   1.406   2.075   0.168  0.1604 -0.3848  0.0603
   55c3c     C4  163   1.299   2.165   0.109 -0.0548 -0.2511  0.9462
   55c3c     C5  164   1.182   2.032   0.364 -0.0091  0.0684  0.7231
   55c3c     C6  165   1.244   2.222   0.475 -0.3340 -0.4747  0.0371
   55c3c     H1  166   1.458   2.053   0.386 -1.0482 -0.4567 -1.2851
   55c3c     H2  167   1.469   2.212   0.327  0.4931  0.0302  1.9673
   55c3c     H3  168   1.111   2.225   0.221 -0.5773  0.2635 -1.3578
   55c3c     H4  169   1.246   2.328   0.226 -0.9651 -0.0297 -0.7825
   55c3c     H5  170   1.376   1.973   0.147  0.1386 -0.1754 -0.9303
   55c3c     H6  171   1.502   2.085   0.119  1.1454  0.8898  2.1811
   55c3c     H7  172   1.225   2.103   0.058  0.7113 -1.0991  0.8584
   55c3c     H8  173   1.334   2.250   0.051 -0.1371  0.6702  2.2443
   55c3c     H9  174   1.076   2.047   0.387  0.3075 -0.5246  2.6796
   55c3c    H10  175   1.182   1.975   0.271 -1.3421  1.7364 -0.3241
   55c3c    H11  176   1.234   1.966   0.434 -0.8808  0.1241  1.4292
   55c3c    H12  177   1.136   2.227   0.489 -0.4324  0.6593 -0.9812
   55c3c    H13  178   1.284   2.171   0.563  0.7326  0.5528  0.1721
   55c3c     C7  179   1.306   2.367   0.485  0.1046  0.6072 -0.6554
   55c3c    H14  180   1.259   2.429   0.408 -1.8754 -1.2454 -1.0058
   55c3c    H15  181   1.412   2.367   0.462  0.1815  1.3953 -0.3062
   55c3c     C8  182   1.290   2.436   0.619 -0.8857 -0.4228  0.2491
   55c3c    H16  183   1.345   2.387   0.699 -0.6206 -0.5398 -0.0013
   55c3c    H17  184   1.191   2.470   0.649 -0.3067 -0.4411  2.1959
   55c3c    H18  185   1.338   2.534   0.612 -1.3498 -0.1490  0.9360
   56c3c      N  186   1.531   1.600   1.066 -0.0519 -0.8013 -0.1029
   56c3c     C1  187   1.390   1.624   1.033 -0.0256 -0.1995  0.4325
   56c3c     C2  188   1.528   1.493   1.168  0.3843 -0.0687 -0.2211
   56c3c     C3  189   1.327   1.481   1.037  0.2072  0.0908 -0.3500
   56c3c     C4  190   1.419   1.398   1.125 -0.3434 -0.2799  0.0019
   56c3c     C5  191   1.601   1.542   0.954 -0.1788  0.0638  0.9924
   56c3c     C6  192   1.604   1.726   1.101  0.1036  0.0880  0.5651
   56c3c     H1  193   1.369   1.676   0.939  0.5294 -1.4514 -0.4023
   56c3c     H2  194   1.331   1.680   1.105 -3.7152 -1.8307 -1.1899
   56c3c     H3  195   1.622   1.440   1.183  0.1505  0.0892  2.0358
   56c3c     H4  196   1.488   1.512   1.268 -1.9144  0.6711 -1.2474
   56c3c     H5  197   1.316   1.441   0.937 -0.0418  0.2661 -0.3946
   56c3c     H6  198   1.225   1.494   1.074  0.9486  3.7667  0.6061
   56c3c     H7  199   1.459   1.315   1.068  0.0054  0.4072 -0.7694
   56c3c     H8  200   1.361   1.364   1.210  0.1337  2.0996  1.3150
   56c3c     H9  201   1.583   1.615   0.876  0.4750  0.0429  0.8154
   56c3c    H10  202   1.710   1.539   0.960 -0.1000 -3.0358 -1.1106
   56c3c    H11  203   1.567   1.443   0.922 -0.0333  0.7752 -1.4235
   56c3c    H12  204   1.710   1.710   1.080 -0.2528  0.3426 -1.4790
   56c3c    H13  205   1.577   1.801   1.027  1.4149  0.4344  0.4349
   56c3c     C7  206   1.586   1.776   1.253  0.2036  0.4423 -0.2604
   56c3c    H14  207   1.630   1.708   1.326  0.9070 -1.8920 -2.7554
   56c3c    H15  208   1.481   1.765   1.280  0.2247 -2.3420 -1.1007
   56c3c     C8  209   1.635   1.921   1.260 -0.4530  0.0333  0.1553
   56c3c    H16  210   1.564   1.985   1.207  0.0361  0.5080  0.0591
   56c3c    H17  211   1.736   1.945   1.226 -0.1539  1.7536  2.1419
   56c3c    H18  212   1.642   1.960   1.362 -1.7688 -4.1466  1.9188
   57c3c      N  213   0.482   2.802   1.696  0.4342  0.2890  0.0444
   57c3c     C1  214   0.492   2.939   1.650  0.1859  0.5941  0.2228
   57c3c     C2  215   0.617   2.756   1.671 -0.6361 -0.0001 -0.2641
   57c3c     C3  216   0.618   2.992   1.716 -0.1473 -0.7777  0.4189
   57c3c     C4  217   0.711   2.867   1.719 -0.1111  0.6191 -0.0888
   57c3c     C5  218   0.449   2.801   1.839  0.2416 -0.3031  0.2462
   57c3c     C6  219   0.381   2.715   1.630 -0.9745 -0.1541  0.0463
   57c3c     H1  220   0.408   3.004   1.675  0.2722  1.0127 -0.5637
   57c3c     H2  221   0.507   2.950   1.542 -2.3135  3.2189  0.0773
   57c3c     H3  222   0.650   2.667   1.724 -0.1182  0.0401 -0.5184
   57c3c     H4  223   0.642   2.745   1.565  0.4871  1.4637 -0.1745
   57c3c     H5  224   0.604   3.032   1.816 -0.3145  1.3184 -0.4146
   57c3c     H6  225   0.676   3.065   1.660 -2.2922  1.5134  1.0971
   57c3c     H7  226   0.744   2.839   1.819 -1.9834  1.2608  0.7398
   57c3c     H8  227   0.801   2.886   1.660 -1.6827  2.3861 -2.0070
   57c3c     H9  228   0.440   2.700   1.877  2.5615 -0.7288 -0.2421
   57c3c    H10  229   0.526   2.837   1.907  0.0966  1.1290 -0.3215
   57c3c    H11  230   0.351   2.841   1.867  0.1778 -2.2419  2.9264
   57c3c    H12  231   0.403   2.612   1.661  0.6903  0.7461  1.9622
   57c3c    H13  232   0.287   2.746   1.674 -0.1671 -1.7979  3.0958
   57c3c     C7  233   0.371   2.722   1.480  0.8439  0.5069  1.0572
   57c3c    H14  234   0.470   2.702   1.440 -0.0228 -1.2379 -0.3140
   57c3c    H15  235   0.336   2.823   1.461  2.3403  0.7194 -0.7457
   57c3c     C8  236   0.263   2.631   1.438 -0.0199  0.8777 -0.0224
   57c3c    H16  237   0.256   2.624   1.329 -0.8569 -1.5951  0.1620
   57c3c    H17  238   0.164   2.648   1.481 -0.0047 -0.0753  0.3809
   57c3c    H18  239   0.289   2.528   1.459 -0.0250  1.1633  1.4335
   58c3c      N  240   1.650   1.646   0.164  0.0221 -0.0361 -0.2137
   58c3c     C1  241   1.507   1.664   0.165  0.7325  0.1566 -0.5032
   58c3c     C2  242   1.662   1.592   0.304  0.1595  0.2058  0.7596
   58c3c     C3  243   1.437   1.539   0.225  0.3628 -0.5528 -0.4431
   58c3c     C4  244   1.547   1.493   0.320 -0.7251 -0.0685 -0.5341
   58c3c     C5  245   1.688   1.549   0.058 -0.2306  0.0588  0.4068
   58c3c     C6  246   1.729   1.772   0.149 -0.4592 -0.0127  0.6803
   58c3c     H1  247   1.465   1.688   0.067  0.7511  0.0740 -0.5317
   58c3c     H2  248   1.474   1.744   0.231 -1.0139 -0.8613 -0.1333
   58c3c     H3  249   1.762   1.552   0.323  0.0373 -0.7586 -0.5984
   58c3c     H4  250   1.640   1.666   0.381 -2.7056 -1.0602  1.2200
   58c3c     H5  251   1.417   1.468   0.145 -1.6670 -0.1454 -0.3168
   58c3c     H6  252   1.342   1.573   0.267  0.1805 -1.3509 -0.1888
   58c3c     H7  253   1.589   1.396   0.294  1.5319  1.4312 -2.7385
   58c3c     H8  254   1.502   1.481   0.419 -0.1492 -2.1274 -0.4866
   58c3c     H9  255   1.667   1.592  -0.040 -0.1876 -1.7377 -0.4074
   58c3c    H10  256   1.795   1.530   0.067  0.3799  3.3185  0.6699
   58c3c    H11  257   1.634   1.454   0.055  0.0758 -0.0764 -3.1447
   58c3c    H12  258   1.832   1.746   0.175  0.4213  2.1219 -0.4859
   58c3c    H13  259   1.736   1.804   0.045 -0.2914 -2.2662 -0.0181
   58c3c     C7  260   1.702   1.895   0.236  0.3607  0.9085  0.1932
   58c3c    H14  261   1.704   1.875   0.343  1.9992  0.5756  0.1068
   58c3c    H15  262   1.600   1.925   0.211 -0.7124 -1.8329  1.0139
   58c3c     C8  263   1.778   2.024   0.204  0.0041 -0.1336 -0.1907
   58c3c    H16  264   1.882   2.012   0.233 -0.2609  1.3917  1.5433
   58c3c    H17  265   1.741   2.100   0.273  0.7136  0.4054 -0.3911
   58c3c    H18  266   1.759   2.061   0.103  1.4204 -0.4951 -0.5967
   59c3c      N  267   1.249   2.610   1.979 -0.2071 -0.1021  0.8779
   59c3c     C1  268   1.266   2.647   1.839  0.0333 -0.1205 -0.3705
   59c3c     C2  269   1.158   2.709   2.029  0.3283  0.2285  1.2453
   59c3c     C3  270   1.133   2.703   1.792  0.0080 -0.3879 -0.2481
   59c3c     C4  271   1.058   2.733   1.919  0.0416  0.2957 -0.0585
   59c3c     C5  272   1.187   2.474   1.993 -0.0136  0.4502  0.0101
   59c3c     C6  273   1.379   2.613   2.052  0.1042 -0.1702 -0.3780
   59c3c     H1  274   1.304   2.563   1.781 -0.7188  1.4671 -3.2198
   59c3c     H2  275   1.339   2.721   1.807 -1.9460  1.4880 -1.2575
   59c3c     H3  276   1.113   2.686   2.126  0.6073  1.2849  1.6274
   59c3c     H4  277   1.210   2.804   2.040  0.6731  0.3815 -1.2936
   59c3c     H5  278   1.077   2.631   1.732 -0.2626  0.5643 -1.1509
   59c3c     H6  279   1.152   2.788   1.727  0.2299  0.6168  1.1183
   59c3c     H7  280   0.964   2.679   1.933 -0.2662  0.5034 -1.2621
   59c3c     H8  281   1.035   2.840   1.920  0.7715  0.4538  0.0507
   59c3c     H9  282   1.178   2.423   2.089  1.3068 -1.7287 -0.9719
   59c3c    H10  283   1.082   2.482   1.964  0.1271 -1.6361 -1.2122
   59c3c    H11  284   1.219   2.403   1.917 -2.9846  1.3519 -2.1886
   59c3c    H12  285   1.412   2.716   2.067  1.6629 -0.4162 -2.0299
   59c3c    H13  286   1.368   2.573   2.153 -1.0525 -1.3292 -0.9437
   59c3c     C7  287   1.494   2.535   1.987  0.4132 -0.0554  1.2179
   59c3c    H14  288   1.530   2.583   1.895 -3.7784  0.4556 -0.2428
   59c3c    H15  289   1.480   2.430   1.962 -2.3836  0.9688 -1.9506
   59c3c     C8  290   1.621   2.520   2.073  0.5696  0.3402  0.8037
   59c3c    H16  291   1.609   2.485   2.175  1.1596 -0.6215  0.5459
   59c3c    H17  292   1.663   2.619   2.093  0.4380  0.8944 -1.5140
   59c3c    H18  293   1.690   2.451   2.026 -1.4222  0.5170 -2.6080
   60c3c      N  294   2.204   0.227   1.168  0.0381 -0.5491  0.4614
   60c3c     C1  295   2.238   0.146   1.287  0.5652 -0.0698 -0.0775
   60c3c     C2  296   2.055   0.206   1.151 -0.0697  0.5762 -0.5153
   60c3c     C3  297   2.115   0.150   1.383 -0.0875  0.5102  0.2097
   60c3c     C4  298   1.998   0.171   1.290  0.0077 -0.6580 -0.0805
   60c3c     C5  299   2.241   0.367   1.198 -0.6201  0.3216 -0.3120
   60c3c     C6  300   2.289   0.190   1.054  0.4506 -0.0482 -0.0930
   60c3c     H1  301   2.332   0.169   1.337  0.1034 -1.5758  1.5430
   60c3c     H2  302   2.255   0.040   1.267  0.5939 -0.0626 -0.0916
   60c3c     H3  303   2.015   0.298   1.108  0.2120  0.3680 -1.2164
   60c3c     H4  304   2.036   0.120   1.088  0.7206  1.1541 -1.5603
   60c3c     H5  305   2.119   0.228   1.459 -0.1591 -0.7362  1.5133
   60c3c     H6  306   2.108   0.056   1.439 -0.0908 -0.3204 -1.1609
   60c3c     H7  307   1.931   0.249   1.329  0.7436  0.3961 -0.8864
   60c3c     H8  308   1.946   0.076   1.282  0.3004 -0.5977 -3.5868
   60c3c     H9  309   2.187   0.399   1.287 -1.9977 -3.3568  0.2657
   60c3c    H10  310   2.346   0.382   1.220 -0.7032  0.0260  0.3004
   60c3c    H11  311   2.213   0.435   1.118  0.2280  1.6852  0.5252
   60c3c    H12  312   2.272   0.266   0.978 -1.7446 -1.0473 -0.6146
   60c3c    H13  313   2.395   0.209   1.073  0.0855  1.0258  0.9447
   60c3c     C7  314   2.274   0.057   0.985  0.1748  0.5313  0.1885
   60c3c    H14  315   2.174   0.016   0.994  0.8834 -1.3038  0.0404
   60c3c    H15  316   2.340  -0.010   1.041  2.5633  0.7251 -2.2322
   60c3c     C8  317   2.309   0.066   0.836 -0.9916 -0.6023  0.0153
   60c3c    H16  318   2.257   0.151   0.790  0.4104 -0.5532 -1.5391
   60c3c    H17  319   2.263  -0.015   0.780 -3.3196 -1.9631  3.7070
   60c3c    H18  320   2.416   0.072   0.817 -1.3980  0.3052 -2.1910
   61c3c      N  321   0.353   1.696   2.372 -0.9826  0.1806  0.2937
   61c3c     C1  322   0.499   1.711   2.388  0.2212  0.1763 -0.0903
   61c3c     C2  323   0.309   1.833   2.404 -0.6736 -0.6553  0.2100
   61c3c     C3  324   0.534   1.860   2.345  0.6769  0.0207  0.0992
   61c3c     C4  325   0.403   1.937   2.348  0.6105 -0.3080 -0.0459
   61c3c     C5  326   0.329   1.662   2.223 -0.5782  0.8059 -0.3045
   61c3c     C6  327   0.296   1.590   2.456 -0.2719  0.0962  0.4653
   61c3c     H1  328   0.551   1.637   2.327  0.1026  1.6918 -2.0596
   61c3c     H2  329   0.529   1.702   2.493  0.4604 -2.8427 -0.3514
   61c3c     H3  330   0.201   1.846   2.396 -0.5679 -0.4961 -0.9206
   61c3c     H4  331   0.320   1.851   2.511  2.4663  1.4920 -0.3996
   61c3c     H5  332   0.572   1.858   2.243  0.5274 -0.6369  0.0496
   61c3c     H6  333   0.606   1.904   2.414  0.8293  0.4043 -0.3104
   61c3c     H7  334   0.374   1.968   2.248 -0.9135 -2.5473 -0.3239
   61c3c     H8  335   0.398   2.020   2.418  2.3589 -0.1164 -0.1108
   61c3c     H9  336   0.350   1.558   2.197  1.7854  1.2822 -0.3405
   61c3c    H10  337   0.222   1.677   2.209 -0.6327  2.3422  1.5448
   61c3c    H11  338   0.398   1.710   2.154  2.0711  0.6129  2.1117
   61c3c    H12  339   0.197   1.560   2.421 -0.2480 -0.6754  1.0436
   61c3c    H13  340   0.350   1.504   2.416  0.4708  1.3110 -1.1712
   61c3c     C7  341   0.305   1.597   2.607 -0.0750  0.4671 -1.1300
   61c3c    H14  342   0.236   1.671   2.648  2.7758  0.7573  3.6247
   61c3c    H15  343   0.405   1.623   2.643 -0.6319  0.2587  0.6155
   61c3c     C8  344   0.271   1.464   2.672  0.0304  0.0454 -0.6403
   61c3c    H16  345   0.355   1.396   2.655 -0.0000 -0.2190  0.2241
   61c3c    H17  346   0.179   1.419   2.634  0.6408  0.5795 -2.8297
   61c3c    H18  347   0.256   1.475   2.780  3.1973  3.7006 -0.4759
   62c3c      N  348   1.926   1.146   1.513  0.3084 -0.0421 -0.0323
   62c3c     C1  349   1.867   1.265   1.451 -0.1096  0.2443  0.0068
   62c3c     C2  350   2.057   1.147   1.454  0.3111  0.6895  0.4253
   62c3c     C3  351   1.978   1.370   1.474 -0.2465  0.4100  0.8485
   62c3c     C4  352   2.102   1.287   1.468  0.2512  0.2673 -0.0152
   62c3c     C5  353   1.930   1.161   1.662  0.1969  0.0048  0.1274
   62c3c     C6  354   1.833   1.029   1.479  0.5722 -0.3702 -0.4207
   62c3c     H1  355   1.778   1.287   1.510  2.1889 -1.5380  4.3641
   62c3c     H2  356   1.840   1.256   1.346  0.9548 -1.2986 -0.1454
   62c3c     H3  357   2.119   1.074   1.507  0.6268  1.3413  0.9667
   62c3c     H4  358   2.047   1.110   1.352 -3.1977  0.1335  0.9059
   62c3c     H5  359   1.976   1.407   1.576 -0.3313  1.4080  0.4941
   62c3c     H6  360   1.965   1.450   1.400 -1.8481 -1.0059 -0.4353
   62c3c     H7  361   2.161   1.288   1.560 -1.3647 -1.5845  1.0962
   62c3c     H8  362   2.162   1.309   1.380  1.9984  0.1394  1.1259
   62c3c     H9  363   1.972   1.068   1.702  0.0139 -0.5239 -0.8818
   62c3c    H10  364   1.986   1.241   1.710  0.6119  0.1305 -0.5629
   62c3c    H11  365   1.831   1.159   1.707 -0.3516  2.6558 -0.8727
   62c3c    H12  366   1.819   1.013   1.372 -3.3356 -1.1810  0.1395
   62c3c    H13  367   1.880   0.936   1.510 -0.1392  0.0283  1.9709
   62c3c     C7  368   1.686   1.031   1.520 -0.6667  0.4675 -0.1024
   62c3c    H14  369   1.638   1.119   1.476 -0.4621  1.0001  0.7172
   62c3c    H15  370   1.679   1.050   1.627 -1.1421  0.0036 -0.0493
   62c3c     C8  371   1.607   0.900   1.486  0.4217 -0.1567  0.3169
   62c3c    H16  372   1.650   0.808   1.523 -0.0514 -0.1455  0.8898
   62c3c    H17  373   1.588   0.888   1.379 -1.1225  2.3909  0.2643
   62c3c    H18  374   1.508   0.915   1.528  0.7657 -0.5365  1.2570
   63c3c      N  375   1.353   1.680   2.451 -0.5284 -0.0477  0.3528
   63c3c     C1  376   1.363   1.804   2.370  0.3274 -0.0113 -0.6230
   63c3c     C2  377   1.219   1.637   2.420  0.5604 -0.0574 -0.0722
   63c3c     C3  378   1.289   1.769   2.236  0.4429  0.3746 -0.0443
   63c3c     C4  379   1.188   1.667   2.276 -0.1319 -0.4005  0.3959
   63c3c     C5  380   1.446   1.575   2.416  0.3834  0.4414 -0.4177
   63c3c     C6  381   1.383   1.708   2.595  0.1907  0.2188 -0.2329
   63c3c     H1  382   1.467   1.826   2.346 -0.6396  1.5524 -3.5499
   63c3c     H2  383   1.310   1.890   2.411  0.6587 -0.2031  0.2184
   63c3c     H3  384   1.200   1.531   2.438 -0.2943 -0.1179 -1.2946
   63c3c     H4  385   1.139   1.687   2.476  0.6520  1.2418 -1.0790
   63c3c     H5  386   1.359   1.731   2.162  0.4029 -0.5642  0.3936
   63c3c     H6  387   1.246   1.855   2.185 -0.2520 -0.9364 -1.7019
   63c3c     H7  388   1.205   1.574   2.221  1.9182  0.6379 -0.8117
   63c3c     H8  389   1.086   1.703   2.274  0.5216  1.4808 -0.0399
   63c3c     H9  390   1.547   1.586   2.455  0.5132 -1.6006 -0.1072
   63c3c    H10  391   1.405   1.481   2.454 -0.9341  1.0557 -0.3144
   63c3c    H11  392   1.448   1.550   2.310 -1.0947 -0.0201 -0.3577
   63c3c    H12  393   1.372   1.616   2.652 -2.7760 -0.7708 -2.3110
   63c3c    H13  394   1.488   1.737   2.606  0.8736 -2.6246  1.2665
   63c3c     C7  395   1.288   1.805   2.669  0.1866  0.0378 -0.4450
   63c3c    H14  396   1.182   1.781   2.669 -0.5298  2.9472 -1.8748
   63c3c    H15  397   1.284   1.903   2.622 -0.3379  0.3648  0.2946
   63c3c     C8  398   1.331   1.834   2.812 -0.2855  0.5391 -0.0867
   63c3c    H16  399   1.309   1.742   2.865  1.8082  1.4676  2.5509
   63c3c    H17  400   1.296   1.924   2.862 -0.9440 -0.0502  0.5279
   63c3c    H18  401   1.440   1.840   2.815 -0.3452  1.6128  0.1238
   64c3c      N  402   2.519   1.783   2.421  0.2188  0.8294 -0.0175
   64c3c     C1  403   2.470   1.703   2.302 -0.3948 -0.0445 -0.5255
   64c3c     C2  404   2.418   1.888   2.427 -0.1058  0.1803  0.0398
   64c3c     C3  405   2.319   1.698   2.315 -0.2976  0.1215  0.5807
   64c3c     C4  406   2.278   1.834   2.392 -0.0432 -0.2794  0.3040
   64c3c     C5  407   2.507   1.706   2.550  0.9475  0.0607  0.3470
   64c3c     C6  408   2.663   1.823   2.411  0.2757 -0.3944 -0.0800
   64c3c     H1  409   2.519   1.606   2.304 -1.0093 -0.3530 -0.2931
   64c3c     H2  410   2.494   1.758   2.211 -1.1775 -0.3624 -0.9381
   64c3c     H3  411   2.433   1.946   2.518  2.5294  1.7081 -1.2957
   64c3c     H4  412   2.435   1.958   2.345  0.8679 -0.5645 -0.3987
   64c3c     H5  413   2.291   1.620   2.386  0.0680  0.0408  0.6380
   64c3c     H6  414   2.263   1.680   2.223 -0.1172 -1.2395  0.7385
   64c3c     H7  415   2.227   1.815   2.486 -1.0455  1.0299  0.0457
   64c3c     H8  416   2.203   1.898   2.344 -2.2204 -1.9490  1.3568
   64c3c     H9  417   2.582   1.627   2.557  0.1874 -0.6661  0.5422
   64c3c    H10  418   2.515   1.774   2.634  4.2345  1.3339 -0.9518
   64c3c    H11  419   2.409   1.657   2.558  0.3778  0.4333 -3.3162
   64c3c    H12  420   2.689   1.877   2.502  1.0281  1.9832 -1.6644
   64c3c    H13  421   2.728   1.737   2.393  1.1221  0.0376  0.9064
   64c3c     C7  422   2.700   1.918   2.296 -0.2925  0.4003 -0.7178
   64c3c    H14  423   2.633   2.004   2.293  1.5742  1.9561  0.7936
   64c3c    H15  424   2.681   1.872   2.199 -1.9310  1.2296 -0.8045
   64c3c     C8  425   2.838   1.976   2.310  0.4257 -0.1666 -0.3494
   64c3c    H16  426   2.856   2.068   2.253  0.2578  1.2763  1.8546
   64c3c    H17  427   2.925   1.911   2.304  1.4978  1.0705  1.3965
   64c3c    H18  428   2.842   2.014   2.412  1.5407  2.3212 -1.2701
   65c3c      N  429   2.715   1.981   1.204  0.3374  0.3597 -0.6182
   65c3c     C1  430   2.627   1.900   1.134  0.4332 -0.3353  0.5185
   65c3c     C2  431   2.769   1.889   1.304  0.4499  0.4662 -0.1428
   65c3c     C3  432   2.548   1.818   1.243 -0.3319 -0.1339 -0.0686
   65c3c     C4  433   2.645   1.825   1.361 -0.0915  0.3501  0.4911
   65c3c     C5  434   2.819   2.041   1.120  0.5675  0.5905  0.3291
   65c3c     C6  435   2.650   2.096   1.267  0.0045 -0.4203  0.8946
   65c3c     H1  436   2.685   1.822   1.085  3.8676  1.4598  1.5360
   65c3c     H2  437   2.564   1.946   1.058 -0.4591 -0.1425  1.3660
   65c3c     H3  438   2.832   1.814   1.256  1.1403  0.7578  0.2942
   65c3c     H4  439   2.839   1.921   1.382 -0.9692 -0.3224  1.4806
   65c3c     H5  440   2.510   1.723   1.206 -2.7709  0.7771 -0.0108
   65c3c     H6  441   2.453   1.861   1.275 -1.0606 -2.5840  1.1266
   65c3c     H7  442   2.671   1.735   1.416  0.2068 -0.3232 -0.7419
   65c3c     H8  443   2.592   1.890   1.432  0.2006 -1.4494  2.4141
   65c3c     H9  444   2.862   1.964   1.055 -2.0545 -1.5598  1.0375
   65c3c    H10  445   2.787   2.126   1.059  0.7995  0.1795 -0.3802
   65c3c    H11  446   2.905   2.073   1.178  1.8108  0.5677 -1.4577
   65c3c    H12  447   2.602   2.148   1.184 -2.2211 -1.6385  1.3684
   65c3c    H13  448   2.563   2.078   1.332 -0.3455  1.5238  1.0264
   65c3c     C7  449   2.727   2.191   1.368 -0.0485 -0.2685  0.5045
   65c3c    H14  450   2.779   2.270   1.315 -1.5196  0.3112 -0.1135
   65c3c    H15  451   2.808   2.135   1.415  0.3278  1.4677  1.9833
   65c3c     C8  452   2.633   2.255   1.471 -0.3129  0.5066 -0.3485
   65c3c    H16  453   2.535   2.274   1.428  0.5698 -1.1876 -3.1944
   65c3c    H17  454   2.671   2.348   1.514 -1.2725  0.6784  0.1332
   65c3c    H18  455   2.602   2.190   1.553  1.0117  0.3825  0.0735
   66c3c      N  456   1.293   2.522   1.253 -0.8590 -0.1427  0.0274
   66c3c     C1  457   1.339   2.506   1.113 -0.0493  0.0288 -0.9010
   66c3c     C2  458   1.196   2.627   1.226  0.0671 -0.4921  0.9173
   66c3c     C3  459   1.212   2.508   1.030 -0.0348 -0.8809  0.3718
   66c3c     C4  460   1.108   2.587   1.107 -0.5909  0.0787 -0.1291
   66c3c     C5  461   1.225   2.400   1.315 -0.1592 -0.0635  0.4096
   66c3c     C6  462   1.399   2.558   1.343  0.2016 -0.1999  0.0660
   66c3c     H1  463   1.393   2.412   1.099 -1.5485 -0.8545 -0.9321
   66c3c     H2  464   1.387   2.595   1.072  0.4026 -0.3404 -1.1746
   66c3c     H3  465   1.135   2.646   1.314  0.0636 -0.6623  0.9516
   66c3c     H4  466   1.235   2.728   1.214  2.1447 -1.1763  1.6221
   66c3c     H5  467   1.184   2.403   1.019 -2.9407 -0.2887  1.7789
   66c3c     H6  468   1.226   2.559   0.934  0.0316 -0.5166  0.5767
   66c3c     H7  469   1.024   2.524   1.139  1.0226 -2.5254 -0.8503
   66c3c     H8  470   1.063   2.674   1.059 -2.6426 -0.5305  0.6347
   66c3c     H9  471   1.294   2.317   1.302 -0.3750 -0.2388  0.3927
   66c3c    H10  472   1.195   2.411   1.419 -0.3479  0.2474  0.3237
   66c3c    H11  473   1.133   2.377   1.260  0.5563 -3.0824  0.4273
   66c3c    H12  474   1.343   2.581   1.434 -1.4901 -1.4498 -0.6139
   66c3c    H13  475   1.457   2.469   1.369 -0.5510 -1.0617 -1.1069
   66c3c     C7  476   1.490   2.666   1.306 -0.4519  0.2282  0.3240
   66c3c    H14  477   1.447   2.735   1.234 -0.2028  1.7766  1.6398
   66c3c    H15  478   1.566   2.616   1.245 -0.6418 -0.2293  0.4567
   66c3c     C8  479   1.537   2.759   1.421 -0.7413 -0.7164  0.5628
   66c3c    H16  480   1.603   2.830   1.371 -1.9686 -0.5855 -0.9130
   66c3c    H17  481   1.577   2.708   1.509 -1.2213 -1.0548  0.5893
   66c3c    H18  482   1.453   2.823   1.452 -0.1642  0.2331  0.1860
   67c3c      N  483   0.515   2.931   2.639 -0.2846 -0.3354  0.4936
   67c3c     C1  484   0.557   2.795   2.658 -0.7311 -0.0277  0.6561
   67c3c     C2  485   0.586   3.007   2.748 -0.8204  0.0858 -0.0000
   67c3c     C3  486   0.703   2.810   2.696  0.2190  0.2392 -0.1277
   67c3c     C4  487   0.718   2.936   2.783  0.6318 -0.4446  0.1281
   67c3c     C5  488   0.565   2.983   2.509 -0.2475  0.5360  0.0768
   67c3c     C6  489   0.372   2.953   2.634  0.0287  0.3760 -0.2102
   67c3c     H1  490   0.550   2.724   2.576  2.0313  1.3388 -0.8236
   67c3c     H2  491   0.501   2.747   2.739 -0.0380  0.3965  1.3965
   67c3c     H3  492   0.583   3.115   2.736 -1.6866 -0.0664 -1.2237
   67c3c     H4  493   0.543   2.983   2.846 -0.0547 -1.2388  0.0210
   67c3c     H5  494   0.761   2.791   2.606 -0.7431 -0.6961 -0.5573
   67c3c     H6  495   0.728   2.725   2.759 -0.1046 -0.0161 -0.3442
   67c3c     H7  496   0.796   3.009   2.760 -0.1816 -0.1000 -1.6362
   67c3c     H8  497   0.715   2.921   2.891  0.8577  2.3500  0.5661
   67c3c     H9  498   0.526   2.923   2.426 -0.3155 -0.4015  0.7898
   67c3c    H10  499   0.536   3.088   2.500 -0.2536  0.5219 -0.0811
   67c3c    H11  500   0.674   2.981   2.503 -0.3005  0.6055 -1.1241
   67c3c    H12  501   0.339   3.057   2.627  0.2740  0.5794  1.3810
   67c3c    H13  502   0.330   2.916   2.541 -0.3509 -1.5710  0.7202
   67c3c     C7  503   0.291   2.907   2.748 -0.5719  0.3863 -0.3769
   67c3c    H14  504   0.335   2.954   2.836 -0.1902 -0.2437 -0.2296
   67c3c    H15  505   0.295   2.799   2.764 -1.0046  0.2252 -1.3439
   67c3c     C8  506   0.148   2.961   2.734 -0.4551  0.5173 -0.1017
   67c3c    H16  507   0.154   3.068   2.749  0.8431  0.3032  0.9876
   67c3c    H17  508   0.083   2.917   2.810  1.3940 -3.0802 -0.4889
   67c3c    H18  509   0.106   2.930   2.638 -1.7752  1.3348  0.1960
   68c3c      N  510   2.973   2.316   1.867 -0.2490 -0.1676 -0.2558
   68c3c     C1  511   2.893   2.276   1.749  0.2495 -0.3385 -0.5793
   68c3c     C2  512   3.099   2.357   1.805  0.2568  0.0720 -0.0413
   68c3c     C3  513   2.920   2.387   1.644  0.3362 -0.0129  0.2011
   68c3c     C4  514   3.067   2.420   1.668 -1.4928  0.4770 -0.3874
   68c3c     C5  515   2.920   2.434   1.933 -0.8357  0.0700 -0.0644
   68c3c     C6  516   2.987   2.209   1.969  0.3821 -0.2699  0.1689
   68c3c     H1  517   2.787   2.273   1.773  0.5323  1.7286  1.0493
   68c3c     H2  518   2.926   2.180   1.711 -0.6335 -0.7262 -0.3776
   68c3c     H3  519   3.147   2.421   1.879  0.9036 -0.4085 -0.0362
   68c3c     H4  520   3.159   2.267   1.789  0.1493 -0.6916  3.4653
   68c3c     H5  521   2.863   2.479   1.658  0.6396  0.2164 -0.0568
   68c3c     H6  522   2.914   2.355   1.540 -0.3769  2.7485 -0.6508
   68c3c     H7  523   3.087   2.526   1.686 -0.6305  0.1758  0.4950
   68c3c     H8  524   3.132   2.394   1.585 -1.9835 -1.3088 -0.2162
   68c3c     H9  525   2.987   2.458   2.015 -1.3024  0.4367  0.2137
   68c3c    H10  526   2.910   2.519   1.864  1.3639  0.9897  0.7206
   68c3c    H11  527   2.820   2.403   1.963 -0.8894  0.0128 -0.3016
   68c3c    H12  528   3.061   2.240   2.042 -0.2700  0.1624  0.6462
   68c3c    H13  529   2.898   2.202   2.032  1.1546  0.2614  1.3408
   68c3c     C7  530   3.019   2.063   1.913  0.0770 -0.5043  0.0325
   68c3c    H14  531   3.114   2.046   1.863 -0.6443 -0.1605 -1.4638
   68c3c    H15  532   2.934   2.031   1.852 -1.2068 -0.7765  1.9087
   68c3c     C8  533   3.031   1.967   2.032  0.3842  0.0459 -0.1797
   68c3c    H16  534   2.934   1.958   2.080  0.8059 -0.9709  0.4899
   68c3c    H17  535   3.111   2.000   2.098 -0.1365  1.1879 -0.1082
   68c3c    H18  536   3.060   1.867   1.999  0.7502 -0.4189  1.4884
   69c3c      N  537   2.215   2.055   0.453  0.1026  0.1555 -0.1598
   69c3c     C1  538   2.140   2.181   0.441  0.2242 -0.5804  0.1963
   69c3c     C2  539   2.282   2.067   0.580 -0.7235  0.1567 -0.0538
   69c3c     C3  540   2.084   2.208   0.580 -0.3059 -0.1752 -0.1036
   69c3c     C4  541   2.182   2.139   0.669 -0.4965  0.4091 -0.4313
   69c3c     C5  542   2.129   1.939   0.446 -0.2757 -0.0475  0.2800
   69c3c     C6  543   2.311   2.035   0.342 -0.5467 -0.7925  0.3962
   69c3c     H1  544   2.054   2.189   0.374 -0.3588 -0.9646  0.8842
   69c3c     H2  545   2.203   2.265   0.411  0.0446 -0.5905 -0.2096
   69c3c     H3  546   2.324   1.972   0.614  0.3703  0.7424  0.2548
   69c3c     H4  547   2.354   2.147   0.563  0.9454 -1.1915  0.5261
   69c3c     H5  548   1.985   2.163   0.591 -0.8249  1.2064  1.0602
   69c3c     H6  549   2.075   2.315   0.598 -1.5313 -0.0492 -1.3473
   69c3c     H7  550   2.131   2.068   0.734 -0.6168 -0.9822 -2.0180
   69c3c     H8  551   2.229   2.219   0.726  0.3804  1.1230 -2.1394
   69c3c     H9  552   2.186   1.848   0.464 -0.6741 -0.4776 -0.6322
   69c3c    H10  553   2.051   1.937   0.523 -0.7673 -3.1105 -0.2629
   69c3c    H11  554   2.075   1.921   0.353 -1.8833 -1.2409  1.4196
   69c3c    H12  555   2.361   1.938   0.351  0.6593 -0.4913 -2.5134
   69c3c    H13  556   2.249   2.025   0.253 -1.2766 -1.4857  0.9748
   69c3c     C7  557   2.436   2.137   0.326 -0.0512 -0.1695 -0.4076
   69c3c    H14  558   2.508   2.119   0.406  0.4028 -1.1713 -1.0308
   69c3c    H15  559   2.412   2.243   0.340 -0.6633 -0.1481 -1.6214
   69c3c     C8  560   2.528   2.120   0.202 -0.1658  0.4747 -0.0868
   69c3c    H16  561   2.540   2.013   0.186 -2.3453  0.2540 -0.4051
   69c3c    H17  562   2.618   2.181   0.204 -0.0036  0.2484 -0.4579
   69c3c    H18  563   2.468   2.134   0.112  1.1934 -0.5629 -1.1735
   70c3c      N  564   2.829   2.977   1.002  0.0810  0.1647  0.4622
   70c3c     C1  565   2.684   2.997   1.013  0.2107  0.8234 -0.2556
   70c3c     C2  566   2.885   3.095   1.063 -0.4317  1.4077 -0.2861
   70c3c     C3  567   2.667   3.061   1.156  0.9451  0.0331  0.5138
   70c3c     C4  568   2.800   3.122   1.188 -0.1706 -0.3828  0.0444
   70c3c     C5  569   2.877   2.857   1.070  0.1258 -0.9647  0.1165
   70c3c     C6  570   2.861   2.957   0.859  0.6403  0.3275 -0.0453
   70c3c     H1  571   2.624   2.906   1.008  0.2857  0.7626 -0.0505
   70c3c     H2  572   2.636   3.061   0.939  0.9590 -0.7320 -2.1325
   70c3c     H3  573   2.990   3.076   1.086 -0.4016  2.3532  0.4270
   70c3c     H4  574   2.878   3.180   0.995 -2.1722  0.9782 -0.6767
   70c3c     H5  575   2.640   2.979   1.222  0.5540  0.3599  0.7635
   70c3c     H6  576   2.589   3.137   1.150  0.4327 -0.5487 -0.2278
   70c3c     H7  577   2.843   3.076   1.277 -0.0378  1.1726  0.7952
   70c3c     H8  578   2.801   3.230   1.200 -2.2225 -0.4413  0.8626
   70c3c     H9  579   2.823   2.776   1.022 -0.2636  0.0787 -1.2335
   70c3c    H10  580   2.986   2.848   1.067  0.1306 -1.1958  0.7884
   70c3c    H11  581   2.855   2.862   1.177  0.4414  2.0079  0.0764
   70c3c    H12  582   2.969   2.945   0.855  0.8006  2.0066 -1.0843
   70c3c    H13  583   2.817   2.865   0.820  1.6135 -0.0452 -0.2834
   70c3c     C7  584   2.831   3.066   0.751 -0.5370 -0.0970  0.0384
   70c3c    H14  585   2.878   3.162   0.773 -2.1322  0.3932  1.4621
   70c3c    H15  586   2.724   3.088   0.749 -0.6838 -0.6713  1.0669
   70c3c     C8  587   2.882   3.020   0.615 -0.4349 -0.2515 -0.2472
   70c3c    H16  588   2.826   2.937   0.572 -0.4490  0.0617 -0.8480
   70c3c    H17  589   2.989   2.998   0.618  0.0859  2.2794  0.9725
   70c3c    H18  590   2.874   3.097   0.539  1.5593 -0.5694 -0.8166
   71c3c      N  591   2.471   2.722   1.798 -0.4621  0.9866 -1.0475
   71c3c     C1  592   2.603   2.661   1.790 -0.4431  0.0986 -0.3365
   71c3c     C2  593   2.380   2.615   1.752 -0.1454  0.5575 -0.2068
   71c3c     C3  594   2.584   2.511   1.825 -0.0029  0.3241 -0.4065
   71c3c     C4  595   2.435   2.491   1.810 -0.2097 -0.2194 -0.0881
   71c3c     C5  596   2.436   2.749   1.937  0.3036  0.0159 -0.1663
   71c3c     C6  597   2.461   2.846   1.731  0.5443 -0.7266  0.6212
   71c3c     H1  598   2.676   2.711   1.854  1.4237 -1.0055 -1.5762
   71c3c     H2  599   2.641   2.661   1.688  4.3259 -0.2549  1.3237
   71c3c     H3  600   2.273   2.619   1.772 -0.0112 -1.3318  1.0462
   71c3c     H4  601   2.382   2.608   1.643 -1.5499  1.6009 -0.3146
   71c3c     H5  602   2.612   2.481   1.927 -0.9483 -1.9709 -0.8030
   71c3c     H6  603   2.631   2.435   1.764 -1.5471 -1.5079  0.6167
   71c3c     H7  604   2.395   2.464   1.908 -1.2038  3.7590  0.6984
   71c3c     H8  605   2.396   2.415   1.743 -0.4163 -0.2557  0.0743
   71c3c     H9  606   2.512   2.819   1.973 -0.3182  0.8604 -0.4739
   71c3c    H10  607   2.339   2.797   1.951 -0.0486 -0.9938  0.8665
   71c3c    H11  608   2.444   2.658   1.996 -0.6397 -0.9376 -1.4825
   71c3c    H12  609   2.371   2.903   1.752  0.7997  0.4902 -1.4341
   71c3c    H13  610   2.540   2.913   1.763 -0.6566 -0.2962  2.7918
   71c3c     C7  611   2.468   2.839   1.572 -0.0057  0.0528 -0.2843
   71c3c    H14  612   2.386   2.799   1.513 -1.8777  3.2039  0.0378
   71c3c    H15  613   2.558   2.783   1.547  1.1994  1.3144  1.1214
   71c3c     C8  614   2.481   2.992   1.522  0.2806 -0.1519 -0.6230
   71c3c    H16  615   2.488   3.009   1.415 -0.4995 -2.9826 -1.1674
   71c3c    H17  616   2.573   3.038   1.558 -0.5784  1.2437 -0.1554
   71c3c    H18  617   2.399   3.051   1.563  0.0824 -1.8885  1.5859
   72c3c      N  618   0.736   0.487   0.096  0.0262  0.3101  1.0970
   72c3c     C1  619   0.745   0.490  -0.054 -0.1045 -0.2058 -0.5296
   72c3c     C2  620   0.626   0.390   0.112  1.4177 -0.4953  0.2442
   72c3c     C3  621   0.726   0.349  -0.104 -0.1148  0.2754  0.5959
   72c3c     C4  622   0.627   0.294  -0.004  0.0242 -0.3482  0.0681
   72c3c     C5  623   0.860   0.433   0.146 -0.0012  0.3604  0.0374
   72c3c     C6  624   0.717   0.620   0.163 -0.9313  0.7642  0.4402
   72c3c     H1  625   0.842   0.528  -0.088 -0.1519 -0.1029 -0.5530
   72c3c     H2  626   0.668   0.557  -0.093  0.9492  0.7556 -1.0137
   72c3c     H3  627   0.633   0.338   0.208 -0.3401 -2.8204 -0.8510
   72c3c     H4  628   0.529   0.439   0.120  1.6284 -0.1372  0.6429
   72c3c     H5  629   0.820   0.293  -0.103  0.5536  1.3284 -0.4901
   72c3c     H6  630   0.679   0.332  -0.201  1.8069  0.6437 -0.4285
   72c3c     H7  631   0.652   0.191   0.020 -0.1562 -0.6875 -1.1784
   72c3c     H8  632   0.527   0.293  -0.048 -0.9709 -1.7105  2.2592
   72c3c     H9  633   0.952   0.467   0.099 -1.1514  1.2856 -1.6267
   72c3c    H10  634   0.876   0.471   0.247 -1.3615  0.7434  0.1228
   72c3c    H11  635   0.849   0.325   0.152 -0.5772  0.1454 -3.6223
   72c3c    H12  636   0.712   0.607   0.272 -0.1586 -0.1983  0.3697
   72c3c    H13  637   0.810   0.676   0.153 -0.5766  0.2023  0.5680
   72c3c     C7  638   0.592   0.700   0.121  0.1721  0.0509 -0.0577
   72c3c    H14  639   0.497   0.654   0.150  0.3805 -0.5744 -0.3585
   72c3c    H15  640   0.578   0.722   0.015 -0.8222 -2.6488 -0.5363
   72c3c     C8  641   0.605   0.846   0.165  0.4622 -0.3870 -0.1123
   72c3c    H16  642   0.608   0.863   0.272 -0.1888 -0.4113 -0.0841
   72c3c    H17  643   0.503   0.872   0.135  0.3764 -3.1987 -2.5732
   72c3c    H18  644   0.682   0.907   0.117  0.7226  0.3930  1.2830
   73c3c      N  645   2.040   1.230   2.870  0.2860  0.0988 -0.1474
   73c3c     C1  646   1.944   1.314   2.940  0.2286  0.9048  0.4450
   73c3c     C2  647   1.971   1.104   2.856  0.4355 -0.9009  0.7590
   73c3c     C3  648   1.811   1.282   2.870  0.5317  0.3403 -0.9489
   73c3c     C4  649   1.832   1.138   2.820  0.4219 -0.0888 -0.2288
   73c3c     C5  650   2.069   1.293   2.741 -0.0377  0.0704 -0.0296
   73c3c     C6  651   2.172   1.219   2.937 -0.0397  0.0340 -0.7803
   73c3c     H1  652   1.966   1.421   2.934 -3.2558  1.6361 -0.1125
   73c3c     H2  653   1.933   1.273   3.040 -1.6825  0.1594 -0.0528
   73c3c     H3  654   2.021   1.045   2.780 -0.3779  0.4888 -0.8897
   73c3c     H4  655   1.978   1.045   2.947 -0.2367  2.0957  2.8325
   73c3c     H5  656   1.785   1.340   2.782 -0.0415 -0.2564 -1.1730
   73c3c     H6  657   1.720   1.286   2.930  0.9830  1.4764 -0.3362
   73c3c     H7  658   1.819   1.139   2.712 -3.2625  0.0894  0.1638
   73c3c     H8  659   1.765   1.061   2.860  2.0265 -1.3056  0.1819
   73c3c     H9  660   2.141   1.246   2.674 -1.6383  0.0992 -1.8268
   73c3c    H10  661   1.985   1.307   2.672  0.2879 -0.7026 -0.5899
   73c3c    H11  662   2.116   1.391   2.750  0.7207 -0.4495  1.8657
   73c3c    H12  663   2.237   1.145   2.893  1.4622 -0.6414  2.4501
   73c3c    H13  664   2.218   1.318   2.935  0.5893 -0.2029  1.2584
   73c3c     C7  665   2.189   1.174   3.083  0.2469  0.1931  0.0181
   73c3c    H14  666   2.150   1.072   3.072  0.1184  0.3414 -0.9442
   73c3c    H15  667   2.122   1.218   3.157  1.9457  0.3120  1.5303
   73c3c     C8  668   2.330   1.184   3.145 -0.5913 -0.5807  0.4518
   73c3c    H16  669   2.345   1.139   3.243  2.4095 -0.9160 -0.1162
   73c3c    H17  670   2.353   1.290   3.158 -1.6343 -0.1029 -1.3360
   73c3c    H18  671   2.406   1.150   3.075 -0.2524 -0.4295  0.7483
   74c3c      N  672   0.644   1.984   1.562 -0.4979 -0.6345  0.4531
   74c3c     C1  673   0.575   1.906   1.457 -0.3753 -0.5234 -0.1108
   74c3c     C2  674   0.787   1.972   1.526  0.1272  0.0354 -0.3170
   74c3c     C3  675   0.649   1.930   1.331  0.1101  0.8137  0.6314
   74c3c     C4  676   0.793   1.978   1.373 -0.6466 -0.2606 -0.7905
   74c3c     C5  677   0.607   2.130   1.552 -0.2643  0.3134  0.1135
   74c3c     C6  678   0.612   1.945   1.701  0.1187 -0.6085  0.1520
   74c3c     H1  679   0.473   1.944   1.450 -0.3418 -0.2056  0.9448
   74c3c     H2  680   0.560   1.800   1.474  1.1135 -1.1176 -2.2608
   74c3c     H3  681   0.853   2.041   1.578  0.2850 -1.2260  1.1903
   74c3c     H4  682   0.820   1.871   1.552  2.8641  1.0279  0.2529
   74c3c     H5  683   0.603   2.006   1.268 -1.0372 -0.8921 -0.6375
   74c3c     H6  684   0.657   1.836   1.278 -0.6925  0.9996  0.1726
   74c3c     H7  685   0.809   2.078   1.333 -0.9120 -0.1636 -0.6464
   74c3c     H8  686   0.875   1.929   1.320 -0.9859 -1.5212 -0.1590
   74c3c     H9  687   0.500   2.144   1.564  0.1911  2.1987  2.2089
   74c3c    H10  688   0.651   2.181   1.637 -1.4831 -0.2191  1.0769
   74c3c    H11  689   0.636   2.176   1.457 -3.2706 -0.9613 -1.4889
   74c3c    H12  690   0.666   2.011   1.769  0.0142 -1.5353  1.1329
   74c3c    H13  691   0.508   1.965   1.725  0.5916  2.3996 -0.1021
   74c3c     C7  692   0.655   1.800   1.747 -0.2551  0.7663  0.6014
   74c3c    H14  693   0.762   1.790   1.735  0.0809  1.8683  2.4097
   74c3c    H15  694   0.610   1.718   1.691  2.0355 -0.8344  1.0408
   74c3c     C8  695   0.650   1.765   1.894 -0.0079 -0.6259 -0.2359
   74c3c    H16  696   0.713   1.831   1.955 -1.5618 -0.4459  1.2272
   74c3c    H17  697   0.670   1.662   1.921  2.3773  0.0399  0.7285
   74c3c    H18  698   0.551   1.785   1.935 -0.7420 -2.1367 -1.2650
   75c3c      N  699   1.896   0.390   2.381  0.3596  0.0827  0.0942
   75c3c     C1  700   1.802   0.306   2.295 -0.0299  0.3045 -0.1791
   75c3c     C2  701   1.816   0.468   2.469  0.1053  0.2393  0.3009
   75c3c     C3  702   1.690   0.268   2.380  0.2171  0.0944  0.6003
   75c3c     C4  703   1.690   0.376   2.486  0.1857  0.3354 -0.2882
   75c3c     C5  704   1.987   0.298   2.450 -0.4869  0.8027 -0.0278
   75c3c     C6  705   1.985   0.476   2.291 -0.0093 -0.3781  0.3180
   75c3c     H1  706   1.846   0.224   2.238  4.2288 -1.4533  5.2105
   75c3c     H2  707   1.745   0.362   2.221 -0.4392 -1.0792 -0.9283
   75c3c     H3  708   1.858   0.487   2.568 -1.4978 -0.9590  1.2333
   75c3c     H4  709   1.794   0.569   2.435  1.8165  0.4773 -0.1662
   75c3c     H5  710   1.722   0.177   2.432  3.9449  0.0574 -1.6425
   75c3c     H6  711   1.593   0.259   2.332 -1.2431 -1.3485  3.6089
   75c3c     H7  712   1.664   0.333   2.583  0.2853 -1.6425 -1.1101
   75c3c     H8  713   1.600   0.432   2.464  0.5324  0.5000 -1.3214
   75c3c     H9  714   2.049   0.340   2.528  1.1547 -0.5321 -0.5753
   75c3c    H10  715   1.929   0.219   2.497 -0.1595  0.6045  0.0415
   75c3c    H11  716   2.057   0.247   2.383 -2.3795 -1.5365 -0.3144
   75c3c    H12  717   2.065   0.520   2.350  0.0677  1.8215 -1.3347
   75c3c    H13  718   2.037   0.400   2.231 -0.2513 -0.1533 -0.1836
   75c3c     C7  719   1.924   0.587   2.194 -0.0357 -0.2530  0.5620
   75c3c    H14  720   1.877   0.658   2.262  0.1486 -0.7982  1.2725
   75c3c    H15  721   1.849   0.552   2.123 -0.2019 -0.3875  0.8040
   75c3c     C8  722   2.034   0.663   2.116  0.8642 -0.6867 -0.2757
   75c3c    H16  723   2.112   0.709   2.178  0.1535  0.2455 -0.0563
   75c3c    H17  724   1.989   0.741   2.054 -0.4731 -0.5089  0.8777
   75c3c    H18  725   2.090   0.594   2.055  0.2388 -1.2663 -0.2002
   76c3c      N  726   2.577   1.210   2.620  0.1696 -0.3135  0.1693
   76c3c     C1  727   2.430   1.240   2.635 -0.4081  0.4407 -0.6669
   76c3c     C2  728   2.605   1.223   2.473  0.0937  0.1304  0.6068
   76c3c     C3  729   2.418   1.360   2.540 -0.2614  0.0415  0.1252
   76c3c     C4  730   2.516   1.332   2.427  0.1421  0.4937  0.0475
   76c3c     C5  731   2.673   1.300   2.689  0.7839  0.9931  0.9731
   76c3c     C6  732   2.609   1.077   2.681 -0.2348  0.3977 -0.2652
   76c3c     H1  733   2.396   1.264   2.735  0.7597  0.0483 -0.1761
   76c3c     H2  734   2.367   1.159   2.596  2.2488 -2.4229  0.8288
   76c3c     H3  735   2.710   1.242   2.451 -0.2128 -0.3480 -1.3606
   76c3c     H4  736   2.578   1.128   2.427 -1.5771  1.5514 -1.4303
   76c3c     H5  737   2.452   1.447   2.596  0.2628  0.1606 -0.3693
   76c3c     H6  738   2.317   1.385   2.508  0.0612  0.6971 -0.4028
   76c3c     H7  739   2.566   1.428   2.416 -1.8909  1.8245  1.8718
   76c3c     H8  740   2.463   1.295   2.339 -0.6349 -2.4212  1.6860
   76c3c     H9  741   2.651   1.293   2.796  0.2802 -0.0041  0.8114
   76c3c    H10  742   2.778   1.280   2.670  0.2821 -0.1576 -0.6802
   76c3c    H11  743   2.645   1.401   2.660 -1.5170 -0.5035 -2.3462
   76c3c    H12  744   2.705   1.045   2.640  0.3158  1.9362 -0.2130
   76c3c    H13  745   2.624   1.087   2.789  0.3993 -0.6460 -0.2539
   76c3c     C7  746   2.510   0.965   2.636  0.0186  0.5116 -0.2776
   76c3c    H14  747   2.484   0.970   2.531 -1.7466  1.2449  0.1757
   76c3c    H15  748   2.416   0.981   2.690 -0.5929  0.4197 -1.2975
   76c3c     C8  749   2.553   0.818   2.675  0.4769 -0.5849 -0.2425
   76c3c    H16  750   2.580   0.818   2.781  0.2554  0.5394 -0.1733
   76c3c    H17  751   2.642   0.797   2.616  0.4776 -0.1148 -0.4112
   76c3c    H18  752   2.477   0.742   2.656  0.7944 -0.9901  0.1078
   77c3c      N  753   1.830   1.829   1.962 -0.3992 -0.0285  0.1869
   77c3c     C1  754   1.894   1.943   1.887 -0.2662  0.3224 -0.2338
   77c3c     C2  755   1.908   1.829   2.089 -0.0409 -0.3422 -0.2147
   77c3c     C3  756   1.911   2.053   1.995  0.5880  0.0350 -0.2377
   77c3c     C4  757   1.908   1.977   2.130  0.0772 -0.2671 -0.4348
   77c3c     C5  758   1.687   1.869   1.979  0.2466  0.0729  0.2395
   77c3c     C6  759   1.831   1.698   1.893  0.6064 -0.4593 -0.2290
   77c3c     H1  760   1.828   1.976   1.807 -0.2798  0.7833 -0.0318
   77c3c     H2  761   1.989   1.901   1.852 -0.1610 -2.0050  2.7016
   77c3c     H3  762   1.858   1.766   2.163 -2.3380 -1.4287 -2.6149
   77c3c     H4  763   2.010   1.797   2.069  0.2499  0.2404  0.3506
   77c3c     H5  764   1.836   2.132   1.988 -0.0878 -0.4213  1.5001
   77c3c     H6  765   2.009   2.099   1.978  1.7063 -1.2741  2.3903
   77c3c     H7  766   1.823   2.003   2.194 -0.7344 -0.3599 -1.4604
   77c3c     H8  767   2.001   1.998   2.183  0.1934 -4.5137  1.1987
   77c3c     H9  768   1.631   1.792   2.031 -0.3183 -0.5457 -1.2411
   77c3c    H10  769   1.668   1.967   2.022 -0.7977 -1.1626  2.6497
   77c3c    H11  770   1.635   1.865   1.883 -2.3796 -0.0353  1.6288
   77c3c    H12  771   1.762   1.633   1.946 -0.4063  2.1382  1.7794
   77c3c    H13  772   1.793   1.707   1.792 -0.3025 -0.6047  0.0945
   77c3c     C7  773   1.968   1.625   1.879  0.6459 -1.2303  0.3991
   77c3c    H14  774   2.026   1.620   1.971  1.7970  0.0953 -0.2486
   77c3c    H15  775   2.026   1.675   1.801 -2.0323 -0.7452 -1.3543
   77c3c     C8  776   1.938   1.490   1.837 -0.4109  0.4787  0.1123
   77c3c    H16  777   2.023   1.455   1.778 -1.3682 -1.5652 -0.0707
   77c3c    H17  778   1.863   1.480   1.759 -0.6527  2.4825  0.0575
   77c3c    H18  779   1.923   1.418   1.917  1.2550 -2.7535 -2.3882
   78c3c      N  780   2.727   0.492   0.312  1.2121  0.0170 -0.0812
   78c3c     C1  781   2.817   0.590   0.373 -0.9000  0.8828  0.1220
   78c3c     C2  782   2.769   0.368   0.380  0.3450 -0.0097 -0.0204
   78c3c     C3  783   2.827   0.553   0.519 -0.3695 -0.5479  0.7497
   78c3c     C4  784   2.796   0.400   0.527  0.0143 -0.1029  0.6069
   78c3c     C5  785   2.585   0.531   0.337  0.0770 -0.5678  0.5945
   78c3c     C6  786   2.756   0.488   0.165  0.6696  0.4646 -0.6812
   78c3c     H1  787   2.785   0.694   0.365  0.2336  1.2574  0.2837
   78c3c     H2  788   2.918   0.579   0.332 -1.1447 -1.6225  0.1649
   78c3c     H3  789   2.716   0.277   0.353 -0.0679 -0.6859  2.9189
   78c3c     H4  790   2.867   0.338   0.342 -0.9308 -2.8435 -1.2055
   78c3c     H5  791   2.753   0.613   0.572 -0.8988 -0.4976 -0.0403
   78c3c     H6  792   2.923   0.581   0.561 -0.2813  1.0442 -0.4929
   78c3c     H7  793   2.700   0.393   0.577 -0.3749 -1.3749 -0.2965
   78c3c     H8  794   2.876   0.344   0.574 -0.2679 -1.0298 -0.0166
   78c3c     H9  795   2.560   0.635   0.315  1.9817  0.3194  2.3803
   78c3c    H10  796   2.510   0.470   0.287 -0.4787  1.6936 -1.4583
   78c3c    H11  797   2.556   0.519   0.441  3.5125  0.0414  1.6760
   78c3c    H12  798   2.711   0.574   0.115 -0.9405 -0.5313 -0.9984
   78c3c    H13  799   2.862   0.498   0.141  0.3657  2.6839 -1.1742
   78c3c     C7  800   2.695   0.362   0.099  0.6381  0.0315 -0.1135
   78c3c    H14  801   2.591   0.355   0.129  0.6960 -0.9744 -0.1537
   78c3c    H15  802   2.752   0.274   0.129  1.3911  0.9699  1.2695
   78c3c     C8  803   2.702   0.364  -0.052  0.4528 -0.6948  0.2866
   78c3c    H16  804   2.804   0.393  -0.079  1.4211 -1.0450  3.3676
   78c3c    H17  805   2.629   0.430  -0.098 -0.9209 -1.7848  0.8858
   78c3c    H18  806   2.675   0.271  -0.103  0.1381 -0.7697  0.5948
   79c3c      N  807   0.973   1.224   1.950 -0.2335 -0.0472 -0.2757
   79c3c     C1  808   0.981   1.319   1.835 -0.4220 -0.5813  0.0585
   79c3c     C2  809   0.833   1.247   1.987 -0.4772 -0.0981 -0.6065
   79c3c     C3  810   0.891   1.436   1.865 -0.3387  0.1012 -0.5100
   79c3c     C4  811   0.807   1.393   1.995  0.2933  0.5301  0.2656
   79c3c     C5  812   0.983   1.092   1.899  0.0976 -0.0162  0.1697
   79c3c     C6  813   1.063   1.261   2.063 -0.4697 -0.2149  0.0838
   79c3c     H1  814   0.957   1.270   1.741 -0.5920 -1.0246  0.3332
   79c3c     H2  815   1.085   1.350   1.823 -0.5039 -0.1020  0.5511
   79c3c     H3  816   0.760   1.193   1.926 -0.8433  0.0903 -0.3396
   79c3c     H4  817   0.808   1.211   2.087  1.9288  1.0086  0.4328
   79c3c     H5  818   0.819   1.441   1.783  2.5720  0.4605 -3.1081
   79c3c     H6  819   0.949   1.527   1.872  1.2031 -0.8203 -1.1528
   79c3c     H7  820   0.704   1.425   2.011  0.3266 -0.2376  2.0715
   79c3c     H8  821   0.856   1.434   2.083  0.4155 -1.5638  1.1916
   79c3c     H9  822   0.961   1.015   1.973  0.0183 -0.8839 -0.7562
   79c3c    H10  823   0.913   1.077   1.817 -1.2723 -1.4198  1.5699
   79c3c    H11  824   1.082   1.077   1.857  0.2005 -0.6294  0.6287
   79c3c    H12  825   1.042   1.363   2.096 -1.0736 -0.2575 -0.1716
   79c3c    H13  826   1.053   1.185   2.139 -0.3780 -0.6929 -0.3811
   79c3c     C7  827   1.222   1.238   2.028  0.3031  0.2046  0.1702
   79c3c    H14  828   1.251   1.288   1.935 -2.5102 -0.5232 -1.1498
   79c3c    H15  829   1.234   1.130   2.019  0.9203  0.2840  0.0246
   79c3c     C8  830   1.315   1.271   2.145  0.7881  0.3357  0.4816
   79c3c    H16  831   1.344   1.376   2.152  0.8080  0.3895 -0.2681
   79c3c    H17  832   1.406   1.210   2.142 -0.8233 -2.0934 -0.1134
   79c3c    H18  833   1.252   1.249   2.231  0.2151  0.4479  0.0951
   80c3c      N  834   2.832   1.130   0.362 -0.2160  0.1215  0.2423
   80c3c     C1  835   2.801   1.056   0.239  0.3445  0.0543 -0.2335
   80c3c     C2  836   2.815   1.272   0.315  0.7313  0.2994 -0.4075
   80c3c     C3  837   2.691   1.129   0.169 -0.2673 -0.0464 -0.5575
   80c3c     C4  838   2.706   1.276   0.210  0.2775  0.4206  1.0115
   80c3c     C5  839   2.730   1.120   0.473  0.3548  0.7342 -0.6341
   80c3c     C6  840   2.966   1.096   0.420 -0.0189  0.9688  0.0245
   80c3c     H1  841   2.781   0.950   0.251  1.6191 -0.1665  0.0278
   80c3c     H2  842   2.888   1.051   0.174  1.8519  0.1616  1.7152
   80c3c     H3  843   2.800   1.348   0.392  1.2459 -0.2559  0.2548
   80c3c     H4  844   2.905   1.295   0.258  1.2556  3.6091  1.6070
   80c3c     H5  845   2.597   1.088   0.205  0.9397 -1.9067  0.5479
   80c3c     H6  846   2.703   1.107   0.063  0.1825 -2.3522 -0.0626
   80c3c     H7  847   2.617   1.318   0.256  1.1650  1.4468  1.8072
   80c3c     H8  848   2.735   1.332   0.120 -1.4762  1.7633  1.2725
   80c3c     H9  849   2.739   1.024   0.524  0.3596  1.2174  0.2902
   80c3c    H10  850   2.759   1.183   0.557  0.1209 -0.9024  0.7171
   80c3c    H11  851   2.624   1.130   0.448  0.1097 -0.3869 -0.1178
   80c3c    H12  852   2.970   1.129   0.523 -0.2656  0.8719  0.0643
   80c3c    H13  853   2.950   0.988   0.421 -1.1415  1.0695 -2.3714
   80c3c     C7  854   3.090   1.135   0.336  0.1550 -0.1450  0.4473
   80c3c    H14  855   3.100   1.242   0.322  0.3405 -0.5279 -2.8499
   80c3c    H15  856   3.086   1.098   0.233 -0.6744 -1.5606  0.9645
   80c3c     C8  857   3.216   1.107   0.407 -0.0614 -0.4851  0.2635
   80c3c    H16  858   3.216   1.005   0.447  1.5983  0.1475  1.9714
   80c3c    H17  859   3.237   1.173   0.491 -0.7735  0.7091 -0.4903
   80c3c    H18  860   3.297   1.116   0.334  0.3884 -0.0966  0.8057
   81c3c      N  861   1.428   0.705   1.877  0.5051  0.2780  0.5809
   81c3c     C1  862   1.302   0.754   1.823  0.5875 -0.3273 -0.5707
   81c3c     C2  863   1.393   0.663   2.015 -1.1074  0.2632 -0.6664
   81c3c     C3  864   1.195   0.654   1.864 -0.2198  0.6274 -0.0000
   81c3c     C4  865   1.253   0.607   2.005  0.0597 -0.3249  0.2974
   81c3c     C5  866   1.481   0.596   1.797  0.0955  0.7591  0.2532
   81c3c     C6  867   1.534   0.812   1.880  0.2395  0.5157  0.0286
   81c3c     H1  868   1.301   0.765   1.714  0.1014  2.0036 -0.3641
   81c3c     H2  869   1.270   0.844   1.875  0.8996 -0.5345 -0.0179
   81c3c     H3  870   1.458   0.582   2.048 -1.0016  0.7545  0.3602
   81c3c     H4  871   1.395   0.743   2.089 -1.4563  0.6560 -1.0791
   81c3c     H5  872   1.193   0.565   1.800  1.2967 -1.0221  2.1565
   81c3c     H6  873   1.096   0.699   1.865 -1.3481 -1.7266  2.5548
   81c3c     H7  874   1.257   0.498   2.010 -1.6723 -0.3075  3.3314
   81c3c     H8  875   1.196   0.645   2.090 -0.0185  0.9700 -0.3186
   81c3c     H9  876   1.567   0.546   1.843  0.3079  1.0577  0.1858
   81c3c    H10  877   1.401   0.524   1.783  0.4078 -0.3208  3.6936
   81c3c    H11  878   1.527   0.629   1.704  1.2472  0.3746  0.6736
   81c3c    H12  879   1.622   0.778   1.934 -1.3884 -0.9064  1.8453
   81c3c    H13  880   1.566   0.827   1.777  0.9979 -2.3612 -0.1873
   81c3c     C7  881   1.491   0.951   1.931 -0.1722 -0.2612 -0.1681
   81c3c    H14  882   1.433   0.961   2.022  0.6048 -1.2005  0.4351
   81c3c    H15  883   1.439   1.000   1.848  0.7921  1.6374  0.3032
   81c3c     C8  884   1.615   1.036   1.957 -0.6347 -0.0112 -0.1267
   81c3c    H16  885   1.673   0.993   2.039 -0.3436 -0.1078 -0.3815
   81c3c    H17  886   1.580   1.137   1.979 -2.5152 -1.2536  3.0083
   81c3c    H18  887   1.679   1.022   1.870  1.6505 -0.4579  1.5440
   82c3c      N  888   0.427   0.714   0.737 -0.4606  0.8570 -0.0915
   82c3c     C1  889   0.374   0.813   0.643  0.2070  1.0565 -0.0851
   82c3c     C2  890   0.464   0.800   0.849 -0.3282  0.0152  0.1757
   82c3c     C3  891   0.287   0.908   0.728 -0.0911  0.5139 -0.3023
   82c3c     C4  892   0.342   0.894   0.871  0.4351  0.0918  0.1673
   82c3c     C5  893   0.329   0.613   0.777 -0.2113 -0.6590  0.2846
   82c3c     C6  894   0.545   0.637   0.686 -0.1193 -0.3041  0.0908
   82c3c     H1  895   0.319   0.770   0.559 -0.7531  0.8678  0.6334
   82c3c     H2  896   0.451   0.880   0.605  1.1835  0.6456  1.1401
   82c3c     H3  897   0.471   0.758   0.949 -0.3271 -0.8956 -0.2081
   82c3c     H4  898   0.555   0.857   0.829 -0.6403  0.7634  0.8191
   82c3c     H5  899   0.183   0.875   0.735  0.7106 -2.5594 -1.6500
   82c3c     H6  900   0.293   1.011   0.694  0.6810  0.8666  0.8686
   82c3c     H7  901   0.262   0.855   0.935  0.9410 -2.3952 -0.6843
   82c3c     H8  902   0.384   0.988   0.908  0.9401  0.5850 -1.6203
   82c3c     H9  903   0.242   0.651   0.830 -0.4780 -1.1214  0.1719
   82c3c    H10  904   0.299   0.545   0.697  0.3194 -0.9870  0.3614
   82c3c    H11  905   0.375   0.548   0.851 -0.3571 -1.1103 -0.0224
   82c3c    H12  906   0.586   0.581   0.770 -0.7010 -0.0319  0.5654
   82c3c    H13  907   0.524   0.558   0.614 -1.1075  1.0172 -1.0961
   82c3c     C7  908   0.656   0.724   0.623  0.1071 -0.0111 -0.4429
   82c3c    H14  909   0.707   0.782   0.699  1.2318 -2.0246  0.3612
   82c3c    H15  910   0.621   0.781   0.536 -1.5250  0.0072  0.2014
   82c3c     C8  911   0.770   0.635   0.572 -0.0798  0.4258  0.1055
   82c3c    H16  912   0.826   0.587   0.652  3.4375  4.0678 -0.0416
   82c3c    H17  913   0.838   0.687   0.505 -0.9579  0.7666 -0.5367
   82c3c    H18  914   0.728   0.557   0.508 -1.9157  0.8600  0.7557
   83c3c      N  915   0.141   0.458   1.225 -0.5770  0.1789 -0.6284
   83c3c     C1  916   0.275   0.416   1.275 -0.5809 -0.0857  0.2856
   83c3c     C2  917   0.063   0.345   1.272 -0.1551 -0.0256 -0.3939
   83c3c     C3  918   0.260   0.331   1.403  0.1473 -0.7532 -0.0327
   83c3c     C4  919   0.114   0.307   1.410 -0.1546 -0.0385  0.0899
   83c3c     C5  920   0.096   0.576   1.301 -0.2081  0.0072  0.5016
   83c3c     C6  921   0.129   0.463   1.081 -0.0556  0.2833  0.2885
   83c3c     H1  922   0.335   0.506   1.289 -1.2173  0.4282 -0.2266
   83c3c     H2  923   0.333   0.370   1.196  2.3026  2.5718  0.7542
   83c3c     H3  924  -0.043   0.370   1.280  0.0650  0.0544  3.6244
   83c3c     H4  925   0.083   0.256   1.212  1.6678 -0.2050  0.4609
   83c3c     H5  926   0.289   0.388   1.491  0.0298 -0.5705 -0.1112
   83c3c     H6  927   0.315   0.237   1.401 -0.3750 -1.0483 -0.6457
   83c3c     H7  928   0.074   0.376   1.485  0.7792  2.8602 -1.9708
   83c3c     H8  929   0.090   0.203   1.433  1.2227 -0.4082 -0.1508
   83c3c     H9  930   0.150   0.662   1.262 -1.4943  0.7497  0.3635
   83c3c    H10  931  -0.007   0.599   1.278  0.3298  0.0559 -2.0332
   83c3c    H11  932   0.097   0.575   1.410 -0.9840 -0.9618  0.5095
   83c3c    H12  933   0.193   0.543   1.045  0.0114  0.0023 -0.2206
   83c3c    H13  934   0.163   0.371   1.033  0.6508  0.4309  0.5030
   83c3c     C7  935  -0.023   0.489   1.036  0.0405  0.5814  0.1249
   83c3c    H14  936  -0.057   0.585   1.075 -1.7246 -0.6319  1.6486
   83c3c    H15  937  -0.088   0.418   1.087  1.1178 -0.5020  0.0112
   83c3c     C8  938  -0.045   0.490   0.888 -0.1025  0.7867 -0.0648
   83c3c    H16  939  -0.013   0.391   0.855 -1.1861  0.6158 -0.6263
   83c3c    H17  940   0.013   0.562   0.831  0.4861  0.4463  0.0926
   83c3c    H18  941  -0.150   0.497   0.860 -0.6828 -1.1960  1.4195
   84c3c      N  942   2.893   0.717   1.983 -0.1088 -0.2188 -0.1974
   84c3c     C1  943   3.016   0.791   2.022  0.2930  0.5015  0.4753
   84c3c     C2  944   2.889   0.732   1.841  0.5797 -0.3119  0.2167
   84c3c     C3  945   3.111   0.761   1.904 -0.5077  0.0053  0.0542
   84c3c     C4  946   3.031   0.709   1.781  0.1336  0.6111 -0.2639
   84c3c     C5  947   2.910   0.574   2.013  0.0562  0.1192  0.0924
   84c3c     C6  948   2.768   0.761   2.052  0.0795 -0.3810  1.1598
   84c3c     H1  949   3.056   0.761   2.119 -2.3327 -0.2633  1.3725
   84c3c     H2  950   3.008   0.900   2.031 -2.1917  0.2911  1.2370
   84c3c     H3  951   2.816   0.667   1.792  1.3562  0.9097 -2.6335
   84c3c     H4  952   2.849   0.830   1.816 -1.7154 -1.0355  0.8903
   84c3c     H5  953   3.169   0.678   1.944 -1.5762 -1.4306 -1.3076
   84c3c     H6  954   3.173   0.848   1.882  1.5438 -1.2630  0.7205
   84c3c     H7  955   3.047   0.604   1.758  0.0219  0.7353 -0.9296
   84c3c     H8  956   3.047   0.761   1.686 -3.1846  2.0827 -0.0674
   84c3c     H9  957   3.005   0.525   1.995 -0.8205 -1.4996 -0.2522
   84c3c    H10  958   2.903   0.550   2.119  1.6375 -2.2652 -0.3012
   84c3c    H11  959   2.833   0.518   1.960  1.4252 -0.3764 -1.4094
   84c3c    H12  960   2.682   0.697   2.028 -2.1949  2.2940  1.8670
   84c3c    H13  961   2.784   0.760   2.159 -0.1145 -0.2214  1.1920
   84c3c     C7  962   2.722   0.904   2.026 -0.8020 -0.6306  0.4318
   84c3c    H14  963   2.697   0.924   1.922 -1.1213 -0.2470  0.5821
   84c3c    H15  964   2.800   0.979   2.030  2.9985 -4.4526  1.2394
   84c3c     C8  965   2.619   0.951   2.127  0.5439  0.4009 -0.0008
   84c3c    H16  966   2.539   0.877   2.128  1.7904 -0.9916 -1.6969
   84c3c    H17  967   2.583   1.048   2.093  0.8098  0.2143 -0.8209
   84c3c    H18  968   2.649   0.958   2.232  0.4230  1.6551 -0.0328
   85c3c      N  969   1.417   0.567   2.794 -0.4997 -0.0895  0.0324
   85c3c     C1  970   1.329   0.535   2.907 -0.0984  0.1683 -0.4007
   85c3c     C2  971   1.540   0.489   2.815 -0.2841  0.6635  0.1631
   85c3c     C3  972   1.371   0.402   2.956  0.0241  0.4346 -0.5366
   85c3c     C4  973   1.493   0.363   2.884  0.5528  0.1919  0.0833
   85c3c     C5  974   1.352   0.516   2.672  0.1140 -1.1553  0.4016
   85c3c     C6  975   1.438   0.715   2.773  0.2016  0.1813 -0.2066
   85c3c     H1  976   1.223   0.552   2.886 -0.7358 -1.8023  1.0318
   85c3c     H2  977   1.344   0.606   2.989  0.1725  0.7357 -0.9370
   85c3c     H3  978   1.596   0.476   2.723 -1.4957  2.5786 -0.8740
   85c3c     H4  979   1.607   0.552   2.874  2.3766  0.0640 -2.1118
   85c3c     H5  980   1.290   0.329   2.946  0.6973 -0.6580  1.7070
   85c3c     H6  981   1.386   0.407   3.063  3.1027 -0.4287 -0.8896
   85c3c     H7  982   1.460   0.289   2.811 -1.0255  1.0397 -0.0776
   85c3c     H8  983   1.578   0.322   2.940  0.3722 -1.2420 -0.6848
   85c3c     H9  984   1.265   0.578   2.648  1.0716  0.6592  1.5491
   85c3c    H10  985   1.419   0.514   2.587 -1.8141 -0.7341 -1.1680
   85c3c    H11  986   1.311   0.414   2.675 -0.3326 -1.0098 -0.5879
   85c3c    H12  987   1.487   0.720   2.676  0.1698  1.1600 -0.1751
   85c3c    H13  988   1.341   0.752   2.742  0.7388 -0.7769 -3.2114
   85c3c     C7  989   1.514   0.803   2.878  0.0872  0.0567 -0.7881
   85c3c    H14  990   1.617   0.774   2.897  0.3153  1.7669  0.6723
   85c3c    H15  991   1.464   0.800   2.974 -1.1213  2.2395 -1.3162
   85c3c     C8  992   1.509   0.951   2.853  0.0150  0.0719  0.4770
   85c3c    H16  993   1.544   1.005   2.941 -1.6745 -2.1324  2.5635
   85c3c    H17  994   1.411   0.992   2.830 -0.5369 -2.9638 -2.8916
   85c3c    H18  995   1.580   0.981   2.776 -1.1742  1.0510 -0.2622
   86c3c      N  996   2.646   0.960   1.436  0.2312  0.3436 -0.3199
   86c3c     C1  997   2.572   1.087   1.443  0.4181 -0.6151  0.1278
   86c3c     C2  998   2.590   0.893   1.555 -0.3635 -0.1072 -0.2561
   86c3c     C3  999   2.433   1.042   1.477  0.1020 -0.0104  0.5209
   86c3c     C4 1000   2.442   0.910   1.553  0.2269 -0.8475  0.5484
   86c3c     C5 1001   2.614   0.890   1.312  0.1148  0.0848 -0.7845
   86c3c     C6 1002   2.794   0.978   1.443 -0.8837 -0.2267 -0.8611
   86c3c     H1 1003   2.584   1.138   1.347 -0.4070 -1.7367 -0.5728
   86c3c     H2 1004   2.598   1.151   1.528  1.1892 -2.6929  1.4870
   86c3c     H3 1005   2.617   0.787   1.563  0.2799  0.1053  0.4457
   86c3c     H4 1006   2.617   0.948   1.645 -1.6661 -0.0824  0.1283
   86c3c     H5 1007   2.370   1.030   1.388 -0.4795 -1.7739  1.1653
   86c3c     H6 1008   2.373   1.109   1.539 -2.8031 -2.3126  0.2972
   86c3c     H7 1009   2.396   0.826   1.500 -0.9366 -0.7259  1.3556
   86c3c     H8 1010   2.401   0.917   1.654  0.0173 -1.3627  0.4997
   86c3c     H9 1011   2.509   0.864   1.301 -0.2565 -0.4143  3.0907
   86c3c    H10 1012   2.653   0.945   1.227  0.8452  0.6212 -0.1102
   86c3c    H11 1013   2.673   0.798   1.312 -0.5285 -0.3276 -1.7605
   86c3c    H12 1014   2.836   0.877   1.441  2.3726  1.0739 -0.0244
   86c3c    H13 1015   2.822   1.034   1.354 -1.6323  0.7219 -0.5092
   86c3c     C7 1016   2.850   1.050   1.567  0.1547  0.3936  0.4720
   86c3c    H14 1017   2.836   0.996   1.661  4.4241  0.2614  1.1330
   86c3c    H15 1018   2.814   1.151   1.586 -2.0421 -0.4596  0.9943
   86c3c     C8 1019   3.003   1.043   1.562  0.1768  0.4647  0.4253
   86c3c    H16 1020   3.040   1.076   1.465 -1.1748  1.1259  0.1071
   86c3c    H17 1021   3.039   0.942   1.578  0.2516  0.3936 -0.1653
   86c3c    H18 1022   3.050   1.097   1.643  1.3533 -0.4433  0.3503
   87c3c      N 1023   2.509   2.752   0.524  0.0886  0.4799  0.1747
   87c3c     C1 1024   2.637   2.682   0.536 -0.1307  0.0023  0.3563
   87c3c     C2 1025   2.416   2.650   0.471  0.1501 -0.1012  0.3579
   87c3c     C3 1026   2.603   2.539   0.574 -0.0344  1.0368 -0.6847
   87c3c     C4 1027   2.453   2.528   0.544 -1.0246  0.3630  0.5235
   87c3c     C5 1028   2.451   2.801   0.655 -0.3003 -0.8251  0.4795
   87c3c     C6 1029   2.516   2.871   0.443 -0.4377 -0.0790 -0.5403
   87c3c     H1 1030   2.704   2.736   0.603 -0.1586  0.8693 -0.3039
   87c3c     H2 1031   2.696   2.665   0.446 -2.1236 -1.4986 -0.7005
   87c3c     H3 1032   2.310   2.670   0.485  0.6046  1.9543  0.9368
   87c3c     H4 1033   2.452   2.632   0.370 -0.0533  1.9905 -0.0980
   87c3c     H5 1034   2.608   2.529   0.683  3.2260  4.0793 -0.4695
   87c3c     H6 1035   2.664   2.456   0.537 -0.2658  1.4619 -2.0181
   87c3c     H7 1036   2.385   2.517   0.628 -0.2025 -2.4083  0.8853
   87c3c     H8 1037   2.428   2.445   0.478 -0.5021  0.6943 -0.0959
   87c3c     H9 1038   2.500   2.864   0.729 -1.8416  2.7553 -1.4175
   87c3c    H10 1039   2.348   2.836   0.647 -0.6842 -2.3660 -1.5460
   87c3c    H11 1040   2.439   2.712   0.718 -0.8303  1.7937  4.2587
   87c3c    H12 1041   2.418   2.918   0.438 -0.4078 -0.1021 -1.3110
   87c3c    H13 1042   2.563   2.943   0.511 -0.0677 -1.2789  0.5000
   87c3c     C7 1043   2.575   2.859   0.305  0.1449 -0.2376 -0.2599
   87c3c    H14 1044   2.508   2.799   0.243  0.6441 -1.7289  0.6190
   87c3c    H15 1045   2.675   2.815   0.308  0.6213  0.9038  2.1736
   87c3c     C8 1046   2.595   2.992   0.225 -0.0156 -0.4822 -0.2920
   87c3c    H16 1047   2.663   3.059   0.279  1.3883 -0.8729 -1.5338
   87c3c    H17 1048   2.501   3.046   0.213 -0.2450 -0.8562 -0.1599
   87c3c    H18 1049   2.636   2.979   0.125  0.4375 -0.6293 -0.0876
   88c3c      N 1050   2.937   1.955   2.971  0.6229  0.9568  0.0479
   88c3c     C1 1051   2.963   2.050   3.077 -0.1391 -0.1750  0.3397
   88c3c     C2 1052   3.064   1.937   2.909 -0.2449 -0.7344  0.3009
   88c3c     C3 1053   3.078   2.146   3.035  0.0164 -0.4122  0.6189
   88c3c     C4 1054   3.151   2.065   2.930 -0.0804 -0.8291 -0.0116
   88c3c     C5 1055   2.890   1.832   3.041  0.2579 -0.0881  0.2043
   88c3c     C6 1056   2.834   1.996   2.879  0.4061 -0.3911 -0.6461
   88c3c     H1 1057   3.002   1.991   3.159  0.0636  0.2684  0.5619
   88c3c     H2 1058   2.877   2.098   3.124 -3.0112 -1.6224 -3.1762
   88c3c     H3 1059   3.117   1.855   2.958 -0.6240 -0.0186  1.9310
   88c3c     H4 1060   3.053   1.921   2.802  0.2230 -2.5778  0.5066
   88c3c     H5 1061   3.142   2.176   3.117 -0.3827 -1.4688  1.3199
   88c3c     H6 1062   3.040   2.234   2.982 -3.4586 -2.6501 -0.7955
   88c3c     H7 1063   3.248   2.035   2.969  1.4274  2.5104 -1.0181
   88c3c     H8 1064   3.164   2.118   2.835 -0.3250  1.0039  0.9621
   88c3c     H9 1065   2.795   1.836   3.095  0.0049  0.7943 -0.3113
   88c3c    H10 1066   2.875   1.757   2.963 -1.9872 -0.8913  1.3617
   88c3c    H11 1067   2.954   1.784   3.115 -0.7468 -1.2672  0.3417
   88c3c    H12 1068   2.809   1.912   2.812  0.8180 -0.0430 -1.2399
   88c3c    H13 1069   2.744   2.026   2.933  0.9584  2.1923 -1.1159
   88c3c     C7 1070   2.860   2.115   2.790 -0.9163 -0.7889 -0.3949
   88c3c    H14 1071   2.952   2.102   2.733 -0.2954 -0.8098  0.6026
   88c3c    H15 1072   2.881   2.211   2.838  2.2804 -0.9071 -1.3951
   88c3c     C8 1073   2.755   2.147   2.674  0.2158 -0.1234 -0.5161
   88c3c    H16 1074   2.747   2.067   2.600  2.1471 -1.0161  0.2085
   88c3c    H17 1075   2.780   2.243   2.628  0.9672  0.2164  0.6049
   88c3c    H18 1076   2.661   2.162   2.728 -0.0626 -1.5882 -0.5785
   89c3c      N 1077   1.611   0.128   1.640 -0.3056  0.0361 -0.2821
   89c3c     C1 1078   1.471   0.103   1.611  0.1971  0.1191  0.3719
   89c3c     C2 1079   1.682   0.066   1.533 -0.3528 -0.0134  0.0492
   89c3c     C3 1080   1.464   0.129   1.461  0.4519 -0.0197 -0.1938
   89c3c     C4 1081   1.611   0.122   1.413 -0.1572 -0.0910  0.6491
   89c3c     C5 1082   1.634   0.270   1.648  0.6266  0.0402  0.4996
   89c3c     C6 1083   1.660   0.072   1.770 -0.6821 -0.2655 -0.2070
   89c3c     H1 1084   1.406   0.162   1.676  1.1484  2.4329 -0.7247
   89c3c     H2 1085   1.441   0.001   1.637 -0.8209  0.0174 -1.1367
   89c3c     H3 1086   1.788   0.088   1.526 -0.3747  0.2460  0.5185
   89c3c     H4 1087   1.654  -0.040   1.534  1.1222 -0.4236  0.4165
   89c3c     H5 1088   1.411   0.220   1.438  0.9558  0.9404  2.2770
   89c3c     H6 1089   1.405   0.048   1.418  0.5539 -0.1815 -0.0364
   89c3c     H7 1090   1.645   0.222   1.386 -1.3504  0.7781  2.2491
   89c3c     H8 1091   1.631   0.064   1.323 -1.7226  0.7147 -0.2451
   89c3c     H9 1092   1.604   0.316   1.743 -1.1997  0.5453 -0.3014
   89c3c    H10 1093   1.736   0.306   1.638  0.4801  0.4069  0.2867
   89c3c    H11 1094   1.576   0.329   1.576  1.2375  0.4709  0.3586
   89c3c    H12 1095   1.764   0.091   1.797 -0.1552 -1.8506 -1.0872
   89c3c    H13 1096   1.607   0.124   1.850 -1.1887  0.7718 -1.1981
   89c3c     C7 1097   1.633  -0.080   1.790 -0.1453 -0.3428  0.1796
   89c3c    H14 1098   1.689  -0.135   1.714 -0.2052  0.2869 -0.3331
   89c3c    H15 1099   1.528  -0.107   1.788 -0.5154  0.9559  1.0082
   89c3c     C8 1100   1.705  -0.132   1.920 -0.4278 -0.3150 -0.2347
   89c3c    H16 1101   1.633  -0.115   2.000  0.1240  1.0626 -0.0275
   89c3c    H17 1102   1.792  -0.074   1.951 -1.1932  2.1089 -2.4857
   89c3c    H18 1103   1.733  -0.238   1.925 -0.3743 -0.2541  1.0738
   90c3c      N 1104   1.076   1.139   2.689 -0.2704  0.3258  0.3535
   90c3c     C1 1105   1.049   1.002   2.677  0.0839  0.4126  0.2632
   90c3c     C2 1106   1.075   1.188   2.553  0.0214 -0.2195 -0.9565
   90c3c     C3 1107   0.965   0.972   2.546 -0.4951  0.1686  0.5521
   90c3c     C4 1108   0.964   1.110   2.479 -0.1744 -0.1209  0.1326
   90c3c     C5 1109   0.968   1.201   2.766  0.0450  0.5191  0.2266
   90c3c     C6 1110   1.204   1.159   2.760  0.4909  0.6340 -0.5264
   90c3c     H1 1111   1.013   0.945   2.763  1.6327 -1.1739 -0.1109
   90c3c     H2 1112   1.143   0.959   2.642 -0.6712 -0.8160 -0.2781
   90c3c     H3 1113   1.059   1.295   2.540  0.4520 -0.3945 -3.1363
   90c3c     H4 1114   1.165   1.169   2.494  0.5480 -0.5152 -0.0656
   90c3c     H5 1115   0.867   0.932   2.571 -0.1720 -0.7590  0.3471
   90c3c     H6 1116   1.022   0.904   2.483  1.7131  1.8547  0.6430
   90c3c     H7 1117   0.862   1.149   2.490  0.0411  0.5122 -0.0892
   90c3c     H8 1118   0.976   1.109   2.371 -0.3302 -2.3141  0.1068
   90c3c     H9 1119   0.972   1.310   2.765  0.7271  0.4824 -1.5846
   90c3c    H10 1120   0.870   1.191   2.720 -0.0475  1.6260  0.1691
   90c3c    H11 1121   0.955   1.165   2.868  2.0529  0.2513  0.3941
   90c3c    H12 1122   1.200   1.135   2.866  3.3554  0.0412 -0.4981
   90c3c    H13 1123   1.278   1.103   2.704  1.0252  0.8262 -0.0182
   90c3c     C7 1124   1.258   1.309   2.761  0.1998  0.3792 -0.0633
   90c3c    H14 1125   1.185   1.379   2.801  1.6746  1.3186  1.0542
   90c3c    H15 1126   1.272   1.332   2.655  0.5995 -2.3304 -0.6402
   90c3c     C8 1127   1.380   1.335   2.844 -0.2740  0.1368 -0.4947
   90c3c    H16 1128   1.470   1.288   2.805  1.3632  1.8318  1.1735
   90c3c    H17 1129   1.372   1.287   2.941  2.1040 -0.1713 -0.4207
   90c3c    H18 1130   1.401   1.441   2.860 -0.7270  0.0193  1.0251
   91c3c      N 1131   0.934   1.711   0.760  0.3788  0.3903  0.0417
   91c3c     C1 1132   0.956   1.797   0.643  0.2563  0.2574  0.6304
   91c3c     C2 1133   0.867   1.590   0.698  0.1996  0.3006 -0.1569
   91c3c     C3 1134   0.992   1.701   0.525  0.4469  0.1241 -0.0890
   91c3c     C4 1135   0.913   1.568   0.554  0.3169 -1.1716  0.1455
   91c3c     C5 1136   1.069   1.680   0.811  0.3970  0.3434  0.2303
   91c3c     C6 1137   0.852   1.758   0.872  0.6174  0.5226  0.4238
   91c3c     H1 1138   1.016   1.887   0.652  0.9299  0.0646 -1.5005
   91c3c     H2 1139   0.863   1.843   0.609  0.7445  0.5409 -0.3411
   91c3c     H3 1140   0.882   1.499   0.756 -0.3324 -0.7428 -1.6530
   91c3c     H4 1141   0.760   1.606   0.687  0.2747  2.4376  1.8434
   91c3c     H5 1142   1.098   1.678   0.528  0.4681 -0.1419 -2.1994
   91c3c     H6 1143   0.973   1.748   0.428  1.4353 -2.6516 -1.6659
   91c3c     H7 1144   0.972   1.477   0.542  0.2487 -0.8341 -3.0369
   91c3c     H8 1145   0.826   1.556   0.491  0.3269 -1.9560  0.2732
   91c3c     H9 1146   1.125   1.763   0.855  0.4699 -0.4377  1.6194
   91c3c    H10 1147   1.070   1.600   0.885  1.3222  1.1339  1.0871
   91c3c    H11 1148   1.139   1.646   0.734  0.1869  0.0868  0.1513
   91c3c    H12 1149   0.795   1.676   0.916  0.4284  0.9692  1.0156
   91c3c    H13 1150   0.912   1.797   0.953  1.2749 -0.1596  0.2753
   91c3c     C7 1151   0.736   1.858   0.846  0.2851  0.0452 -0.7009
   91c3c    H14 1152   0.669   1.812   0.773  1.1920  0.3387 -1.7306
   91c3c    H15 1153   0.765   1.955   0.804  0.6635 -0.0260 -0.6064
   91c3c     C8 1154   0.667   1.906   0.971 -0.4414  0.4713 -0.1979
   91c3c    H16 1155   0.578   1.960   0.939 -0.4673  0.3622 -0.3092
   91c3c    H17 1156   0.722   1.977   1.032 -0.2722 -2.0764  2.7366
   91c3c    H18 1157   0.641   1.820   1.033  0.2055  0.3749 -0.0621
   92c3c      N 1158   0.028   2.613   0.282  0.2098 -0.4925  0.0334
   92c3c     C1 1159   0.092   2.586   0.153  0.1811 -0.1246 -0.0572
   92c3c     C2 1160   0.140   2.632   0.381 -0.5531 -0.4835  0.2193
   92c3c     C3 1161   0.208   2.683   0.148 -0.1319  0.0089  0.1073
   92c3c     C4 1162   0.255   2.693   0.294  0.2460 -0.4301  0.1258
   92c3c     C5 1163  -0.052   2.739   0.283 -0.6846  0.5801 -0.1238
   92c3c     C6 1164  -0.061   2.500   0.328 -1.1046  0.3456  0.3061
   92c3c     H1 1165   0.010   2.603   0.083 -0.2861  0.3189  0.5953
   92c3c     H2 1166   0.128   2.485   0.131  1.0576  0.1306  0.2144
   92c3c     H3 1167   0.111   2.696   0.464 -0.0122  0.2670 -0.1567
   92c3c     H4 1168   0.166   2.538   0.429  1.8965 -1.2680 -2.4511
   92c3c     H5 1169   0.153   2.771   0.115 -0.6855 -0.2190  0.4055
   92c3c     H6 1170   0.288   2.657   0.079  1.0474 -1.0422  1.8245
   92c3c     H7 1171   0.281   2.796   0.321  0.1727 -0.5416  0.6231
   92c3c     H8 1172   0.341   2.630   0.315  0.6142  0.0138 -0.0141
   92c3c     H9 1173  -0.119   2.745   0.197 -0.3454  2.1641 -0.2925
   92c3c    H10 1174  -0.095   2.755   0.382 -1.0790  1.2495 -0.3988
   92c3c    H11 1175   0.003   2.831   0.264  0.2913 -0.1171 -0.7203
   92c3c    H12 1176  -0.076   2.522   0.434 -0.3612 -1.3535  0.7942
   92c3c    H13 1177  -0.146   2.502   0.260  0.7037  1.9314 -1.9623
   92c3c     C7 1178   0.008   2.356   0.311  0.2355 -0.2945  0.2738
   92c3c    H14 1179   0.117   2.355   0.319  0.4735 -0.0760 -2.5550
   92c3c    H15 1180  -0.009   2.325   0.208 -0.2915 -1.6948  0.7816
   92c3c     C8 1181  -0.067   2.239   0.385  0.4998  1.1963 -0.1012
   92c3c    H16 1182  -0.172   2.239   0.354 -0.0746  2.8248  1.7628
   92c3c    H17 1183  -0.050   2.230   0.492 -1.3049 -3.0738 -0.0578
   92c3c    H18 1184  -0.020   2.148   0.347 -1.1040 -0.5655  1.9999
   93c3c      N 1185   2.621   0.030   2.341  0.2401 -0.1975 -0.0830
   93c3c     C1 1186   2.709  -0.088   2.344  0.2003  0.6019  0.2313
   93c3c     C2 1187   2.670   0.096   2.222  0.2371 -0.3442 -0.6531
   93c3c     C3 1188   2.726  -0.138   2.197  0.7341  0.0878 -0.0845
   93c3c     C4 1189   2.713  -0.006   2.118 -0.1359  0.4960  0.7413
   93c3c     C5 1190   2.479  -0.016   2.332 -1.0308 -0.4550  0.1858
   93c3c     C6 1191   2.632   0.107   2.464  0.0145 -0.3713 -1.2303
   93c3c     H1 1192   2.670  -0.167   2.407 -0.1967  0.3168 -0.3638
   93c3c     H2 1193   2.809  -0.072   2.384 -0.4479  2.3269  1.2447
   93c3c     H3 1194   2.596   0.168   2.189 -1.2554 -0.7262  1.7332
   93c3c     H4 1195   2.763   0.150   2.241 -0.4387  0.1497  1.3235
   93c3c     H5 1196   2.653  -0.210   2.160  1.8505 -2.0752  1.8071
   93c3c     H6 1197   2.829  -0.168   2.178  1.1532  0.5557  1.3922
   93c3c     H7 1198   2.647  -0.012   2.031 -1.1990  0.7868  1.5145
   93c3c     H8 1199   2.811   0.025   2.083  0.1613 -2.9642 -1.8060
   93c3c     H9 1200   2.458  -0.078   2.420 -1.5857 -2.7146 -1.4762
   93c3c    H10 1201   2.397   0.055   2.330 -1.1760 -0.6145  0.3575
   93c3c    H11 1202   2.460  -0.087   2.252 -0.4924  0.1490 -0.4884
   93c3c    H12 1203   2.560   0.186   2.486  0.6858 -0.1820  0.3594
   93c3c    H13 1204   2.607   0.045   2.550 -0.0231  0.0593 -0.9288
   93c3c     C7 1205   2.773   0.156   2.509  0.9791 -0.0701 -0.8273
   93c3c    H14 1206   2.820   0.233   2.447  2.1598  2.7815  3.4180
   93c3c    H15 1207   2.848   0.078   2.521  1.6896  0.8466  0.7914
   93c3c     C8 1208   2.756   0.232   2.638 -0.7181 -0.3452  0.5659
   93c3c    H16 1209   2.694   0.322   2.631  0.8682  0.7009 -0.1600
   93c3c    H17 1210   2.855   0.247   2.679 -0.2362  2.4402 -1.4793
   93c3c    H18 1211   2.697   0.161   2.696 -0.8616 -2.8306 -2.5024
   94c3c      N 1212   0.521   1.480   0.177 -0.2762  0.2084 -0.2538
   94c3c     C1 1213   0.563   1.403   0.063 -0.1559  0.3232  0.0147
   94c3c     C2 1214   0.515   1.375   0.280 -0.6946 -0.2118 -0.1736
   94c3c     C3 1215   0.670   1.311   0.111 -0.8425 -0.2415 -0.4628
   94c3c     C4 1216   0.635   1.287   0.257 -0.0926 -0.1735  0.0142
   94c3c     C5 1217   0.617   1.590   0.215  0.2912  0.0924 -0.0517
   94c3c     C6 1218   0.384   1.534   0.155 -0.0678 -0.7385  0.0332
   94c3c     H1 1219   0.597   1.467  -0.019  1.7551  1.4852  1.6550
   94c3c     H2 1220   0.484   1.348   0.013  1.0490 -0.3269 -1.2048
   94c3c     H3 1221   0.497   1.425   0.376 -0.1973  1.3451 -0.8762
   94c3c     H4 1222   0.432   1.306   0.268  0.0520 -1.0024 -0.8328
   94c3c     H5 1223   0.767   1.360   0.103 -1.8460  1.9075  0.0712
   94c3c     H6 1224   0.682   1.217   0.057  1.4448 -0.8352  1.0112
   94c3c     H7 1225   0.716   1.318   0.323 -0.1503 -0.3807  0.1793
   94c3c     H8 1226   0.611   1.182   0.265  1.0031 -0.5761 -1.6042
   94c3c     H9 1227   0.570   1.651   0.292  2.3416 -1.4066  2.4802
   94c3c    H10 1228   0.711   1.550   0.254  0.4454  0.4562 -0.0506
   94c3c    H11 1229   0.634   1.652   0.128  0.8114 -0.2831 -0.2173
   94c3c    H12 1230   0.353   1.596   0.239 -0.1717  0.7369 -1.0627
   94c3c    H13 1231   0.389   1.614   0.081 -1.3192  0.7946  1.5919
   94c3c     C7 1232   0.258   1.443   0.127 -0.5857  0.6707 -0.5093
   94c3c    H14 1233   0.232   1.390   0.218  1.9378  0.6277  0.2398
   94c3c    H15 1234   0.277   1.378   0.042  1.2679  0.0190  0.3774
   94c3c     C8 1235   0.139   1.530   0.086 -0.2164 -0.4292 -0.1236
   94c3c    H16 1236   0.133   1.619   0.148 -0.2906 -2.4392  2.8626
   94c3c    H17 1237   0.044   1.476   0.086 -0.6369  0.3122  0.6090
   94c3c    H18 1238   0.148   1.561  -0.018  0.6675  0.2482  0.1463
   95c3c      N 1239   1.054   2.206   2.721 -0.0600 -0.2379  0.3749
   95c3c     C1 1240   1.018   2.295   2.612  0.1798 -0.0314  0.1053
   95c3c     C2 1241   1.006   2.282   2.836 -0.0130 -0.1630  0.3836
   95c3c     C3 1242   0.887   2.365   2.655  0.1798 -0.4615  0.0600
   95c3c     C4 1243   0.874   2.336   2.804  0.3612  0.1858 -0.0700
   95c3c     C5 1244   0.987   2.078   2.706  0.9809 -0.2438 -0.2103
   95c3c     C6 1245   1.196   2.180   2.734  0.1848 -0.3922 -0.0905
   95c3c     H1 1246   1.011   2.251   2.513 -0.4063 -0.8784  0.5200
   95c3c     H2 1247   1.095   2.370   2.596 -0.2778  0.3840 -0.1744
   95c3c     H3 1248   0.998   2.210   2.917 -1.8374 -1.7179 -1.1422
   95c3c     H4 1249   1.063   2.370   2.865 -0.6663  0.8208 -1.2213
   95c3c     H5 1250   0.797   2.328   2.605 -1.4508  1.7549  1.1973
   95c3c     H6 1251   0.884   2.472   2.634  0.8591 -0.4687 -0.0708
   95c3c     H7 1252   0.786   2.271   2.810 -1.2033  2.1590 -0.9900
   95c3c     H8 1253   0.855   2.431   2.855  1.0489 -0.8756  2.2132
   95c3c     H9 1254   1.020   2.011   2.786 -0.3764  1.4110  1.7917
   95c3c    H10 1255   0.879   2.092   2.705  0.9603 -0.3975 -0.1313
   95c3c    H11 1256   1.018   2.022   2.618 -1.7776 -1.7551 -0.2562
   95c3c    H12 1257   1.208   2.115   2.820  1.4492  0.0268  0.0579
   95c3c    H13 1258   1.229   2.124   2.646 -1.6547 -1.0566 -0.3804
   95c3c     C7 1259   1.296   2.296   2.764 -0.0153 -0.2045 -0.6741
   95c3c    H14 1260   1.266   2.361   2.846 -1.4619 -2.8807  0.9909
   95c3c    H15 1261   1.299   2.355   2.672  0.1955 -0.8698 -1.0959
   95c3c     C8 1262   1.447   2.258   2.771 -0.5427  0.1158 -0.3564
   95c3c    H16 1263   1.478   2.183   2.699  1.1539 -0.0930  0.5711
   95c3c    H17 1264   1.467   2.205   2.864  0.1936 -0.0328 -0.5967
   95c3c    H18 1265   1.521   2.338   2.777 -0.4448  0.0876 -1.0930
   96c3c      N 1266   2.767   1.592   1.864 -0.1762 -0.0147 -0.6699
   96c3c     C1 1267   2.658   1.560   1.772  0.4345  0.2016 -0.1185
   96c3c     C2 1268   2.862   1.672   1.781  0.3473 -0.8285  0.3582
   96c3c     C3 1269   2.636   1.684   1.687  0.0873 -0.1369  0.2497
   96c3c     C4 1270   2.773   1.727   1.664 -0.3831  0.1701 -0.1890
   96c3c     C5 1271   2.720   1.676   1.978 -0.1464 -0.3701  0.2485
   96c3c     C6 1272   2.825   1.470   1.932  0.6527 -1.2022  0.0309
   96c3c     H1 1273   2.575   1.525   1.834 -0.6562  1.3602 -0.8963
   96c3c     H2 1274   2.679   1.476   1.706  1.0252  0.1386  0.1466
   96c3c     H3 1275   2.921   1.746   1.834  0.0945 -2.5268  3.0916
   96c3c     H4 1276   2.937   1.606   1.737  2.4661  2.0467 -0.4876
   96c3c     H5 1277   2.579   1.760   1.741  0.8670  0.2265  0.5546
   96c3c     H6 1278   2.571   1.651   1.605 -1.3557 -1.3248  1.8277
   96c3c     H7 1279   2.800   1.832   1.654  0.0799 -0.1513 -2.6278
   96c3c     H8 1280   2.819   1.682   1.575  0.2651  1.0454 -0.3056
   96c3c     H9 1281   2.775   1.692   2.071 -2.8338  0.7180  1.7245
   96c3c    H10 1282   2.676   1.769   1.943  1.3705  0.0429 -0.6083
   96c3c    H11 1283   2.631   1.635   2.026  0.3520 -0.2516  1.3075
   96c3c    H12 1284   2.897   1.500   2.009 -0.5104  3.7521 -0.6340
   96c3c    H13 1285   2.749   1.423   1.995 -0.4739  1.2805  0.5701
   96c3c     C7 1286   2.875   1.354   1.839 -0.4997 -0.2451 -0.5050
   96c3c    H14 1287   2.960   1.385   1.779  0.1915  0.2225  0.6923
   96c3c    H15 1288   2.800   1.327   1.765 -1.8614  1.5666  0.1655
   96c3c     C8 1289   2.896   1.223   1.916 -0.0739  0.2260 -0.0578
   96c3c    H16 1290   2.911   1.138   1.850  0.3796  0.6426 -0.4942
   96c3c    H17 1291   2.808   1.213   1.980  0.0129 -2.1019 -0.2789
   96c3c    H18 1292   2.981   1.226   1.984  0.8394 -2.5046 -1.0063
   97c3c      N 1293   2.337   1.482   0.598  0.8237 -1.1764 -0.3281
   97c3c     C1 1294   2.233   1.463   0.696  0.4639  0.1614  0.8578
   97c3c     C2 1295   2.411   1.355   0.589  0.3665 -0.1205  0.2370
   97c3c     C3 1296   2.185   1.311   0.675 -0.4688  0.1241 -0.0038
   97c3c     C4 1297   2.297   1.252   0.582 -0.1680  0.3368  0.9524
   97c3c     C5 1298   2.277   1.510   0.468  0.3347  0.0264 -0.3209
   97c3c     C6 1299   2.424   1.600   0.626  0.2113 -0.3475  0.3606
   97c3c     H1 1300   2.147   1.529   0.689  0.8794  0.5896 -0.3478
   97c3c     H2 1301   2.264   1.471   0.800  1.6915  0.7205  0.4579
   97c3c     H3 1302   2.482   1.337   0.508 -1.2738  0.3850 -1.3338
   97c3c     H4 1303   2.480   1.341   0.673  0.9067 -1.2421 -0.3776
   97c3c     H5 1304   2.090   1.288   0.626 -0.0138  0.3048 -0.9902
   97c3c     H6 1305   2.191   1.265   0.773  1.9067  1.0102  0.2916
   97c3c     H7 1306   2.264   1.251   0.479  0.5058  0.7251  0.7295
   97c3c     H8 1307   2.318   1.150   0.616  0.7219  1.1910  3.0890
   97c3c     H9 1308   2.220   1.603   0.462  1.6235  0.7438 -1.9387
   97c3c    H10 1309   2.352   1.531   0.392  1.3479  1.7074  1.1130
   97c3c    H11 1310   2.216   1.428   0.430  0.0514 -0.2682  0.7449
   97c3c    H12 1311   2.501   1.590   0.550 -0.4310 -0.6921 -0.2546
   97c3c    H13 1312   2.368   1.692   0.610  3.0187  1.1949 -0.7464
   97c3c     C7 1313   2.483   1.614   0.771  0.5706 -0.1370  0.2225
   97c3c    H14 1314   2.551   1.537   0.807  3.2036  0.8947 -2.3724
   97c3c    H15 1315   2.399   1.621   0.840  0.6130  1.3900  0.1289
   97c3c     C8 1316   2.556   1.743   0.794  0.4831  0.3263 -0.3319
   97c3c    H16 1317   2.503   1.832   0.762 -2.4600 -1.1018  0.4528
   97c3c    H17 1318   2.657   1.726   0.755  0.9081  2.0691 -0.0185
   97c3c    H18 1319   2.569   1.765   0.900  1.0174 -0.0335 -0.3210
   98c3c      N 1320   1.308   1.111   0.566  0.5994  0.4171  0.2950
   98c3c     C1 1321   1.398   1.115   0.676 -0.2525  0.8106 -0.4817
   98c3c     C2 1322   1.223   1.237   0.575 -0.0780  0.2584  0.3121
   98c3c     C3 1323   1.421   1.257   0.719  0.2549 -0.6057 -0.7474
   98c3c     C4 1324   1.317   1.338   0.645 -0.1414 -0.2860 -1.2180
   98c3c     C5 1325   1.391   1.120   0.449  0.8885  0.3878  0.3440
   98c3c     C6 1326   1.234   0.978   0.561 -0.2683 -1.3225  0.2611
   98c3c     H1 1327   1.494   1.065   0.666 -2.2184 -3.2032 -0.2390
   98c3c     H2 1328   1.361   1.066   0.766 -0.8557  1.2763 -0.4742
   98c3c     H3 1329   1.185   1.262   0.476 -3.7695  0.5126  1.7007
   98c3c     H4 1330   1.147   1.216   0.650 -1.6085  0.5851 -1.1058
   98c3c     H5 1331   1.523   1.292   0.703  0.6586  0.0976  2.8366
   98c3c     H6 1332   1.411   1.277   0.826  0.8943 -0.7475 -0.6583
   98c3c     H7 1333   1.369   1.387   0.563  2.8857 -0.2600  0.6616
   98c3c     H8 1334   1.277   1.422   0.702  0.4816 -0.0947 -1.0618
   98c3c     H9 1335   1.465   1.040   0.448 -0.5162 -0.9299 -0.0961
   98c3c    H10 1336   1.335   1.134   0.357  0.3201  1.2012  0.7987
   98c3c    H11 1337   1.457   1.207   0.448 -0.0960  1.1633  1.3325
   98c3c    H12 1338   1.165   0.976   0.476  0.0386 -0.8695 -0.0012
   98c3c    H13 1339   1.301   0.894   0.541  0.9082 -0.0922 -1.0331
   98c3c     C7 1340   1.154   0.935   0.681 -0.3836 -0.1933 -0.3717
   98c3c    H14 1341   1.080   1.006   0.717 -1.1577 -0.7855 -0.7649
   98c3c    H15 1342   1.219   0.903   0.762  0.6660  1.1131 -0.6941
   98c3c     C8 1343   1.064   0.809   0.654  0.1042 -0.6095  0.1989
   98c3c    H16 1344   1.121   0.716   0.650  0.6162 -0.2722 -0.5484
   98c3c    H17 1345   1.008   0.819   0.560 -1.9150 -0.1727  1.4172
   98c3c    H18 1346   0.999   0.791   0.740  3.1334 -0.6880  2.5555
   99c3c      N 1347   1.299   1.954   1.668 -0.2638  0.8874  0.4909
   99c3c     C1 1348   1.167   1.982   1.612 -0.0115 -0.7178  0.0984
   99c3c     C2 1349   1.372   1.901   1.551 -0.4833  0.4166  0.0467
   99c3c     C3 1350   1.187   2.029   1.469  1.0432 -0.2225  0.2689
   99c3c     C4 1351   1.320   1.982   1.425  0.5314 -0.4131  0.2078
   99c3c     C5 1352   1.349   2.087   1.699 -0.2399  0.3800  0.0520
   99c3c     C6 1353   1.301   1.870   1.788  0.4331  0.7985  0.4479
   99c3c     H1 1354   1.113   2.056   1.671  1.3502  0.7864 -0.5235
   99c3c     H2 1355   1.106   1.892   1.601  1.9862 -1.9680 -0.8554
   99c3c     H3 1356   1.478   1.918   1.571 -0.3927 -0.7124  0.6173
   99c3c     H4 1357   1.355   1.794   1.536  0.7648  0.2442 -0.1917
   99c3c     H5 1358   1.178   2.137   1.455 -1.8172 -0.2816  1.4396
   99c3c     H6 1359   1.111   1.985   1.404 -0.0789  0.8817  0.8127
   99c3c     H7 1360   1.394   2.059   1.403 -2.2114  1.7524 -1.7623
   99c3c     H8 1361   1.296   1.927   1.334  0.5709 -0.4686  0.2314
   99c3c     H9 1362   1.289   2.146   1.769 -0.4925  0.7081 -0.4382
   99c3c    H10 1363   1.452   2.086   1.735  0.7956 -1.4131 -2.8392
   99c3c    H11 1364   1.347   2.152   1.612 -3.2470 -0.1816 -0.3548
   99c3c    H12 1365   1.407   1.851   1.804  0.5611  1.5284  0.4961
   99c3c    H13 1366   1.248   1.913   1.872 -1.7848  0.1841 -0.6084
   99c3c     C7 1367   1.238   1.723   1.775  0.1737  0.3950 -0.2522
   99c3c    H14 1368   1.302   1.656   1.717 -0.8432  1.7309 -3.0379
   99c3c    H15 1369   1.140   1.730   1.728  0.0305 -0.2893 -0.0656
   99c3c     C8 1370   1.235   1.652   1.905 -0.2575  0.0625 -0.0169
   99c3c    H16 1371   1.216   1.546   1.893 -0.2003  0.3662 -3.2846
   99c3c    H17 1372   1.162   1.695   1.974  2.8738  2.2615  2.0708
   99c3c    H18 1373   1.335   1.668   1.944 -0.4231 -0.1082  0.4747
  100c3c      N 1374   1.067   0.131   0.853 -0.3930 -0.0297  0.0028
  100c3c     C1 1375   0.989   0.161   0.733 -0.0560  0.2952 -0.3678
  100c3c     C2 1376   1.158   0.246   0.853 -0.2119  0.3932  0.2152
  100c3c     C3 1377   0.952   0.305   0.757 -0.5268  0.1355 -0.5162
  100c3c     C4 1378   1.078   0.370   0.817  0.1136 -0.0275  0.2482
  100c3c     C5 1379   0.987   0.128   0.979 -0.0254  0.2653  0.5635
  100c3c     C6 1380   1.135  -0.008   0.845 -0.5281 -0.7084 -0.3441
  100c3c     H1 1381   0.907   0.089   0.730 -1.6500  1.7563  3.9772
  100c3c     H2 1382   1.044   0.165   0.639  0.2661  0.3928 -0.1768
  100c3c     H3 1383   1.208   0.268   0.948 -0.6061 -0.8981  0.7452
  100c3c     H4 1384   1.228   0.223   0.774 -1.7834 -1.2221 -0.7390
  100c3c     H5 1385   0.860   0.319   0.812  0.8807  0.6384  1.7723
  100c3c     H6 1386   0.936   0.365   0.667  1.2970 -0.1694 -1.0752
  100c3c     H7 1387   1.058   0.438   0.900  1.4021  2.3411 -1.3203
  100c3c     H8 1388   1.132   0.433   0.746  0.7959  0.8632  1.5239
  100c3c     H9 1389   0.902   0.060   0.970  0.2443 -0.0045  0.0153
  100c3c    H10 1390   1.045   0.091   1.063 -0.0531 -0.0785  0.4298
  100c3c    H11 1391   0.959   0.229   1.010  0.1348  1.1824 -2.1671
  100c3c    H12 1392   1.191  -0.021   0.938  0.2220 -0.4475 -0.7550
  100c3c    H13 1393   1.060  -0.086   0.834  0.9040 -1.8619 -2.2560
  100c3c     C7 1394   1.231  -0.031   0.723 -0.0834 -0.3132  0.2285
  100c3c    H14 1395   1.319   0.031   0.741 -0.2998  0.4010 -1.0890
  100c3c    H15 1396   1.183  -0.005   0.629  0.9240  3.6735  0.7158
  100c3c     C8 1397   1.290  -0.175   0.707 -0.7799 -0.1410 -0.0673
  100c3c    H16 1398   1.366  -0.174   0.629 -1.7582  0.3448 -1.0214
  100c3c    H17 1399   1.213  -0.251   0.688 -2.7222  1.6517  0.4759
  100c3c    H18 1400   1.335  -0.194   0.804 -3.2943 -0.1532  1.1214
  101fsi     F1 1401   1.602   2.297   1.761 -0.3353 -0.0293 -0.2876
  101fsi     S1 1402   1.598   2.403   1.642 -0.3913 -0.1751  0.4532
  101fsi      N 1403   1.613   2.312   1.521  0.4134  0.4894  0.8296
  101fsi     O1 1404   1.467   2.461   1.656 -0.7006 -0.6193  0.3824
  101fsi     O2 1405   1.710   2.490   1.672  0.0454 -0.3634 -0.2461
  101fsi     S2 1406   1.724   2.300   1.410 -0.0862 -0.1150  0.1055
  101fsi     O3 1407   1.834   2.389   1.430 -0.2797 -0.7454  0.3007
  101fsi     O4 1408   1.670   2.283   1.280 -0.0772  0.1603  0.1983
  101fsi     F2 1409   1.796   2.156   1.446 -0.2438 -0.2569 -0.1894
  102fsi     F1 1410   1.331   0.701   0.355 -0.1305 -0.5332 -0.0070
  102fsi     S1 1411   1.468   0.757   0.310 -0.0502  0.4421 -0.1514
  102fsi      N 1412   1.537   0.650   0.227 -0.4319  0.5157 -0.0179
  102fsi     O1 1413   1.433   0.870   0.232 -0.3913 -0.9266  0.2507
  102fsi     O2 1414   1.534   0.790   0.432  0.2852  0.2061  0.1697
  102fsi     S2 1415   1.683   0.606   0.230 -0.0442 -0.1411 -0.1496
  102fsi     O3 1416   1.732   0.583   0.367  0.5811 -0.2633  0.7607
  102fsi     O4 1417   1.767   0.681   0.139  0.1367 -0.3386 -0.1695
  102fsi     F2 1418   1.676   0.460   0.178 -0.1780 -0.0003  0.0587
  103fsi     F1 1419   1.016   0.853   1.404  0.1219 -0.2205 -0.7390
  103fsi     S1 1420   1.031   0.984   1.489  0.0292  0.0527 -0.3798
  103fsi      N 1421   0.905   0.984   1.583  0.3060  0.0598  0.5259
  103fsi     O1 1422   1.159   0.956   1.552 -0.2653 -0.1614  0.5611
  103fsi     O2 1423   1.021   1.088   1.389  0.2978 -0.6675 -0.2493
  103fsi     S2 1424   0.753   1.029   1.562  0.0923  0.4629 -0.2165
  103fsi     O3 1425   0.665   0.954   1.645  0.1907  0.7019 -0.3339
  103fsi     O4 1426   0.712   1.048   1.427  0.2005 -0.0375 -0.5065
  103fsi     F2 1427   0.750   1.177   1.628  0.2285 -0.2061  0.3480
  104fsi     F1 1428   0.562   1.985   0.570  0.1311  0.1963  0.1970
  104fsi     S1 1429   0.560   1.946   0.420  0.0074 -0.4994 -0.3847
  104fsi      N 1430   0.416   1.881   0.415 -0.0811 -1.1685 -0.2218
  104fsi     O1 1431   0.580   2.066   0.350  0.0767  0.0610  0.2967
  104fsi     O2 1432   0.672   1.853   0.410 -0.5397 -0.5628 -0.2020
  104fsi     S2 1433   0.281   1.945   0.353  0.4069 -0.5768  0.1743
  104fsi     O3 1434   0.177   1.842   0.338 -0.6911  0.0149  0.4408
  104fsi     O4 1435   0.302   2.034   0.247 -0.7031 -0.3040 -0.0429
  104fsi     F2 1436   0.211   2.031   0.470  0.1582  0.3260 -0.3875
  105fsi     F1 1437   0.672   2.024   2.656  0.0146  0.3016 -0.0904
  105fsi     S1 1438   0.593   2.057   2.785  0.0626 -0.0857 -0.2662
  105fsi      N 1439   0.486   1.945   2.789 -0.0663 -0.2695 -0.0135
  105fsi     O1 1440   0.686   2.045   2.891 -0.4271  0.1526 -0.0344
  105fsi     O2 1441   0.546   2.189   2.754 -0.4712 -0.3658  0.0722
  105fsi     S2 1442   0.458   1.834   2.900 -0.4345  0.0277 -0.2877
  105fsi     O3 1443   0.331   1.763   2.880 -0.4721  0.6992  0.0691
  105fsi     O4 1444   0.485   1.882   3.032  0.1048  0.2655 -0.0894
  105fsi     F2 1445   0.563   1.725   2.876  0.1370 -0.1147  0.4179
  106fsi     F1 1446   0.314   2.148   2.083 -0.5767 -0.0916 -0.1101
  106fsi     S1 1447   0.418   2.101   1.975 -0.1754  0.0236 -0.4812
  106fsi      N 1448   0.429   2.218   1.868  0.3275  0.1238 -0.0615
  106fsi     O1 1449   0.537   2.079   2.054 -0.3765 -0.0692  0.2553
  106fsi     O2 1450   0.354   1.985   1.922 -0.6678  0.1975  0.5081
  106fsi     S2 1451   0.511   2.350   1.878 -0.0508 -0.4233  0.0773
  106fsi     O3 1452   0.566   2.402   1.752  0.2731 -0.4887 -0.6332
  106fsi     O4 1453   0.602   2.354   1.992  0.2269  0.2591 -0.2016
  106fsi     F2 1454   0.410   2.466   1.912 -0.4918 -0.1508  0.0446
  107fsi     F1 1455   1.684   2.589   0.808 -0.2689 -0.1333 -0.2757
  107fsi     S1 1456   1.796   2.504   0.880 -0.3508 -0.2237 -0.0362
  107fsi      N 1457   1.905   2.485   0.769 -0.1889 -0.0651  0.1345
  107fsi     O1 1458   1.832   2.589   0.989 -0.6796 -0.0464  0.3486
  107fsi     O2 1459   1.723   2.388   0.918 -0.4829 -0.3445 -0.2046
  107fsi     S2 1460   2.039   2.569   0.740 -0.0443  0.0242 -0.3611
  107fsi     O3 1461   2.052   2.696   0.799  0.1990  0.1040 -0.6039
  107fsi     O4 1462   2.081   2.578   0.601 -0.5504 -0.4011  0.0252
  107fsi     F2 1463   2.147   2.486   0.818  0.2691  0.1100  0.2464
  108fsi     F1 1464   2.771   0.329   1.500 -0.4291 -0.5338  0.4076
  108fsi     S1 1465   2.784   0.404   1.637 -0.0014  0.1090  0.1641
  108fsi      N 1466   2.663   0.346   1.718  0.5705 -0.4729 -0.7862
  108fsi     O1 1467   2.910   0.365   1.681 -0.8284 -0.2780 -0.3956
  108fsi     O2 1468   2.755   0.539   1.596 -0.0673  0.2997  0.1267
  108fsi     S2 1469   2.656   0.225   1.819 -0.1796 -0.2585  0.5089
  108fsi     O3 1470   2.766   0.136   1.822  0.0525 -0.6833 -0.4140
  108fsi     O4 1471   2.526   0.170   1.819 -0.0492  0.0118  0.4607
  108fsi     F2 1472   2.668   0.301   1.956 -0.0509 -0.2281 -0.3995
  109fsi     F1 1473   2.463   2.163   1.919 -0.2600  0.2947  0.4298
  109fsi     S1 1474   2.501   2.031   1.835  0.3005  0.1508 -0.1154
  109fsi      N 1475   2.454   1.916   1.933 -0.2282  0.1136  0.1326
  109fsi     O1 1476   2.431   2.054   1.709 -0.3063  0.0932  0.4261
  109fsi     O2 1477   2.643   2.045   1.832  0.6777 -0.0122  0.2736
  109fsi     S2 1478   2.311   1.856   1.937  0.1476 -0.1469  0.0043
  109fsi     O3 1479   2.239   1.866   1.809 -0.4392 -0.5685 -0.3113
  109fsi     O4 1480   2.241   1.892   2.059  0.0486 -0.8133 -0.1954
  109fsi     F2 1481   2.349   1.701   1.956  0.2087 -0.0318 -0.1892
  110fsi     F1 1482   0.429   2.815   0.553 -0.0203  0.0923 -0.0900
  110fsi     S1 1483   0.456   2.700   0.655  0.0822  0.0665 -0.1962
  110fsi      N 1484   0.596   2.728   0.713 -0.1385  0.2521 -0.6868
  110fsi     O1 1485   0.356   2.709   0.758 -0.5102  0.2446 -0.4559
  110fsi     O2 1486   0.463   2.584   0.569 -0.5350  0.1925  0.2490
  110fsi     S2 1487   0.654   2.821   0.829  0.1132  0.1925 -0.1226
  110fsi     O3 1488   0.579   2.944   0.840  0.0934  0.3696 -0.1078
  110fsi     O4 1489   0.798   2.816   0.834  0.0543  0.0554 -0.0231
  110fsi     F2 1490   0.604   2.756   0.968 -0.5030 -0.5218 -0.2103
  111fsi     F1 1491   2.770   0.854   0.823 -0.1163  0.2289 -0.1797
  111fsi     S1 1492   2.904   0.937   0.816 -0.3660 -0.0744  0.2370
  111fsi      N 1493   2.974   0.883   0.949 -0.4725 -0.8885 -0.4780
  111fsi     O1 1494   2.954   0.888   0.688  0.0082 -0.2713  0.3352
  111fsi     O2 1495   2.861   1.072   0.813 -0.5375  0.0175  0.2133
  111fsi     S2 1496   2.986   0.953   1.092  0.0034 -0.1436 -0.4402
  111fsi     O3 1497   2.967   0.865   1.201  0.1700 -0.0284 -0.3505
  111fsi     O4 1498   2.918   1.076   1.101  0.4759 -0.0862 -0.0837
  111fsi     F2 1499   3.134   0.995   1.102  0.1826 -0.0429 -0.0303
  112fsi     F1 1500   1.924   1.373   0.916 -0.3402 -0.0936 -0.7275
  112fsi     S1 1501   1.890   1.320   1.058  0.3070  0.4577  0.2183
  112fsi      N 1502   1.749   1.253   1.030  0.6155 -0.1458 -0.2322
  112fsi     O1 1503   1.994   1.220   1.070 -0.0109 -0.1266 -0.1515
  112fsi     O2 1504   1.894   1.435   1.141  0.0823  0.0509  0.3849
  112fsi     S2 1505   1.682   1.116   1.073 -0.3308  0.0666 -0.4168
  112fsi     O3 1506   1.775   1.007   1.085 -0.2635 -0.2392  0.9456
  112fsi     O4 1507   1.563   1.093   0.994  0.2237 -0.0594  0.1510
  112fsi     F2 1508   1.641   1.142   1.227  0.1411 -0.4293  0.0450
  113fsi     F1 1509   1.657   0.238   1.002  0.3839  0.3445 -0.0534
  113fsi     S1 1510   1.502   0.233   1.005  0.6792 -0.1721 -0.3215
  113fsi      N 1511   1.462   0.092   1.059  0.7061  0.7963 -0.1611
  113fsi     O1 1512   1.468   0.340   1.095  0.0221  1.2080  0.6998
  113fsi     O2 1513   1.461   0.256   0.873 -0.1023 -0.2517 -0.0158
  113fsi     S2 1514   1.511  -0.045   0.992 -0.2946  0.2402  0.0379
  113fsi     O3 1515   1.557  -0.043   0.855 -0.1765 -0.1569  0.1130
  113fsi     O4 1516   1.418  -0.146   1.024  0.2176 -0.3152 -0.1707
  113fsi     F2 1517   1.638  -0.085   1.079  0.3243 -0.4768  0.2290
  114fsi     F1 1518   0.462   1.356   0.896 -0.2235  0.4167  0.1578
  114fsi     S1 1519   0.605   1.301   0.912 -0.3064  0.0381 -0.4979
  114fsi      N 1520   0.611   1.190   0.800  0.4491 -0.3093  0.1098
  114fsi     O1 1521   0.702   1.404   0.888  0.1194  0.1120  0.5553
  114fsi     O2 1522   0.609   1.236   1.047  0.3009  0.1421 -0.0101
  114fsi     S2 1523   0.602   1.203   0.642 -0.2133  0.5659 -0.1385
  114fsi     O3 1524   0.634   1.336   0.591  0.0631 -0.3937  0.1883
  114fsi     O4 1525   0.494   1.128   0.589 -0.0578  0.1755  0.6615
  114fsi     F2 1526   0.737   1.128   0.606 -0.1689  0.3814 -0.0472
  115fsi     F1 1527   1.691   2.826   0.353  0.1071  0.2885  0.0383
  115fsi     S1 1528   1.736   2.927   0.462  0.2679  0.0555  0.4000
  115fsi      N 1529   1.719   3.071   0.399  0.4372  0.2572  0.2141
  115fsi     O1 1530   1.641   2.909   0.572 -0.1246  0.3527 -0.1200
  115fsi     O2 1531   1.869   2.891   0.491  0.5175  0.5650  0.2896
  115fsi     S2 1532   1.821   3.154   0.322 -0.4270  0.3095  0.3966
  115fsi     O3 1533   1.941   3.090   0.282  0.0991  0.7204 -0.0945
  115fsi     O4 1534   1.841   3.281   0.383  0.0463 -0.1718  0.2238
  115fsi     F2 1535   1.741   3.169   0.186 -0.5076 -0.2646 -0.1135
  116fsi     F1 1536   2.232   2.274   0.126 -0.1592  0.2475 -0.1418
  116fsi     S1 1537   2.263   2.431   0.136  0.0976 -0.2444  0.4185
  116fsi      N 1538   2.417   2.427   0.161 -0.2306 -0.1558 -0.1206
  116fsi     O1 1539   2.223   2.489   0.007 -0.7294  0.1327  0.0125
  116fsi     O2 1540   2.202   2.476   0.255  0.4966  0.1945 -0.6679
  116fsi     S2 1541   2.537   2.495   0.080  0.5351 -0.4171 -0.3820
  116fsi     O3 1542   2.624   2.568   0.168 -0.2105  0.4061  0.1380
  116fsi     O4 1543   2.500   2.555  -0.042 -0.1386 -0.0825  0.0187
  116fsi     F2 1544   2.625   2.373   0.041 -0.0993 -0.5970 -0.1913
  117fsi     F1 1545   1.944   1.105   0.577  0.4054  0.0759 -0.4747
  117fsi     S1 1546   1.846   1.064   0.688  0.2875  0.6641 -0.0871
  117fsi      N 1547   1.817   0.912   0.646  0.4402  0.0234 -0.0508
  117fsi     O1 1548   1.927   1.077   0.807  0.0294 -0.0886 -0.3065
  117fsi     O2 1549   1.735   1.148   0.663 -0.3560 -0.1041  0.2348
  117fsi     S2 1550   1.866   0.782   0.722  0.4934  0.1938 -0.4171
  117fsi     O3 1551   1.813   0.665   0.657  0.1127  0.2693 -0.0227
  117fsi     O4 1552   1.853   0.787   0.863 -0.5132  0.7359  0.1262
  117fsi     F2 1553   2.017   0.782   0.689  0.0418  0.2917  0.3141
  118fsi     F1 1554   1.769   0.675   2.666 -0.0673  0.2364  0.2675
  118fsi     S1 1555   1.882   0.764   2.720 -0.2713  0.0257  0.3668
  118fsi      N 1556   2.006   0.674   2.688  0.4621  0.4342  0.0192
  118fsi     O1 1557   1.869   0.882   2.643 -0.3819  0.4432  0.0302
  118fsi     O2 1558   1.863   0.773   2.860  0.1003 -0.6496 -0.7297
  118fsi     S2 1559   2.114   0.687   2.579 -0.2420 -0.4221  0.2368
  118fsi     O3 1560   2.077   0.746   2.456  0.0640 -0.7558  0.6474
  118fsi     O4 1561   2.189   0.570   2.575 -0.2194  0.1307 -0.3572
  118fsi     F2 1562   2.208   0.793   2.634  0.5049  0.1196 -0.0954
  119fsi     F1 1563   2.071   1.004   0.325  0.1616 -0.3844 -0.0077
  119fsi     S1 1564   1.979   0.911   0.244  0.4781 -0.2409  0.2892
  119fsi      N 1565   1.881   1.019   0.179  0.2241  0.3426  0.1157
  119fsi     O1 1566   2.059   0.842   0.146  0.0954  0.2277  0.2088
  119fsi     O2 1567   1.924   0.829   0.349  0.8003  0.6573 -0.2573
  119fsi     S2 1568   1.759   1.099   0.252 -0.0127 -0.2885  0.2158
  119fsi     O3 1569   1.790   1.240   0.256 -0.0873  0.2745 -0.2032
  119fsi     O4 1570   1.704   1.034   0.371  0.0184 -0.2565 -0.0301
  119fsi     F2 1571   1.642   1.090   0.152  0.1389 -0.1538  0.1721
  120fsi     F1 1572   0.291   0.682   2.227  0.5031  0.6650  0.3047
  120fsi     S1 1573   0.272   0.589   2.355  0.3710  0.0889  0.0319
  120fsi      N 1574   0.337   0.456   2.306  0.1751 -0.2238  0.4108
  120fsi     O1 1575   0.341   0.658   2.463 -0.2399  0.0474  0.4300
  120fsi     O2 1576   0.132   0.573   2.368 -0.9951 -0.4461 -0.9695
  120fsi     S2 1577   0.470   0.385   2.364  0.0076 -0.1615 -0.2690
  120fsi     O3 1578   0.567   0.476   2.417  0.0200 -0.4074  0.0691
  120fsi     O4 1579   0.523   0.282   2.279  0.0884  0.5269  0.3256
  120fsi     F2 1580   0.416   0.301   2.485  0.5381  0.2846  0.0632
  121fsi     F1 1581   2.450   1.200   0.885  0.3367 -0.0412  0.1519
  121fsi     S1 1582   2.552   1.267   0.985  0.4322 -0.2743  0.1297
  121fsi      N 1583   2.465   1.388   1.042 -0.1799 -0.3439  0.0939
  121fsi     O1 1584   2.589   1.157   1.074 -0.6574 -0.0924  0.4662
  121fsi     O2 1585   2.652   1.312   0.896 -0.2929 -0.2737 -0.3932
  121fsi     S2 1586   2.347   1.374   1.138  0.1815  0.1051 -0.0688
  121fsi     O3 1587   2.326   1.244   1.193 -0.4455 -0.1327  0.3664
  121fsi     O4 1588   2.234   1.446   1.097 -0.1909  0.3322  0.1321
  121fsi     F2 1589   2.397   1.461   1.255 -0.8066 -0.4742 -0.2701
  122fsi     F1 1590   2.938   0.040   0.040  0.2273  0.2661 -0.3017
  122fsi     S1 1591   3.011   0.113   0.165 -0.1492  0.3293  0.0436
  122fsi      N 1592   3.150   0.043   0.187 -0.0595  0.3891  0.2819
  122fsi     O1 1593   3.017   0.248   0.131  0.0892  0.1269  0.2026
  122fsi     O2 1594   2.924   0.083   0.278 -0.0283 -0.0068  0.0945
  122fsi     S2 1595   3.289   0.079   0.122 -0.2880  0.1596  0.0682
  122fsi     O3 1596   3.288   0.172   0.015 -0.3421  0.7529  0.3453
  122fsi     O4 1597   3.368  -0.042   0.103  0.2398  0.1756 -0.5365
  122fsi     F2 1598   3.361   0.152   0.235 -0.2444  0.2782  0.2481
  123fsi     F1 1599   2.464   0.497   1.451  1.3104 -0.2597  0.4062
  123fsi     S1 1600   2.359   0.484   1.563 -0.0218 -0.2829 -0.4425
  123fsi      N 1601   2.426   0.542   1.691 -0.3089  0.0852 -0.2017
  123fsi     O1 1602   2.245   0.553   1.506  0.8795 -0.2626 -0.0284
  123fsi     O2 1603   2.341   0.339   1.571  0.0914 -0.0843  0.3406
  123fsi     S2 1604   2.380   0.661   1.785  0.0561 -0.0528  0.2273
  123fsi     O3 1605   2.252   0.720   1.746 -0.2601 -0.2283  0.0055
  123fsi     O4 1606   2.488   0.747   1.818  0.4355  0.2070  0.6195
  123fsi     F2 1607   2.342   0.589   1.914 -0.2219  0.0309  0.4523
  124fsi     F1 1608   1.278   0.635   1.529 -0.0693  0.2702 -0.1342
  124fsi     S1 1609   1.347   0.516   1.452  0.2979  0.1646 -0.0973
  124fsi      N 1610   1.248   0.499   1.324  0.1556  0.2675  0.0659
  124fsi     O1 1611   1.475   0.574   1.416 -0.1038  0.0278  0.0983
  124fsi     O2 1612   1.343   0.408   1.543  0.7708 -0.1339 -0.1588
  124fsi     S2 1613   1.121   0.416   1.301  0.1815 -0.2560 -0.2614
  124fsi     O3 1614   1.061   0.459   1.178 -0.1391  0.4498 -0.0700
  124fsi     O4 1615   1.044   0.397   1.422 -0.1731 -0.3880 -0.1449
  124fsi     F2 1616   1.179   0.274   1.258  0.3451  0.5611 -0.2229
  125fsi     F1 1617   0.201   1.195   2.465  0.3527 -0.0342 -0.0929
  125fsi     S1 1618   0.247   1.046   2.448  0.1152  0.1906 -0.4648
  125fsi      N 1619   0.137   0.984   2.346  0.6822 -0.5101 -0.1837
  125fsi     O1 1620   0.379   1.066   2.393  0.4437  0.3076 -0.1048
  125fsi     O2 1621   0.249   0.991   2.582 -0.2877  0.4450  0.0695
  125fsi     S2 1622  -0.018   0.996   2.360 -0.1842  0.4254  0.1507
  125fsi     O3 1623  -0.071   1.077   2.463  0.4037 -0.0738 -0.2204
  125fsi     O4 1624  -0.074   0.862   2.351  0.1753  0.1699 -0.0820
  125fsi     F2 1625  -0.063   1.065   2.226 -0.1275 -0.3390  0.8579
  126fsi     F1 1626   0.708   2.927   0.345 -0.0802  0.3193  0.3812
  126fsi     S1 1627   0.800   3.001   0.452  0.2147  0.2186  0.0283
  126fsi      N 1628   0.700   3.058   0.558 -0.6780  0.2059 -0.0965
  126fsi     O1 1629   0.865   2.889   0.511  0.2980  0.0113 -0.2291
  126fsi     O2 1630   0.868   3.097   0.373  0.3739  0.3511  0.0272
  126fsi     S2 1631   0.618   3.194   0.550  0.1551 -0.2135  0.1326
  126fsi     O3 1632   0.660   3.291   0.452 -0.4180 -0.4302 -0.8290
  126fsi     O4 1633   0.588   3.246   0.683  0.2726 -0.1140 -0.2090
  126fsi     F2 1634   0.472   3.146   0.505  0.9217  0.3236  0.0493
  127fsi     F1 1635   2.284   2.741   1.290  1.0984 -0.6833 -0.7138
  127fsi     S1 1636   2.161   2.683   1.208 -0.1037  0.2001  0.0808
  127fsi      N 1637   2.067   2.632   1.320  0.1105 -0.3988 -0.7375
  127fsi     O1 1638   2.110   2.793   1.127  0.2369 -0.2916  0.1678
  127fsi     O2 1639   2.217   2.580   1.130 -0.0175  0.1858  0.0068
  127fsi     S2 1640   1.975   2.714   1.416 -0.0674 -0.1428 -0.1173
  127fsi     O3 1641   1.982   2.856   1.403  0.2893  0.4473 -0.2073
  127fsi     O4 1642   1.960   2.658   1.544  0.7190 -0.4997  0.0156
  127fsi     F2 1643   1.834   2.692   1.336 -0.3295  0.0319 -0.3688
  128fsi     F1 1644   0.837   1.831   2.269  0.0332  0.1342  0.1556
  128fsi     S1 1645   0.906   1.977   2.256  0.1004 -0.0863 -0.1727
  128fsi      N 1646   0.972   1.966   2.114 -0.3168  0.2737  0.0132
  128fsi     O1 1647   0.799   2.067   2.274 -0.3143 -0.0665 -0.2437
  128fsi     O2 1648   1.013   1.973   2.354  0.2881  0.1499 -0.4608
  128fsi     S2 1649   0.941   2.050   1.987 -0.0351 -0.0348  0.4873
  128fsi     O3 1650   0.834   2.142   2.001  0.0488  0.4744 -0.5202
  128fsi     O4 1651   0.946   1.981   1.861 -0.6535  0.2514 -0.8973
  128fsi     F2 1652   1.071   2.138   1.987  0.0079 -0.0324  0.2495
  129fsi     F1 1653   1.485   2.358   2.371  0.0052  0.6593 -0.2234
  129fsi     S1 1654   1.332   2.317   2.335  0.1621 -0.1404  0.2768
  129fsi      N 1655   1.358   2.258   2.193 -0.3573 -0.1353  0.4340
  129fsi     O1 1656   1.295   2.220   2.434  1.0527  0.7384 -0.7910
  129fsi     O2 1657   1.257   2.441   2.339 -0.5858 -0.6487 -0.0275
  129fsi     S2 1658   1.448   2.145   2.131 -0.3193 -0.1458 -0.0291
  129fsi     O3 1659   1.398   2.099   2.004 -0.3129 -0.0036 -0.1365
  129fsi     O4 1660   1.488   2.055   2.235  0.3361 -0.4636 -0.3814
  129fsi     F2 1661   1.581   2.227   2.094 -0.0575  0.7376 -0.4040
  130fsi     F1 1662   2.090   0.159   2.076  0.1771  0.1746 -0.1473
  130fsi     S1 1663   2.168   0.032   2.040 -0.0564 -0.1522  0.1970
  130fsi      N 1664   2.082  -0.038   1.929  0.4270 -0.3564 -0.5620
  130fsi     O1 1665   2.287   0.082   1.987 -0.4032 -0.8295 -0.5339
  130fsi     O2 1666   2.167  -0.042   2.167 -0.1275  0.1149  0.3793
  130fsi     S2 1667   2.094  -0.021   1.775  0.0858 -0.1811  0.1181
  130fsi     O3 1668   2.190   0.083   1.728  0.2879 -0.3852 -0.3450
  130fsi     O4 1669   1.958  -0.017   1.716  0.2547 -0.1336  0.3501
  130fsi     F2 1670   2.149  -0.158   1.729  0.5105 -0.0739  0.5057
  131fsi     F1 1671   2.581   0.698   2.361  0.2044 -0.2263  0.1928
  131fsi     S1 1672   2.599   0.536   2.381  0.0891  0.1684  0.2294
  131fsi      N 1673   2.546   0.478   2.244 -0.0815  0.2023 -0.1245
  131fsi     O1 1674   2.741   0.533   2.407 -0.2106 -0.5475 -0.5911
  131fsi     O2 1675   2.512   0.518   2.496  0.3285 -0.0259 -0.3139
  131fsi     S2 1676   2.400   0.416   2.221  0.2339 -0.0265  0.0629
  131fsi     O3 1677   2.345   0.341   2.323 -0.6669  0.0970 -0.1021
  131fsi     O4 1678   2.391   0.373   2.086  1.0262 -0.3505  0.4913
  131fsi     F2 1679   2.309   0.550   2.221 -0.2625  0.3478  0.2393
  132fsi     F1 1680   0.554   2.427   0.797  0.6766  0.1866  0.8327
  132fsi     S1 1681   0.643   2.307   0.757 -0.2467  0.2715  0.0642
  132fsi      N 1682   0.780   2.371   0.713 -0.1978 -0.4374 -0.6794
  132fsi     O1 1683   0.644   2.241   0.886  0.2637 -0.7728 -0.2376
  132fsi     O2 1684   0.571   2.245   0.646 -0.3045 -0.4848  0.3230
  132fsi     S2 1685   0.896   2.424   0.800  0.1466 -0.1292  0.0124
  132fsi     O3 1686   0.850   2.437   0.938 -0.3053 -0.5037  0.0667
  132fsi     O4 1687   0.966   2.538   0.742 -0.2482 -0.5743  0.0051
  132fsi     F2 1688   1.004   2.303   0.794 -0.0012 -1.1141  0.4893
  133fsi     F1 1689   1.751   2.459   2.490 -0.6597 -0.7323 -0.1833
  133fsi     S1 1690   1.770   2.572   2.599  0.4036 -0.2749 -0.0616
  133fsi      N 1691   1.927   2.591   2.607  0.1550 -0.3748 -0.2493
  133fsi     O1 1692   1.697   2.691   2.559 -0.0485 -0.3234  0.2059
  133fsi     O2 1693   1.718   2.497   2.712  0.6191 -0.3486 -0.8342
  133fsi     S2 1694   2.041   2.509   2.681 -0.1525  0.1487 -0.0094
  133fsi     O3 1695   1.995   2.440   2.795 -0.3339 -0.1646  0.3154
  133fsi     O4 1696   2.161   2.587   2.692 -0.5703  0.4218 -0.2616
  133fsi     F2 1697   2.071   2.401   2.584  0.1665  0.2089 -0.4660
  134fsi     F1 1698   0.508   2.561   2.320 -0.0009 -0.2098 -0.2301
  134fsi     S1 1699   0.571   2.444   2.401  0.0759  0.4705 -0.3364
  134fsi      N 1700   0.726   2.497   2.413 -0.3139  0.6071  0.2862
  134fsi     O1 1701   0.491   2.446   2.523 -0.4909  0.4966 -0.0043
  134fsi     O2 1702   0.555   2.332   2.313  0.0181  0.3884 -0.1781
  134fsi     S2 1703   0.848   2.484   2.316 -0.0190 -0.3942  0.3012
  134fsi     O3 1704   0.845   2.355   2.240 -0.2563 -0.2622 -0.1079
  134fsi     O4 1705   0.973   2.522   2.371 -0.1899  0.8192 -0.4929
  134fsi     F2 1706   0.822   2.591   2.208 -0.1960  0.0879 -0.0522
  135fsi     F1 1707   0.059   2.600   2.653  0.1786 -0.3445 -0.1375
  135fsi     S1 1708   0.106   2.477   2.738 -0.2097 -0.1498  0.2962
  135fsi      N 1709   0.055   2.354   2.647 -0.3585 -0.0925 -1.0067
  135fsi     O1 1710   0.249   2.498   2.746  0.3589  0.4856 -0.7573
  135fsi     O2 1711   0.027   2.492   2.856  0.6671 -0.0323  0.1401
  135fsi     S2 1712   0.142   2.267   2.552  0.3852  0.1757  0.3943
  135fsi     O3 1713   0.061   2.186   2.465  0.5528 -0.2033  0.5344
  135fsi     O4 1714   0.262   2.212   2.607 -0.0422  0.3708 -0.0655
  135fsi     F2 1715   0.197   2.370   2.453 -0.2601 -0.2843 -0.0575
  136fsi     F1 1716   2.290   0.446   0.028 -0.3966 -0.3478  0.1463
  136fsi     S1 1717   2.320   0.580  -0.057 -0.0942  0.1097 -0.2175
  136fsi      N 1718   2.435   0.652   0.019 -0.2871  0.4416 -0.0458
  136fsi     O1 1719   2.363   0.531  -0.182 -0.3966  0.4186 -0.3278
  136fsi     O2 1720   2.193   0.647  -0.049 -0.4427  0.0609  0.2416
  136fsi     S2 1721   2.456   0.801   0.057  0.1393  0.2903 -0.2737
  136fsi     O3 1722   2.380   0.900  -0.021  0.5761  0.0358  0.1663
  136fsi     O4 1723   2.593   0.830   0.092  0.0180  0.3567  0.2559
  136fsi     F2 1724   2.391   0.794   0.197 -0.0339 -0.6492  0.2246
  137fsi     F1 1725   2.064   0.363   2.812  0.4512  0.0084  0.2482
  137fsi     S1 1726   1.933   0.340   2.900 -0.1095 -0.2789 -0.0717
  137fsi      N 1727   1.838   0.267   2.798  0.3291  0.1812 -0.2476
  137fsi     O1 1728   1.975   0.269   3.017  0.5836  0.2315  0.6473
  137fsi     O2 1729   1.897   0.476   2.928 -0.1022  0.5466 -0.1328
  137fsi     S2 1730   1.806   0.112   2.785  0.1082 -0.2663 -0.0286
  137fsi     O3 1731   1.901   0.031   2.855  0.6177 -0.2166  0.3539
  137fsi     O4 1732   1.769   0.064   2.652  0.3119 -0.6228  0.3754
  137fsi     F2 1733   1.676   0.103   2.865  0.8964 -0.2684  0.2295
  138fsi     F1 1734   0.581   0.421   1.426  0.2490 -0.0670  0.6740
  138fsi     S1 1735   0.652   0.322   1.332  0.3022  0.2628  0.2781
  138fsi      N 1736   0.717   0.408   1.218 -0.1328 -0.0768 -0.0992
  138fsi     O1 1737   0.750   0.261   1.412 -0.4385  0.5060 -0.3708
  138fsi     O2 1738   0.549   0.233   1.286 -0.5598 -0.4403 -0.2217
  138fsi     S2 1739   0.706   0.411   1.062  0.3664  0.0752  0.1753
  138fsi     O3 1740   0.674   0.283   1.009  0.0268  0.5023 -0.3446
  138fsi     O4 1741   0.808   0.489   1.005 -0.0490  0.2224  0.0623
  138fsi     F2 1742   0.576   0.501   1.038  0.3062  0.2351  0.3211
  139fsi     F1 1743   1.077   1.558   2.981  0.2109 -0.7225  0.2827
  139fsi     S1 1744   1.025   1.588   3.122 -0.3959 -0.0831  0.3600
  139fsi      N 1745   0.906   1.685   3.102 -0.3838  0.2287  0.6279
  139fsi     O1 1746   0.987   1.458   3.180 -0.9522 -0.0268 -0.2712
  139fsi     O2 1747   1.130   1.656   3.184 -0.1220 -0.2179 -0.0323
  139fsi     S2 1748   0.904   1.834   3.066 -0.4032 -0.3870  0.1644
  139fsi     O3 1749   1.024   1.912   3.097  0.1776  0.7298  0.1615
  139fsi     O4 1750   0.778   1.894   3.109 -1.2043  0.4533  0.0343
  139fsi     F2 1751   0.899   1.842   2.906 -0.0386 -0.5510  0.3592
  140fsi     F1 1752   0.759   1.571   2.249 -0.0170 -0.0257 -0.3932
  140fsi     S1 1753   0.800   1.470   2.362  0.1937 -0.2665  0.0467
  140fsi      N 1754   0.753   1.554   2.487  0.1931  0.3096 -0.5536
  140fsi     O1 1755   0.712   1.357   2.334 -0.7640  0.1998 -0.2943
  140fsi     O2 1756   0.940   1.451   2.337 -0.0558 -0.3353  0.2985
  140fsi     S2 1757   0.834   1.637   2.598  0.4403  0.5391  0.2967
  140fsi     O3 1758   0.839   1.772   2.572 -0.3308  0.1448  0.5188
  140fsi     O4 1759   0.959   1.576   2.632  0.5112 -0.7509  0.1932
  140fsi     F2 1760   0.761   1.631   2.742 -0.0997  1.1170  0.1830
  141fsi     F1 1761   2.489   1.664   2.954 -0.2021 -0.0547  0.3174
  141fsi     S1 1762   2.380   1.557   2.930  0.1895 -0.1507  0.5657
  141fsi      N 1763   2.296   1.567   3.063 -0.1605  1.1876 -0.4131
  141fsi     O1 1764   2.312   1.597   2.814 -0.3959  0.5625  0.4710
  141fsi     O2 1765   2.456   1.434   2.924  0.2070  0.6464  0.3569
  141fsi     S2 1766   2.160   1.635   3.097  0.1676  0.3901  0.2977
  141fsi     O3 1767   2.073   1.543   3.168 -0.1684  0.3254 -0.1910
  141fsi     O4 1768   2.103   1.735   3.010  0.3763 -0.2510  0.0623
  141fsi     F2 1769   2.209   1.722   3.221 -0.5023  0.4542  0.3660
  142fsi     F1 1770   1.022   0.627   2.315 -0.2554 -0.0054  0.0133
  142fsi     S1 1771   1.014   0.475   2.348  0.1428 -0.4239  0.0764
  142fsi      N 1772   1.048   0.490   2.496 -0.5144  0.1469 -0.4843
  142fsi     O1 1773   0.878   0.440   2.315  0.1341 -0.1032 -0.7216
  142fsi     O2 1774   1.116   0.418   2.265  0.1824 -0.0527 -0.4340
  142fsi     S2 1775   0.967   0.485   2.631  0.1462 -0.0824 -0.0741
  142fsi     O3 1776   1.022   0.395   2.728 -0.5357 -0.3374  0.4843
  142fsi     O4 1777   0.823   0.495   2.618  0.2116 -0.4166  0.0108
  142fsi     F2 1778   1.006   0.625   2.700 -0.3936 -0.2020  0.1808
  143fsi     F1 1779   1.446   2.603   2.778 -0.1984  0.0922 -0.0433
  143fsi     S1 1780   1.381   2.723   2.697  0.2248  0.4040  0.0856
  143fsi      N 1781   1.248   2.740   2.778  0.2441  0.2278 -0.0071
  143fsi     O1 1782   1.466   2.832   2.726  0.0173  0.3120 -0.4223
  143fsi     O2 1783   1.372   2.676   2.564  0.1532  0.3005  0.2374
  143fsi     S2 1784   1.098   2.709   2.741 -0.5566  0.0427 -0.1530
  143fsi     O3 1785   1.016   2.671   2.854  0.2131 -0.0433  0.3143
  143fsi     O4 1786   1.080   2.632   2.618 -0.5851  0.1656  0.3920
  143fsi     F2 1787   1.036   2.848   2.703 -0.4579 -0.2635 -0.7719
  144fsi     F1 1788   0.156   1.251   2.182 -0.1774  0.2495 -0.1926
  144fsi     S1 1789   0.292   1.287   2.102 -0.0885 -0.3408  0.3695
  144fsi      N 1790   0.317   1.163   2.013  0.4644  0.0713  0.1830
  144fsi     O1 1791   0.245   1.403   2.033  0.1940 -0.0220  0.5707
  144fsi     O2 1792   0.389   1.307   2.206 -0.0376  0.4839  0.3817
  144fsi     S2 1793   0.422   1.043   2.036  0.4278 -0.2534 -0.0779
  144fsi     O3 1794   0.541   1.080   2.116 -0.5001  0.7378 -0.3089
  144fsi     O4 1795   0.441   0.956   1.922  0.3094  0.3799 -0.2622
  144fsi     F2 1796   0.345   0.949   2.132 -0.6067  0.4465  0.0722
  145fsi     F1 1797   2.504   1.438   2.105 -0.4783  0.1101  0.4006
  145fsi     S1 1798   2.371   1.367   2.062 -0.0230  0.1559 -0.3306
  145fsi      N 1799   2.358   1.391   1.905 -0.5428  0.0812 -0.8316
  145fsi     O1 1800   2.400   1.228   2.090  0.1067 -0.4128  0.0002
  145fsi     O2 1801   2.268   1.432   2.131 -0.4172  0.5877 -0.5207
  145fsi     S2 1802   2.394   1.284   1.795 -0.2879  0.0844 -0.8948
  145fsi     O3 1803   2.516   1.210   1.810  0.0514 -0.0149  0.4059
  145fsi     O4 1804   2.373   1.343   1.668 -0.4485  0.6903 -0.2206
  145fsi     F2 1805   2.274   1.180   1.810 -0.0187 -0.2098 -0.3205
  146fsi     F1 1806   1.965   0.284   1.726  0.1044 -0.9310 -0.0617
  146fsi     S1 1807   2.017   0.395   1.827  0.3426  0.0365  0.3141
  146fsi      N 1808   1.980   0.520   1.747 -0.5264 -0.3369 -0.8933
  146fsi     O1 1809   1.949   0.369   1.948  0.2210 -0.1459  0.3089
  146fsi     O2 1810   2.159   0.373   1.825  0.2906  0.2572  0.4189
  146fsi     S2 1811   1.872   0.630   1.767 -0.0618 -0.1151  0.0013
  146fsi     O3 1812   1.913   0.753   1.703 -0.1060 -0.3373  0.2356
  146fsi     O4 1813   1.809   0.630   1.897 -0.0154  0.2991  0.1909
  146fsi     F2 1814   1.764   0.578   1.663  0.0025 -0.8750  0.0452
  147fsi     F1 1815   0.971   1.662   1.225  0.0806 -0.0619 -0.2253
  147fsi     S1 1816   1.023   1.577   1.343  0.0514 -0.0689 -0.3071
  147fsi      N 1817   0.936   1.446   1.339 -0.1044  0.6553 -0.6963
  147fsi     O1 1818   1.155   1.545   1.300  0.5206 -0.2575 -0.1791
  147fsi     O2 1819   1.007   1.662   1.455 -0.2018  0.2465 -0.2217
  147fsi     S2 1820   0.777   1.442   1.356 -0.2292 -0.5076 -0.3838
  147fsi     O3 1821   0.723   1.311   1.327  0.1264  0.0315  0.4374
  147fsi     O4 1822   0.707   1.560   1.317  0.2224  0.2744  0.6640
  147fsi     F2 1823   0.768   1.454   1.514  0.1957 -0.5733 -0.3114
  148fsi     F1 1824   0.204   1.752   1.786  0.1070 -0.1044  0.3314
  148fsi     S1 1825   0.219   1.781   1.629 -0.0017 -0.0642 -0.2372
  148fsi      N 1826   0.230   1.941   1.625  0.6830 -0.2323 -0.6827
  148fsi     O1 1827   0.347   1.718   1.594  0.0340 -0.2146  0.0862
  148fsi     O2 1828   0.103   1.725   1.568  0.1500 -0.3059 -0.4211
  148fsi     S2 1829   0.189   2.028   1.500  0.1805 -0.1967 -0.0594
  148fsi     O3 1830   0.048   2.060   1.496  0.1892 -0.2941  0.3134
  148fsi     O4 1831   0.234   1.978   1.374 -0.9874  0.0883  0.0417
  148fsi     F2 1832   0.269   2.155   1.517  0.0361 -0.0064 -0.1011
  149fsi     F1 1833   2.893   2.527   0.820  0.0413  0.5104  0.2711
  149fsi     S1 1834   3.011   2.600   0.761 -0.1237  0.3251 -0.0298
  149fsi      N 1835   3.073   2.486   0.673 -0.1094 -0.0843  0.6247
  149fsi     O1 1836   2.955   2.701   0.679  0.0111  0.2364  0.5160
  149fsi     O2 1837   3.087   2.631   0.880  0.4214 -0.0647 -0.1725
  149fsi     S2 1838   3.191   2.382   0.704 -0.2764  0.0555  0.2159
  149fsi     O3 1839   3.276   2.417   0.808 -0.1994 -0.5629 -0.2345
  149fsi     O4 1840   3.260   2.332   0.585 -0.1766  0.8032  0.1702
  149fsi     F2 1841   3.114   2.252   0.756  0.2048  0.2627 -0.2681
  150fsi     F1 1842   0.209   1.274   0.703  0.2632  0.7504 -0.0661
  150fsi     S1 1843   0.109   1.349   0.791 -0.2366 -0.0252  0.0146
  150fsi      N 1844  -0.014   1.358   0.698 -0.2842  0.5082 -0.4209
  150fsi     O1 1845   0.094   1.257   0.899 -0.5805  0.3334 -0.0429
  150fsi     O2 1846   0.176   1.473   0.821  0.1552 -0.1175 -0.1414
  150fsi     S2 1847  -0.100   1.484   0.651 -0.0149  0.3173  0.2260
  150fsi     O3 1848  -0.072   1.598   0.734  0.4971  0.2682 -0.3282
  150fsi     O4 1849  -0.238   1.449   0.619  0.9766  0.1348  0.4787
  150fsi     F2 1850  -0.035   1.521   0.510 -0.5353 -0.1469  0.5051
  151fsi     F1 1851   1.523   0.314   0.356 -0.1786  0.0991 -0.1140
  151fsi     S1 1852   1.477   0.331   0.509 -0.2636  0.3665 -0.3769
  151fsi      N 1853   1.347   0.419   0.500  0.3128  0.0388 -0.3300
  151fsi     O1 1854   1.452   0.199   0.553  0.3026  0.1074  0.0244
  151fsi     O2 1855   1.591   0.402   0.572 -0.0575  0.1736  0.4464
  151fsi     S2 1856   1.210   0.370   0.435 -0.1525 -0.1884 -0.2638
  151fsi     O3 1857   1.100   0.438   0.499 -0.0513  0.0583  0.1271
  151fsi     O4 1858   1.197   0.228   0.412 -0.1554  0.0647  0.1699
  151fsi     F2 1859   1.205   0.422   0.295  0.0637 -0.3128  0.2563
  152fsi     F1 1860   0.687   0.387   1.789 -0.1798  0.7821  0.0709
  152fsi     S1 1861   0.834   0.375   1.768 -0.1498 -0.0900 -0.1013
  152fsi      N 1862   0.856   0.455   1.632 -0.4521 -0.2967 -0.1842
  152fsi     O1 1863   0.883   0.447   1.883 -0.0516 -0.1112 -0.2779
  152fsi     O2 1864   0.848   0.234   1.757  0.4193 -0.5909  0.3825
  152fsi     S2 1865   0.812   0.597   1.591  0.5545  0.0883  0.2996
  152fsi     O3 1866   0.702   0.650   1.671  0.3403  0.0067 -0.1873
  152fsi     O4 1867   0.816   0.628   1.452 -0.0603 -0.2854 -0.2634
  152fsi     F2 1868   0.929   0.679   1.653  0.3251 -0.5310 -0.0523
  153fsi     F1 1869   2.801   2.613   1.240 -0.7797  0.0278  0.4221
  153fsi     S1 1870   2.640   2.615   1.256  0.2622 -0.4071 -0.3640
  153fsi      N 1871   2.597   2.488   1.174  0.7292  0.3308  0.4998
  153fsi     O1 1872   2.626   2.586   1.394  0.2898  0.3260  0.2121
  153fsi     O2 1873   2.591   2.740   1.206 -0.2548 -0.2688 -0.2758
  153fsi     S2 1874   2.576   2.466   1.021  0.1476 -0.3176  0.1285
  153fsi     O3 1875   2.609   2.580   0.941  0.1141 -0.1859  0.0162
  153fsi     O4 1876   2.454   2.406   0.987 -0.4483 -0.1537 -0.0641
  153fsi     F2 1877   2.682   2.357   0.986  0.1243  0.3125 -0.5119
  154fsi     F1 1878   1.925   1.862   0.874 -0.6996  0.0490  0.0452
  154fsi     S1 1879   1.995   1.732   0.835  0.3415 -0.4249  0.5015
  154fsi      N 1880   1.881   1.638   0.772  0.6337 -0.0659 -0.4267
  154fsi     O1 1881   2.096   1.764   0.739 -0.0866  0.6287 -0.0748
  154fsi     O2 1882   2.035   1.686   0.962  0.1726 -0.0544  0.2245
  154fsi     S2 1883   1.842   1.610   0.621 -0.3191  0.2285  0.2425
  154fsi     O3 1884   1.871   1.712   0.530  0.3307 -0.2582  0.2913
  154fsi     O4 1885   1.706   1.552   0.617 -0.3934  0.0434  0.2698
  154fsi     F2 1886   1.938   1.495   0.578  0.3093 -0.2623 -0.1813
  155fsi     F1 1887   0.959   1.223   0.880 -0.0245 -0.4120  0.1534
  155fsi     S1 1888   1.059   1.166   0.987  0.2393  0.3141  0.2681
  155fsi      N 1889   1.024   1.012   0.985 -0.4232  0.0155  0.4474
  155fsi     O1 1890   1.189   1.189   0.929 -0.2235 -0.0840  0.1256
  155fsi     O2 1891   1.024   1.235   1.107 -0.1063  0.0964 -0.1395
  155fsi     S2 1892   0.908   0.939   1.053 -0.0718 -0.5600  0.0426
  155fsi     O3 1893   0.808   1.029   1.111 -0.2624  0.3446  0.1765
  155fsi     O4 1894   0.941   0.825   1.130  0.3134  0.3435 -0.2176
  155fsi     F2 1895   0.831   0.886   0.922  0.1276  0.2357 -0.1955
  156fsi     F1 1896   1.989   1.707   2.395 -0.1167  0.3973  0.3372
  156fsi     S1 1897   1.993   1.581   2.482  0.0309  0.3371  0.0536
  156fsi      N 1898   1.847   1.578   2.530  0.7748 -0.6144  0.0053
  156fsi     O1 1899   2.039   1.478   2.393 -0.3776 -0.1790 -0.6917
  156fsi     O2 1900   2.081   1.613   2.587  0.1286  0.2138  0.1021
  156fsi     S2 1901   1.771   1.634   2.656  0.3046 -0.1567 -0.5026
  156fsi     O3 1902   1.855   1.671   2.768  0.3563 -0.1107  0.1552
  156fsi     O4 1903   1.654   1.551   2.684  0.0268  0.1213  0.2480
  156fsi     F2 1904   1.718   1.772   2.606  0.2676  0.3211 -0.3632
  157fsi     F1 1905   0.737   2.540   0.014 -0.2929 -0.5634  0.1267
  157fsi     S1 1906   0.579   2.555  -0.011 -0.0113  0.0710 -0.1694
  157fsi      N 1907   0.517   2.480   0.108  0.4554  0.5268  0.5136
  157fsi     O1 1908   0.557   2.699  -0.017  0.4442 -0.0183 -0.5061
  157fsi     O2 1909   0.559   2.493  -0.138  0.7818  0.8843 -0.4380
  157fsi     S2 1910   0.438   2.350   0.113  0.3704  0.3620 -0.2425
  157fsi     O3 1911   0.376   2.326   0.240 -0.1143  0.2177  0.3330
  157fsi     O4 1912   0.502   2.234   0.059 -0.3309  0.6646  0.3533
  157fsi     F2 1913   0.307   2.364   0.040 -0.3913  0.0551  0.2248
  158fsi     F1 1914   0.072   1.220   2.741 -0.3365 -0.4095  0.1616
  158fsi     S1 1915   0.040   1.145   2.874  0.4192 -0.1949 -0.2463
  158fsi      N 1916  -0.069   1.030   2.835 -0.1676 -0.6485  0.2613
  158fsi     O1 1917   0.176   1.101   2.908  0.3075 -0.1163  0.1580
  158fsi     O2 1918  -0.019   1.247   2.963 -0.1793  0.2085  0.1947
  158fsi     S2 1919  -0.048   0.876   2.806  0.4101 -0.1174  0.0145
  158fsi     O3 1920   0.086   0.832   2.834  0.6809  0.5336 -0.5405
  158fsi     O4 1921  -0.112   0.829   2.681 -0.4948 -0.0026 -0.4614
  158fsi     F2 1922  -0.145   0.814   2.912  0.4165 -0.4269 -0.4252
  159fsi     F1 1923   2.106   2.182   1.322 -0.3655  0.0496 -0.9360
  159fsi     S1 1924   2.215   2.220   1.430  0.0701 -0.1076 -0.2458
  159fsi      N 1925   2.117   2.277   1.540  0.1010  0.0826 -0.1421
  159fsi     O1 1926   2.284   2.102   1.457 -0.7121  0.2258  0.5649
  159fsi     O2 1927   2.292   2.319   1.367  0.2041 -0.7828  0.5301
  159fsi     S2 1928   2.061   2.198   1.664  0.4845  0.3608 -0.0546
  159fsi     O3 1929   2.065   2.056   1.648  0.5368 -0.0298  0.4967
  159fsi     O4 1930   1.931   2.252   1.711  0.5770 -0.1932 -0.0446
  159fsi     F2 1931   2.156   2.230   1.775 -0.0063  0.7120 -0.2835
  160fsi     F1 1932   2.664   1.472   1.447  0.0796 -0.6396  0.4139
  160fsi     S1 1933   2.796   1.419   1.385 -0.1634  0.1961 -0.0610
  160fsi      N 1934   2.835   1.541   1.300 -0.4963  0.1986 -0.1939
  160fsi     O1 1935   2.883   1.417   1.495  0.1093  0.3877 -0.1489
  160fsi     O2 1936   2.768   1.299   1.313 -0.1764 -0.3745 -0.3203
  160fsi     S2 1937   2.852   1.543   1.144  0.3204  0.5212 -0.2326
  160fsi     O3 1938   2.883   1.418   1.080  0.4331  0.0190  0.2690
  160fsi     O4 1939   2.929   1.653   1.091  0.0404 -0.2998 -0.8045
  160fsi     F2 1940   2.708   1.581   1.090 -0.1555 -0.4887 -0.1716
  161fsi     F1 1941   1.242   0.132   2.649 -0.0623 -0.5401  0.0787
  161fsi     S1 1942   1.338   0.132   2.531  0.1340 -0.2519  0.0621
  161fsi      N 1943   1.325  -0.019   2.485 -0.1632 -0.0286  0.2075
  161fsi     O1 1944   1.280   0.222   2.439  0.3471 -0.2938  0.0224
  161fsi     O2 1945   1.466   0.163   2.585 -0.7634  0.2918 -0.1610
  161fsi     S2 1946   1.307  -0.079   2.340  0.2428 -0.1074 -0.1339
  161fsi     O3 1947   1.268   0.011   2.233 -0.0806  0.7091  0.3556
  161fsi     O4 1948   1.237  -0.210   2.339  0.0200 -0.2791  0.0901
  161fsi     F2 1949   1.454  -0.114   2.300 -0.7008 -0.0556 -0.2737
  162fsi     F1 1950   0.741   2.788   1.237 -0.0635  0.1940  0.3826
  162fsi     S1 1951   0.788   2.931   1.267  0.0329 -0.1666 -0.0994
  162fsi      N 1952   0.945   2.919   1.262 -0.0186  0.2310  0.1912
  162fsi     O1 1953   0.738   3.010   1.158 -0.3667  0.1949 -0.4209
  162fsi     O2 1954   0.731   2.956   1.398 -0.1818  0.2795  0.1896
  162fsi     S2 1955   1.055   2.964   1.369 -0.4846  0.0098  0.2341
  162fsi     O3 1956   1.024   3.081   1.443 -0.0732 -0.0433  0.3422
  162fsi     O4 1957   1.193   2.957   1.332 -0.0686 -0.5317  0.3723
  162fsi     F2 1958   1.037   2.851   1.473  0.1592  0.0144  0.1672
  163fsi     F1 1959   2.605   0.515   0.780  0.3322 -0.0432  0.5979
  163fsi     S1 1960   2.546   0.404   0.875 -0.2477 -0.3062 -0.0170
  163fsi      N 1961   2.620   0.427   1.007  0.1740 -0.4170  0.0817
  163fsi     O1 1962   2.406   0.433   0.868  0.7142 -0.2555  0.1700
  163fsi     O2 1963   2.585   0.287   0.812  0.2349 -0.0156 -0.3422
  163fsi     S2 1964   2.601   0.538   1.110 -0.1963 -0.0178 -0.1980
  163fsi     O3 1965   2.689   0.528   1.222  0.5654 -0.0359  0.6277
  163fsi     O4 1966   2.470   0.581   1.141 -0.1347  0.2089 -0.2558
  163fsi     F2 1967   2.665   0.666   1.042 -0.0189  0.0695 -0.8613
  164fsi     F1 1968   2.192   0.207   0.486  0.2004  0.6076  0.1563
  164fsi     S1 1969   2.285   0.318   0.427 -0.1342  0.2265 -0.1800
  164fsi      N 1970   2.194   0.376   0.314 -0.9343 -0.1552 -0.3298
  164fsi     O1 1971   2.319   0.404   0.536 -0.3193 -0.6463  0.1057
  164fsi     O2 1972   2.397   0.247   0.375  0.4737 -0.6684 -0.3848
  164fsi     S2 1973   2.110   0.506   0.327 -0.1540  0.1546  0.2655
  164fsi     O3 1974   2.058   0.526   0.463  0.5934  0.4794  0.5792
  164fsi     O4 1975   2.011   0.518   0.219 -0.2962  0.5799  0.0244
  164fsi     F2 1976   2.208   0.616   0.301 -0.3129 -0.1228  0.1098
  165fsi     F1 1977   2.212   0.730   1.246  0.3915 -0.1445 -0.1140
  165fsi     S1 1978   2.062   0.782   1.282 -0.0520  0.0265  0.1733
  165fsi      N 1979   1.976   0.664   1.235 -0.2876  0.5906  0.3561
  165fsi     O1 1980   2.070   0.799   1.424  0.1488 -0.0042 -0.7238
  165fsi     O2 1981   2.048   0.894   1.196 -0.2497  0.8450 -0.2474
  165fsi     S2 1982   1.887   0.563   1.318 -0.4251 -0.5754  0.0496
  165fsi     O3 1983   1.941   0.510   1.440 -0.1834 -0.0459  0.7880
  165fsi     O4 1984   1.817   0.474   1.235  0.1738 -0.5279  0.2258
  165fsi     F2 1985   1.759   0.647   1.366 -0.4940 -0.0914  0.1741
  166fsi     F1 1986   2.802   1.770   0.537 -0.1236 -0.0976  0.0672
  166fsi     S1 1987   2.741   1.913   0.499  0.2936 -0.5009  0.1299
  166fsi      N 1988   2.795   2.006   0.614  0.3551 -0.0563  0.3779
  166fsi     O1 1989   2.804   1.941   0.377 -0.4848 -0.3624  0.1441
  166fsi     O2 1990   2.600   1.890   0.496 -0.6229 -0.1218 -0.6593
  166fsi     S2 1991   2.710   2.103   0.702 -0.2456 -0.0214  0.0134
  166fsi     O3 1992   2.694   2.046   0.831  0.3805 -0.5147  0.1283
  166fsi     O4 1993   2.593   2.160   0.640 -0.0341  0.3619  0.0500
  166fsi     F2 1994   2.807   2.228   0.725  0.5818 -0.2117 -0.2250
  167fsi     F1 1995   0.932   0.751   2.052  0.0177 -0.3762 -0.5749
  167fsi     S1 1996   0.779   0.754   2.067  0.1288  0.0404 -0.3163
  167fsi      N 1997   0.757   0.861   2.177  0.0030 -0.4491 -0.2483
  167fsi     O1 1998   0.733   0.797   1.936  0.4343 -0.4022 -0.0218
  167fsi     O2 1999   0.736   0.618   2.109 -0.0851 -0.1839  0.4967
  167fsi     S2 2000   0.680   0.847   2.319  0.0133 -0.2026  0.0064
  167fsi     O3 2001   0.667   0.981   2.363 -0.1355 -0.7146  0.6254
  167fsi     O4 2002   0.721   0.744   2.407 -0.4924 -0.1200  0.4371
  167fsi     F2 2003   0.534   0.806   2.281 -0.5045  0.1472 -0.0108
  168fsi     F1 2004   0.291   0.050   0.756  0.1829 -0.0483 -0.7177
  168fsi     S1 2005   0.255   0.118   0.892 -0.2819 -0.2983  0.1481
  168fsi      N 2006   0.227   0.002   0.990  0.5856 -0.1255 -0.1024
  168fsi     O1 2007   0.367   0.208   0.915 -0.2944  0.2915 -0.1904
  168fsi     O2 2008   0.136   0.192   0.864 -0.4530  0.1976  0.2149
  168fsi     S2 2009   0.316  -0.068   1.099 -0.0676  0.1125  0.0046
  168fsi     O3 2010   0.440  -0.003   1.134 -0.0363  0.4763 -0.3777
  168fsi     O4 2011   0.317  -0.209   1.092 -0.1792  0.2032  0.5963
  168fsi     F2 2012   0.231  -0.047   1.221  0.1428 -0.0331  0.4154
  169fsi     F1 2013   2.387   0.859   0.995  0.2381  0.1180 -0.6675
  169fsi     S1 2014   2.281   0.853   0.876 -0.4130 -0.3078 -0.0342
  169fsi      N 2015   2.358   0.911   0.746  0.6025 -0.5848  0.1488
  169fsi     O1 2016   2.248   0.713   0.867  0.1365 -0.1178  0.1292
  169fsi     O2 2017   2.183   0.945   0.913 -0.1110  0.3301 -0.2475
  169fsi     S2 2018   2.372   0.847   0.596  0.1385 -0.1239 -0.0881
  169fsi     O3 2019   2.367   0.705   0.599  0.6653  0.4491 -0.3873
  169fsi     O4 2020   2.473   0.901   0.512  0.2087 -0.0356  0.4313
  169fsi     F2 2021   2.237   0.888   0.521 -0.5407 -0.1263 -0.3631
  170fsi     F1 2022   2.295   1.949   0.924 -0.0848  0.5990  0.0263
  170fsi     S1 2023   2.238   1.984   1.065 -0.1572  0.2137  0.1375
  170fsi      N 2024   2.091   2.021   1.026 -0.3932 -0.4247  0.2242
  170fsi     O1 2025   2.240   1.861   1.144  0.1928 -0.2199  0.2518
  170fsi     O2 2026   2.324   2.088   1.110  0.2383  0.1177  0.1388
  170fsi     S2 2027   2.018   2.156   1.020 -0.2970 -0.0653 -0.2348
  170fsi     O3 2028   2.103   2.277   1.028 -1.0682  0.0742 -0.0589
  170fsi     O4 2029   1.904   2.152   1.107 -0.3287 -0.1342  0.4233
  170fsi     F2 2030   1.956   2.158   0.873 -0.1897 -0.8349  0.2632
  171fsi     F1 2031   1.895   2.595   1.956  0.4675 -0.3392  0.1905
  171fsi     S1 2032   2.037   2.534   1.948  0.0916 -0.3403  0.2976
  171fsi      N 2033   2.008   2.405   2.028 -0.4744  0.9520 -0.4312
  171fsi     O1 2034   2.052   2.505   1.810 -0.1744 -0.0882 -0.1701
  171fsi     O2 2035   2.119   2.634   2.011  0.0898  0.0808 -0.3393
  171fsi     S2 2036   2.012   2.388   2.188 -0.0902  0.0571 -0.2675
  171fsi     O3 2037   2.015   2.512   2.257 -0.1736 -0.1287  0.0692
  171fsi     O4 2038   2.090   2.277   2.239  0.1844  0.0423 -0.4651
  171fsi     F2 2039   1.868   2.339   2.220  0.1552 -0.5079 -0.5054
  172fsi     F1 2040   0.715   2.443   1.469  0.1202 -0.4003  0.1889
  172fsi     S1 2041   0.851   2.400   1.397  0.3202  0.2337  0.3929
  172fsi      N 2042   0.920   2.314   1.511  0.1767  0.2825 -0.8966
  172fsi     O1 2043   0.810   2.329   1.279  0.0964 -0.3251 -0.1291
  172fsi     O2 2044   0.918   2.525   1.371  0.2427 -0.6544  0.0078
  172fsi     S2 2045   0.939   2.356   1.660 -0.0784  0.0045 -0.1067
  172fsi     O3 2046   0.883   2.486   1.687  0.7639 -0.6557  0.8524
  172fsi     O4 2047   1.076   2.335   1.709 -0.1532  0.4237 -0.2701
  172fsi     F2 2048   0.849   2.254   1.740  0.5593  0.1643  0.0943
  173fsi     F1 2049   0.421   0.726   1.189  0.5243  0.3731  0.0640
  173fsi     S1 2050   0.529   0.809   1.256  0.0546  0.1887  0.3202
  173fsi      N 2051   0.502   0.773   1.404  0.2416 -0.3173 -0.9015
  173fsi     O1 2052   0.651   0.740   1.216  0.0895 -0.2887  0.4093
  173fsi     O2 2053   0.512   0.944   1.212 -0.0467  0.6971  0.2983
  173fsi     S2 2054   0.369   0.805   1.489 -0.3691 -0.0921  0.6485
  173fsi     O3 2055   0.271   0.880   1.419 -0.1116 -0.1168 -0.2191
  173fsi     O4 2056   0.396   0.846   1.624  0.6114 -0.0316 -0.4195
  173fsi     F2 2057   0.303   0.660   1.508  0.1546  0.0096 -0.3443
  174fsi     F1 2058   0.823   0.008   2.043 -0.2777 -0.0478 -0.3379
  174fsi     S1 2059   0.736   0.085   2.139  0.3185 -0.2687  0.1062
  174fsi      N 2060   0.771   0.025   2.280 -0.2727  0.2975  0.2562
  174fsi     O1 2061   0.775   0.226   2.125 -0.2085 -0.1566  0.3027
  174fsi     O2 2062   0.600   0.048   2.119  0.0221 -0.1902 -0.2185
  174fsi     S2 2063   0.901   0.039   2.365  0.0740 -0.1344 -0.2786
  174fsi     O3 2064   1.000   0.117   2.296 -0.0272 -0.0710 -0.5049
  174fsi     O4 2065   0.949  -0.084   2.421  0.0170  0.0880  0.0237
  174fsi     F2 2066   0.854   0.123   2.486  0.1538  0.3037  0.0842
  175fsi     F1 2067   0.873   2.676   0.281  0.1441 -0.4610  0.5328
  175fsi     S1 2068   0.892   2.557   0.379 -0.1183  0.0120 -0.2028
  175fsi      N 2069   0.907   2.430   0.294 -0.5680  0.0167 -0.2515
  175fsi     O1 2070   1.024   2.594   0.429  0.0303 -0.0929  0.0799
  175fsi     O2 2071   0.783   2.560   0.471 -0.2349 -0.0370  0.0546
  175fsi     S2 2072   0.809   2.310   0.288  0.1915  0.1316  0.0024
  175fsi     O3 2073   0.832   2.227   0.173 -0.2401  0.4077 -0.1114
  175fsi     O4 2074   0.671   2.342   0.331  0.4795 -0.0885  0.3664
  175fsi     F2 2075   0.863   2.218   0.410  0.1662  0.2400  0.4345
  176fsi     F1 2076   1.693   2.363   0.504 -0.6758 -0.3435  0.0275
  176fsi     S1 2077   1.685   2.490   0.417  0.2285  0.0919  0.1009
  176fsi      N 2078   1.612   2.431   0.292 -0.2298 -0.1425 -0.1790
  176fsi     O1 2079   1.600   2.568   0.497  0.5196  0.0633  0.0904
  176fsi     O2 2080   1.823   2.533   0.409 -0.5261 -0.4612  0.0058
  176fsi     S2 2081   1.663   2.420   0.142 -0.1480 -0.0209 -0.1914
  176fsi     O3 2082   1.582   2.350   0.053 -0.3738 -0.1089 -0.0734
  176fsi     O4 2083   1.805   2.408   0.127 -0.2456 -0.6974 -0.1910
  176fsi     F2 2084   1.635   2.564   0.084  0.7072  0.2011 -0.2226
  177fsi     F1 2085   2.284   2.779   0.142 -0.3417 -0.0645 -0.3724
  177fsi     S1 2086   2.168   2.879   0.190 -0.4559  0.1028  0.4309
  177fsi      N 2087   2.056   2.869   0.083 -0.0851  0.5616 -0.0863
  177fsi     O1 2088   2.142   2.834   0.322  0.2307 -0.1292 -0.2678
  177fsi     O2 2089   2.236   3.004   0.181  0.3217 -0.1895 -0.5853
  177fsi     S2 2090   1.930   2.777   0.077 -0.0671  0.2905 -0.3356
  177fsi     O3 2091   1.914   2.689   0.194  0.0318 -0.1730  0.3240
  177fsi     O4 2092   1.900   2.724  -0.052  0.3607  0.3079  0.0546
  177fsi     F2 2093   1.817   2.882   0.100 -0.1799 -0.1762 -0.4032
  178fsi     F1 2094   0.215   2.903   2.125 -0.1790  0.1609 -0.7552
  178fsi     S1 2095   0.125   2.972   2.243 -0.3736  0.0991  0.2632
  178fsi      N 2096   0.040   3.071   2.163  0.3985  0.0229 -0.4033
  178fsi     O1 2097   0.045   2.862   2.293  0.3394  0.1664  0.1056
  178fsi     O2 2098   0.221   3.025   2.331 -0.9521 -0.6442  0.1725
  178fsi     S2 2099   0.060   3.219   2.131 -0.1953 -0.5299  0.1002
  178fsi     O3 2100  -0.032   3.258   2.028  0.4227  0.2817 -0.3714
  178fsi     O4 2101   0.195   3.253   2.115  0.1191  0.5891 -0.2563
  178fsi     F2 2102   0.009   3.300   2.262  0.2193  0.3474  0.2731
  179fsi     F1 2103   2.963   1.503   2.720 -0.0578  0.2713  0.1505
  179fsi     S1 2104   2.886   1.605   2.624  0.0330 -0.0934 -0.2130
  179fsi      N 2105   2.827   1.511   2.510  0.2825 -0.2189 -0.1163
  179fsi     O1 2106   2.788   1.663   2.717 -0.1990 -0.5444 -0.4286
  179fsi     O2 2107   2.983   1.690   2.572  0.8748  0.1726 -0.0779
  179fsi     S2 2108   2.883   1.482   2.369  0.2260  0.3547 -0.3708
  179fsi     O3 2109   2.953   1.594   2.312  0.0299  0.0412 -0.1609
  179fsi     O4 2110   2.784   1.418   2.280  0.0293 -0.4919 -0.1391
  179fsi     F2 2111   2.986   1.374   2.403 -0.2710 -0.0950 -0.1236
  180fsi     F1 2112   1.313   1.895   0.665  1.0326 -0.2963  0.4147
  180fsi     S1 2113   1.456   1.817   0.640  0.4301  0.2161 -0.2552
  180fsi      N 2114   1.551   1.889   0.740 -0.0122 -0.3416  0.2583
  180fsi     O1 2115   1.434   1.685   0.683  0.3193  0.3682 -0.3608
  180fsi     O2 2116   1.477   1.833   0.495 -0.4689 -0.0084  0.1364
  180fsi     S2 2117   1.636   2.014   0.724 -0.3221 -0.2189 -0.1998
  180fsi     O3 2118   1.686   2.054   0.853 -0.7511 -0.2142  0.8388
  180fsi     O4 2119   1.575   2.114   0.638 -0.2859 -0.1203 -0.0086
  180fsi     F2 2120   1.766   1.964   0.655  0.5419 -0.6137  0.1782
  181fsi     F1 2121   1.317   1.200   1.633  0.3757  0.6043  0.1559
  181fsi     S1 2122   1.303   1.334   1.552  0.1532 -0.3159 -0.1906
  181fsi      N 2123   1.451   1.389   1.554  0.0815  0.2579  0.2506
  181fsi     O1 2124   1.268   1.294   1.421 -0.3999 -0.0888  0.0068
  181fsi     O2 2125   1.205   1.414   1.621  0.3519 -0.1498 -0.0135
  181fsi     S2 2126   1.523   1.439   1.682 -0.2527  0.0964  0.2132
  181fsi     O3 2127   1.458   1.447   1.809 -0.4309 -0.7743 -0.6782
  181fsi     O4 2128   1.613   1.545   1.652 -0.7157  0.1908 -0.1134
  181fsi     F2 2129   1.628   1.321   1.696  0.2651 -0.5619 -0.0800
  182fsi     F1 2130   1.685   2.032   2.763 -0.4166  0.3513 -0.5608
  182fsi     S1 2131   1.824   2.098   2.801  0.1648 -0.0045  0.7670
  182fsi      N 2132   1.876   2.131   2.657 -0.5396 -0.1662 -0.3641
  182fsi     O1 2133   1.796   2.210   2.885 -0.3248  0.6783  0.0129
  182fsi     O2 2134   1.897   1.987   2.862 -0.1472 -0.5218  0.1413
  182fsi     S2 2135   1.939   2.038   2.553 -0.3507 -0.2579 -0.1105
  182fsi     O3 2136   1.967   1.908   2.601  0.1979  0.1353  0.0940
  182fsi     O4 2137   2.053   2.097   2.487 -0.9371 -0.4746  0.1528
  182fsi     F2 2138   1.836   2.027   2.442 -0.4316 -0.2227  0.4557
  183fsi     F1 2139   2.181   2.217   2.796 -0.5241  0.1948  0.0605
  183fsi     S1 2140   2.333   2.217   2.739  0.0763 -0.0417  0.0370
  183fsi      N 2141   2.408   2.118   2.830 -0.3231 -0.2279 -0.3990
  183fsi     O1 2142   2.315   2.168   2.607  0.3265  0.2896 -0.0842
  183fsi     O2 2143   2.379   2.353   2.760 -0.4529 -0.4101  0.0461
  183fsi     S2 2144   2.369   1.971   2.848  0.0675  0.4709 -0.4705
  183fsi     O3 2145   2.284   1.911   2.746  0.0297 -0.1702  0.4313
  183fsi     O4 2146   2.349   1.935   2.984 -0.1521  0.2723  0.1800
  183fsi     F2 2147   2.504   1.904   2.815 -0.0393 -0.8592  0.2320
  184fsi     F1 2148   2.442   2.579   2.496 -0.1596 -0.2229  0.1333
  184fsi     S1 2149   2.403   2.527   2.361  0.0175  0.2556 -0.0643
  184fsi      N 2150   2.526   2.443   2.311 -0.3764 -0.2272 -0.2743
  184fsi     O1 2151   2.286   2.447   2.390 -0.4534 -0.5210 -0.7463
  184fsi     O2 2152   2.377   2.645   2.283 -0.2527  0.0267  0.0713
  184fsi     S2 2153   2.527   2.292   2.263  0.2064 -0.2979  0.1283
  184fsi     O3 2154   2.626   2.271   2.162 -0.0631 -0.7197 -0.3458
  184fsi     O4 2155   2.401   2.225   2.257  0.3286  0.0689  0.3803
  184fsi     F2 2156   2.600   2.232   2.394 -0.4432 -0.1166  0.3640
  185fsi     F1 2157   1.101   1.942   1.132 -0.4070 -0.7705 -0.1701
  185fsi     S1 2158   1.089   2.077   1.042  0.5552  0.2428  0.1094
  185fsi      N 2159   1.229   2.138   1.083 -0.0829  0.0987 -0.3762
  185fsi     O1 2160   1.080   2.027   0.910 -0.1958  0.3984 -0.1482
  185fsi     O2 2161   0.978   2.149   1.104  0.3646 -0.4359 -0.6412
  185fsi     S2 2162   1.366   2.098   1.010 -0.2896  0.2989  0.3994
  185fsi     O3 2163   1.381   1.962   0.978 -0.1118  0.0141 -0.4015
  185fsi     O4 2164   1.485   2.163   1.073  0.1417 -0.4048 -0.4584
  185fsi     F2 2165   1.354   2.170   0.877 -0.5694  0.2979  0.1049
  186fsi     F1 2166   0.450   0.237   1.684  0.0434 -0.0883  0.3277
  186fsi     S1 2167   0.333   0.259   1.786  0.2957  0.0186  0.0456
  186fsi      N 2168   0.345   0.413   1.805  0.5295  0.0566 -0.0850
  186fsi     O1 2169   0.218   0.210   1.714 -0.1768  0.3059 -0.4397
  186fsi     O2 2170   0.386   0.172   1.894  0.1603  0.3312  0.3956
  186fsi     S2 2171   0.403   0.493   1.925  0.2853 -0.1092 -0.0478
  186fsi     O3 2172   0.437   0.627   1.891 -0.1857 -0.3655  0.4528
  186fsi     O4 2173   0.495   0.422   2.007  0.0258 -0.7671 -0.4860
  186fsi     F2 2174   0.281   0.503   2.017  0.5233  0.2000 -0.3918
  187fsi     F1 2175   0.452   2.421   1.319  0.1025  0.1301  0.3589
  187fsi     S1 2176   0.434   2.344   1.186 -0.0272 -0.0581  0.0942
  187fsi      N 2177   0.296   2.279   1.202 -0.0934  0.2988 -0.2101
  187fsi     O1 2178   0.446   2.444   1.087 -0.2626  0.0214  0.8874
  187fsi     O2 2179   0.541   2.241   1.184 -0.0058  0.5688 -0.0595
  187fsi     S2 2180   0.155   2.339   1.172 -0.4510 -0.1986 -0.1289
  187fsi     O3 2181   0.076   2.246   1.094 -0.2275 -0.2001  0.2829
  187fsi     O4 2182   0.163   2.482   1.132 -0.1426 -0.0723 -0.2815
  187fsi     F2 2183   0.087   2.340   1.312  0.1239  0.0499 -0.3298
  188fsi     F1 2184   0.642   1.299   2.770  0.6255 -0.0079 -0.1534
  188fsi     S1 2185   0.553   1.188   2.701  0.2444 -0.2779  0.1966
  188fsi      N 2186   0.639   1.053   2.710 -0.2704 -0.1900 -0.2974
  188fsi     O1 2187   0.432   1.187   2.777 -0.3917  0.2801  0.3575
  188fsi     O2 2188   0.539   1.237   2.565  0.0540 -0.1991 -0.6600
  188fsi     S2 2189   0.604   0.921   2.786  0.0729 -0.0480 -0.3050
  188fsi     O3 2190   0.634   0.809   2.701  0.4134 -0.1503 -0.4100
  188fsi     O4 2191   0.476   0.920   2.856  0.3953  0.6559 -0.2601
  188fsi     F2 2192   0.715   0.903   2.900  0.5688 -0.1867 -0.0405
  189fsi     F1 2193   2.403   0.171   2.928 -0.4388  0.4779  0.5772
  189fsi     S1 2194   2.310   0.127   2.813 -0.3750  0.0121  0.0454
  189fsi      N 2195   2.395   0.020   2.733 -0.0566  0.3324 -0.0266
  189fsi     O1 2196   2.188   0.080   2.871  0.4921 -0.4044  0.4687
  189fsi     O2 2197   2.298   0.243   2.729  0.6857 -0.4368 -0.4748
  189fsi     S2 2198   2.437  -0.130   2.784 -0.0202  0.3576  0.4357
  189fsi     O3 2199   2.517  -0.202   2.688 -0.4029 -0.1151  0.3382
  189fsi     O4 2200   2.338  -0.207   2.850 -0.1156 -0.3384  0.6068
  189fsi     F2 2201   2.542  -0.097   2.895 -0.1225  0.5095 -0.0296
  190fsi     F1 2202   1.115   1.126   0.195  0.5004 -0.3872  0.1037
  190fsi     S1 2203   1.003   1.029   0.197  0.1807  0.1663  0.2455
  190fsi      N 2204   1.079   0.897   0.178 -0.0400 -0.6816  0.0621
  190fsi     O1 2205   0.947   1.045   0.326  0.4325  0.0467 -0.6502
  190fsi     O2 2206   0.920   1.065   0.088 -0.1580 -0.1455 -0.9303
  190fsi     S2 2207   1.092   0.817   0.046 -0.1655 -0.3078  0.1392
  190fsi     O3 2208   1.190   0.870  -0.043  0.2018 -0.2417 -0.1238
  190fsi     O4 2209   0.976   0.754  -0.016  0.2632  0.2793 -0.3900
  190fsi     F2 2210   1.163   0.692   0.113  0.0620  0.1362 -0.1672
  191fsi     F1 2211   2.903   2.777   1.935 -0.2058 -0.2019  0.1172
  191fsi     S1 2212   3.012   2.836   1.841  0.1505 -0.4338  0.0195
  191fsi      N 2213   2.957   2.798   1.702 -0.4993 -0.1273  0.1537
  191fsi     O1 2214   3.009   2.977   1.873  0.1147  1.0012  0.2751
  191fsi     O2 2215   3.127   2.762   1.873 -0.0602  0.2426  0.4005
  191fsi     S2 2216   2.918   2.897   1.580  0.1560  0.0370  0.0505
  191fsi     O3 2217   2.950   3.035   1.597  0.5419 -0.0304 -0.9260
  191fsi     O4 2218   2.794   2.860   1.512 -0.1495 -0.3782 -0.2473
  191fsi     F2 2219   3.030   2.855   1.470  0.7017  0.5630  0.1284
  192fsi     F1 2220   2.038   0.059   0.683  0.0036 -0.1086 -0.8171
  192fsi     S1 2221   1.945   0.101   0.794  0.2531 -0.4941  0.1664
  192fsi      N 2222   2.016   0.233   0.839 -0.0195 -0.7315  0.0934
  192fsi     O1 2223   1.820   0.117   0.720 -0.0382 -0.0037 -0.1087
  192fsi     O2 2224   1.946  -0.003   0.895  0.1444  0.1456 -0.4143
  192fsi     S2 2225   1.978   0.382   0.803 -0.1281  0.2371 -0.3398
  192fsi     O3 2226   1.858   0.390   0.724  0.9476  0.1993 -0.1952
  192fsi     O4 2227   2.091   0.462   0.759  0.1539 -0.0712  0.7647
  192fsi     F2 2228   1.933   0.455   0.933  0.0020  0.0663 -0.3761
  193fsi     F1 2229   1.551   1.147   2.394 -0.1193  0.1399  0.4365
  193fsi     S1 2230   1.670   1.237   2.440  0.1745 -0.1293  0.6603
  193fsi      N 2231   1.659   1.354   2.331  0.1333 -0.0573  0.1486
  193fsi     O1 2232   1.624   1.288   2.566  0.3942 -0.0535 -0.3679
  193fsi     O2 2233   1.784   1.151   2.433  0.0896  0.3596 -0.7412
  193fsi     S2 2234   1.739   1.380   2.202  0.1220  0.1507 -0.0150
  193fsi     O3 2235   1.840   1.281   2.177  0.0692 -0.0171  0.4122
  193fsi     O4 2236   1.778   1.517   2.175 -0.5518  0.3503 -0.4221
  193fsi     F2 2237   1.620   1.354   2.093 -0.3915 -0.3320 -0.4699
  194fsi     F1 2238   0.190   0.454   0.439  0.2616  0.4430  0.0843
  194fsi     S1 2239   0.276   0.526   0.328  0.2360  0.2196 -0.0975
  194fsi      N 2240   0.199   0.664   0.304  0.1407  0.0715 -0.4369
  194fsi     O1 2241   0.405   0.548   0.396  0.0932 -0.0563 -0.5193
  194fsi     O2 2242   0.267   0.440   0.215 -0.0936  0.1120 -0.3629
  194fsi     S2 2243   0.111   0.714   0.188 -0.2474 -0.0855  0.1991
  194fsi     O3 2244   0.023   0.822   0.227 -0.6205  0.1945 -0.0053
  194fsi     O4 2245   0.074   0.615   0.097  0.0466 -0.6363 -0.0994
  194fsi     F2 2246   0.217   0.786   0.105 -0.3650  0.1547 -0.0210
  195fsi     F1 2247   2.190   0.042   2.499  0.1706 -0.4027 -0.1334
  195fsi     S1 2248   2.097  -0.084   2.501  0.1315  0.0037  0.2467
  195fsi      N 2249   1.967  -0.037   2.430 -0.6283 -0.5418 -0.2677
  195fsi     O1 2250   2.181  -0.183   2.433  1.0488  0.9476  0.0627
  195fsi     O2 2251   2.074  -0.110   2.642  0.3542  0.0636  0.2026
  195fsi     S2 2252   1.871  -0.100   2.316 -0.0009  0.0035 -0.0743
  195fsi     O3 2253   1.728  -0.099   2.346 -0.6615  0.7181 -0.4488
  195fsi     O4 2254   1.924  -0.215   2.256  0.0717  0.5626 -0.0232
  195fsi     F2 2255   1.883   0.006   2.201  0.3380 -0.3931  0.5469
  196fsi     F1 2256   1.517   0.115   2.075  0.4289  0.8635 -0.8677
  196fsi     S1 2257   1.455   0.254   2.038 -0.1614  0.2970 -0.0872
  196fsi      N 2258   1.370   0.215   1.914  0.5013  0.3868 -0.1485
  196fsi     O1 2259   1.379   0.299   2.152  0.3126 -0.3389  0.1698
  196fsi     O2 2260   1.569   0.330   1.997 -0.0464  0.1375  0.4833
  196fsi     S2 2261   1.214   0.175   1.891 -0.1573  0.0427  0.3338
  196fsi     O3 2262   1.127   0.182   2.001 -0.2361  0.0200  0.0934
  196fsi     O4 2263   1.204   0.062   1.806  0.1441 -0.0680 -0.3637
  196fsi     F2 2264   1.172   0.303   1.803 -0.1474  0.2616  0.2489
  197fsi     F1 2265   2.187   0.963   2.023  0.1433 -0.3626  0.5137
  197fsi     S1 2266   2.072   1.047   2.088  0.0753  0.3539 -0.1414
  197fsi      N 2267   2.079   1.004   2.241 -0.3657 -0.6213 -0.4156
  197fsi     O1 2268   2.100   1.183   2.061  0.3896  0.3345 -0.3133
  197fsi     O2 2269   1.950   0.993   2.031  0.5597 -0.4991 -0.2188
  197fsi     S2 2270   2.144   1.079   2.364  0.1127  0.2899 -0.0536
  197fsi     O3 2271   2.074   1.057   2.490  0.0703 -0.0439  0.7266
  197fsi     O4 2272   2.190   1.214   2.340  0.0624 -0.3275  1.0055
  197fsi     F2 2273   2.273   0.994   2.377  0.2315  0.2694 -0.0745
  198fsi     F1 2274   0.331   0.670   2.753 -0.2732 -0.0884  0.1495
  198fsi     S1 2275   0.369   0.525   2.768 -0.0146  0.2514 -0.3778
  198fsi      N 2276   0.265   0.452   2.675 -0.4216 -0.2930  0.1330
  198fsi     O1 2277   0.510   0.519   2.721  0.4294  0.1830 -0.3569
  198fsi     O2 2278   0.348   0.496   2.909  0.6901 -0.7680 -0.5296
  198fsi     S2 2279   0.107   0.437   2.696 -0.0188  0.3145  0.3281
  198fsi     O3 2280   0.037   0.547   2.635 -0.4669  0.5179  0.1902
  198fsi     O4 2281   0.067   0.393   2.824  0.7386  0.6504  0.0145
  198fsi     F2 2282   0.081   0.310   2.610 -0.2959 -0.0685  0.2926
  199fsi     F1 2283   1.963   1.946   1.404  0.8386 -0.3835  0.0406
  199fsi     S1 2284   1.959   1.797   1.425  0.1158  0.4039 -0.0560
  199fsi      N 2285   2.100   1.776   1.501 -0.5400 -0.5873  0.4126
  199fsi     O1 2286   1.840   1.795   1.503 -0.3247 -0.0091  0.2679
  199fsi     O2 2287   1.958   1.739   1.295 -0.4605  0.2695 -0.0771
  199fsi     S2 2288   2.225   1.680   1.478  0.4670  0.2048 -0.0996
  199fsi     O3 2289   2.345   1.756   1.495 -0.4535  0.5237  0.3686
  199fsi     O4 2290   2.207   1.596   1.360 -0.2006 -0.0398 -0.1335
  199fsi     F2 2291   2.229   1.578   1.598 -0.9617 -0.0204  0.3804
  200fsi     F1 2292   1.628   0.709   2.220 -0.4152 -0.0856  0.0144
  200fsi     S1 2293   1.601   0.801   2.341  0.2566 -0.3218  0.3426
  200fsi      N 2294   1.477   0.883   2.292 -0.1054 -0.3969 -0.2208
  200fsi     O1 2295   1.570   0.697   2.434  0.3881 -0.1076 -0.3425
  200fsi     O2 2296   1.729   0.874   2.357 -0.0981 -0.0286  0.2882
  200fsi     S2 2297   1.340   0.893   2.369 -0.0062 -0.1496  0.3518
  200fsi     O3 2298   1.240   0.965   2.295  0.1186  0.3175 -0.2850
  200fsi     O4 2299   1.358   0.922   2.508 -0.2765  0.3197 -0.0030
  200fsi     F2 2300   1.293   0.739   2.373  0.6888  0.0468 -0.2599
   2.99988   2.99988   2.99988
