simbox
 2300
    1Li      Li    1   1.941   2.202   3.339 -0.5233  0.5015  0.2285
    2Li      Li    2   0.920   2.647   2.558  0.1167  0.5549 -1.0385
    3Li      Li    3   2.181   0.625   0.044  0.3823 -0.1328 -0.4666
    4Li      Li    4   2.075   0.897   2.927  0.7606  1.1684  0.5245
    5Li      Li    5   1.943   0.357   3.147  0.0917  0.1028  0.0344
    6Li      Li    6   1.451   1.060   1.394  0.5086 -0.4008 -0.1236
    7Li      Li    7   1.856   0.315   0.309  0.6624  0.2387 -0.5596
    8Li      Li    8   2.046   0.001   0.829  0.5458 -1.3250  1.8667
    9Li      Li    9   0.773   2.560   2.118 -0.5140 -0.4713  1.1774
   10Li      Li   10   2.208   3.170   0.383 -0.0908  0.2009  0.0092
   11Li      Li   11   2.231   0.686   1.788  0.5906  0.4292 -0.6494
   12Li      Li   12   2.013   1.351   2.586 -0.2829  0.4565 -0.6333
   13Li      Li   13   1.292   0.130   1.825 -0.1463 -0.0511 -0.0819
   14Li      Li   14   2.056   0.921   1.172  0.0659 -0.0425 -0.0851
   15Li      Li   15   1.207   0.277   2.431 -0.7357 -0.4790 -0.0698
   16Li      Li   16   1.815   2.906   2.255 -0.1751 -0.1360  0.4460
   17Li      Li   17   0.898   0.826   2.616 -0.0394  0.5057  0.4370
   18Li      Li   18   2.289   2.749   2.972  1.1468  0.1404 -0.6948
   19Li      Li   19   0.690   2.438   0.931  0.4714  0.8450  0.9194
   20Li      Li   20   2.472   0.639   1.000  0.5803  0.3486  0.6958
   21Li      Li   21   0.688   0.989   3.123  0.0304 -1.2512 -1.3328
   22Li      Li   22   1.903   3.259   3.002 -0.5326 -0.1064  0.2195
   23Li      Li   23   2.651   0.380   2.079  0.3418  0.1726 -0.1518
   24Li      Li   24   2.376   3.328   3.286  0.0639  0.7942  0.0488
   25Li      Li   25   0.930   2.670   1.468  0.0182  0.3429  0.2055
   26Li      Li   26   2.022   0.435   0.768 -0.0035  0.0352 -0.5438
   27Li      Li   27   2.190   2.942   1.795 -0.3416  0.0348 -0.5045
   28Li      Li   28   0.853   2.333   0.400 -0.3013 -0.2878 -0.2574
   29Li      Li   29   0.799   0.385   2.410 -0.4157 -0.4013 -0.7166
   30Li      Li   30   2.290   1.411   1.184  0.3431  0.5849  0.8828
   31Li      Li   31   2.044   2.769   3.393 -0.0465 -0.4003  0.0539
   32Li      Li   32   1.107   1.233   3.451  0.5919 -0.2151 -0.5528
   33Li      Li   33   0.935   1.003   1.822  0.4027  0.9049 -0.4578
   34Li      Li   34   1.429   3.097   2.606  0.0821  0.5311 -0.0336
   35Li      Li   35   3.182   1.383   1.329  0.0025  0.4610  0.2749
   36Li      Li   36   3.451   0.303   2.097  0.1272  0.4796 -0.1456
   37Li      Li   37   0.643   3.100   1.087 -0.2865  0.4946 -0.4448
   38Li      Li   38   1.013   2.867   0.842 -0.8165 -0.2664 -0.5957
   39Li      Li   39   0.957   1.317   2.759  0.1792 -0.3833 -0.0248
   40Li      Li   40   0.881   0.964   0.386 -0.0049  0.5068 -0.1734
   41Li      Li   41   1.492   3.443   2.883  0.7097 -0.0504 -0.3117
   42Li      Li   42   0.342   0.674   2.304 -0.2856 -0.2725 -0.5511
   43Li      Li   43   1.019   0.646   1.532  0.3660  0.1678 -0.6488
   44Li      Li   44   1.724   2.281   1.176  0.8958  0.2720  1.0285
   45Li      Li   45   2.274   2.010   1.473 -0.3951 -0.6010 -0.4702
   46Li      Li   46   2.526   0.235   0.540 -0.8355  0.0483 -0.6133
   47Li      Li   47   0.938   0.088   1.257  0.0590 -1.1153 -0.0871
   48Li      Li   48   1.031   1.441   1.485  0.1547 -0.8656 -0.2417
   49Li      Li   49   2.194   2.594   2.195  0.0657 -0.2368 -0.3332
   50Li      Li   50   2.533   2.499   1.646 -0.0899 -1.1218 -0.0204
   51c3c      N   51   1.638   3.320   0.116 -0.1275  0.6346 -0.2229
   51c3c     C1   52   1.731   3.381   0.210  0.1957  0.9710  0.1514
   51c3c     C2   53   1.693   3.354  -0.012  0.7232  0.5976  0.3798
   51c3c     C3   54   1.872   3.359   0.152  0.4184  0.2302  0.3359
   51c3c     C4   55   1.843   3.332   0.009 -0.0446  0.0138  0.2963
   51c3c     C5   56   1.644   3.177   0.150 -0.7443 -0.1390  0.3107
   51c3c     C6   57   1.498   3.362   0.150 -0.3437 -0.0021 -0.2815
   51c3c     H1   58   1.728   3.337   0.309  4.2266 -0.9002 -0.4591
   51c3c     H2   59   1.728   3.490   0.220 -1.2417  0.8719  0.7938
   51c3c     H3   60   1.657   3.288  -0.091 -0.6681 -0.3045  1.7425
   51c3c     H4   61   1.675   3.456  -0.046 -0.1230  0.3811  0.1655
   51c3c     H5   62   1.922   3.268   0.183 -0.4821  0.1579  1.5941
   51c3c     H6   63   1.945   3.439   0.169 -0.4137  0.5087  2.8463
   51c3c     H7   64   1.864   3.230  -0.024  0.8287 -0.7445  3.0606
   51c3c     H8   65   1.901   3.396  -0.057  1.7436 -0.8670  0.9785
   51c3c     H9   66   1.644   3.137   0.251 -3.2515 -1.5829 -0.2310
   51c3c    H10   67   1.566   3.120   0.101  1.4433 -0.2032 -3.2868
   51c3c    H11   68   1.736   3.126   0.121 -1.0106 -0.0287 -0.7485
   51c3c    H12   69   1.422   3.315   0.088 -1.8957  1.8656  0.1714
   51c3c    H13   70   1.472   3.317   0.246 -0.2465 -1.1346 -0.7771
   51c3c     C7   71   1.446   3.510   0.145 -0.1350 -0.0836  0.0348
   51c3c    H14   72   1.454   3.544   0.042  0.8670 -0.8261 -0.1352
   51c3c    H15   73   1.522   3.557   0.208 -0.4459 -1.0738  1.1695
   51c3c     C8   74   1.300   3.521   0.206 -0.5143 -1.1930  1.0622
   51c3c    H16   75   1.265   3.624   0.205  0.7885 -0.7407  0.9309
   51c3c    H17   76   1.298   3.489   0.310 -1.2751 -0.5130  1.2613
   51c3c    H18   77   1.229   3.465   0.145 -0.4755 -0.7345  0.5869
   52c3c      N   78   1.670   0.543   1.294  0.2128  0.6550  0.0211
   52c3c     C1   79   1.626   0.654   1.206  1.1821  0.3266  0.3087
   52c3c     C2   80   1.542   0.493   1.336 -0.2281  0.1430  0.8868
   52c3c     C3   81   1.494   0.614   1.139  0.3325 -0.2650 -0.0952
   52c3c     C4   82   1.445   0.494   1.224  0.0622  0.3779 -0.0929
   52c3c     C5   83   1.745   0.448   1.208 -0.0158  0.8716  0.0088
   52c3c     C6   84   1.756   0.588   1.403 -0.1246 -0.0389 -0.3236
   52c3c     H1   85   1.705   0.687   1.138  2.1514 -3.1265 -0.3288
   52c3c     H2   86   1.598   0.749   1.251  0.7468  1.1240 -1.6164
   52c3c     H3   87   1.554   0.393   1.378  1.0882  0.0472  0.3139
   52c3c     H4   88   1.503   0.560   1.413  0.9779 -0.4821  2.0833
   52c3c     H5   89   1.501   0.566   1.041  3.2580  3.7327 -1.9880
   52c3c     H6   90   1.425   0.697   1.123  0.3825 -0.6963 -2.8366
   52c3c     H7   91   1.446   0.396   1.175  0.4593 -0.2425  1.1458
   52c3c     H8   92   1.346   0.518   1.263 -0.6310 -1.8771 -0.3794
   52c3c     H9   93   1.833   0.476   1.150 -0.7439 -2.3479 -2.7730
   52c3c    H10   94   1.782   0.361   1.263  3.3185  2.3363  0.2423
   52c3c    H11   95   1.687   0.409   1.125 -2.0976 -0.0291  1.8430
   52c3c    H12   96   1.762   0.502   1.470  3.5873  0.7416  0.4996
   52c3c    H13   97   1.857   0.595   1.363  0.6081  0.1181  1.4982
   52c3c     C7   98   1.721   0.715   1.474 -0.2822 -0.9707 -0.3514
   52c3c    H14   99   1.624   0.716   1.523  0.0898  1.2608  0.4023
   52c3c    H15  100   1.733   0.796   1.402 -0.0454 -1.1257 -0.4843
   52c3c     C8  101   1.808   0.741   1.593 -0.5806 -1.1427 -0.4606
   52c3c    H16  102   1.796   0.843   1.629 -1.0166 -0.4459 -2.5482
   52c3c    H17  103   1.913   0.726   1.567  0.2828  0.8808  1.6864
   52c3c    H18  104   1.775   0.678   1.676 -2.6043  3.1089  2.1276
   53c3c      N  105   0.318   1.159   1.462  0.0736 -0.4059 -0.6495
   53c3c     C1  106   0.442   1.107   1.417 -0.0080 -0.3509  0.0769
   53c3c     C2  107   0.274   1.249   1.353  0.7226  0.3182  0.5999
   53c3c     C3  108   0.423   1.082   1.270 -0.0445  0.0172  0.5573
   53c3c     C4  109   0.331   1.197   1.227 -0.6363 -0.4520  0.3054
   53c3c     C5  110   0.225   1.042   1.466  0.0948 -0.5560  0.4023
   53c3c     C6  111   0.320   1.230   1.594 -0.3174 -0.3578 -0.6523
   53c3c     H1  112   0.477   1.022   1.477  0.7151  1.4093  2.2095
   53c3c     H2  113   0.521   1.181   1.429  0.2806 -0.7557  0.6936
   53c3c     H3  114   0.166   1.261   1.357  0.6176 -0.2798 -0.3315
   53c3c     H4  115   0.313   1.351   1.363 -3.0579  2.1075 -1.5575
   53c3c     H5  116   0.366   0.991   1.251 -0.8946  1.0202 -1.9122
   53c3c     H6  117   0.508   1.070   1.202 -0.4815  0.7219 -0.1135
   53c3c     H7  118   0.249   1.165   1.162  0.0472 -2.4771  0.4038
   53c3c     H8  119   0.381   1.274   1.169 -1.8874 -0.5587 -0.9384
   53c3c     H9  120   0.263   0.967   1.535  1.2863 -2.1514 -1.9440
   53c3c    H10  121   0.130   1.077   1.506 -0.0714 -1.5923  0.9141
   53c3c    H11  122   0.196   1.008   1.367  2.6052 -2.6705  0.3293
   53c3c    H12  123   0.226   1.283   1.605 -0.3985 -0.9523  1.6140
   53c3c    H13  124   0.323   1.154   1.672 -3.9478  0.4687  0.4081
   53c3c     C7  125   0.445   1.310   1.623 -0.7459  0.2774 -0.7677
   53c3c    H14  126   0.467   1.384   1.545 -2.8990  1.4486 -0.3230
   53c3c    H15  127   0.535   1.250   1.623 -1.6282 -1.0947 -2.3163
   53c3c     C8  128   0.439   1.379   1.756  0.1037  0.1300  0.3057
   53c3c    H16  129   0.349   1.442   1.755  0.3963  0.5364 -0.1835
   53c3c    H17  130   0.528   1.439   1.773 -0.9279  1.0209  2.7463
   53c3c    H18  131   0.438   1.308   1.840 -1.3309 -0.1069  0.1160
   54c3c      N  132   0.446   1.877   1.365 -0.1825  0.0488  0.3138
   54c3c     C1  133   0.331   1.935   1.426  0.0666 -0.4736  0.6325
   54c3c     C2  134   0.399   1.770   1.281  0.2670 -0.3748 -0.4265
   54c3c     C3  135   0.226   1.933   1.315 -0.4887  0.4021 -0.0854
   54c3c     C4  136   0.262   1.818   1.228  0.7511 -0.2313 -0.0931
   54c3c     C5  137   0.506   1.985   1.277  0.2885  0.3039  0.0425
   54c3c     C6  138   0.556   1.832   1.447  0.1331 -0.0265 -0.5733
   54c3c     H1  139   0.346   2.031   1.475  0.3339  0.4699 -1.2389
   54c3c     H2  140   0.292   1.871   1.506 -0.8373  0.3704  0.8791
   54c3c     H3  141   0.466   1.744   1.199  0.6051 -0.1321 -0.2284
   54c3c     H4  142   0.380   1.689   1.351  1.9191  1.2859  2.0142
   54c3c     H5  143   0.225   2.028   1.262  1.9198  0.5361  0.0682
   54c3c     H6  144   0.125   1.926   1.357 -0.5117 -0.0797 -0.2131
   54c3c     H7  145   0.269   1.864   1.130 -3.4685  0.8136  0.0385
   54c3c     H8  146   0.184   1.742   1.223  3.6999 -3.3305 -0.7156
   54c3c     H9  147   0.546   2.077   1.318  0.8202 -0.3134  0.9247
   54c3c    H10  148   0.589   1.945   1.219  0.8905  1.7294 -0.0944
   54c3c    H11  149   0.426   2.024   1.214 -0.6410  1.5252  1.9235
   54c3c    H12  150   0.625   1.773   1.388 -1.0802  0.2149 -2.2845
   54c3c    H13  151   0.617   1.919   1.472  0.9886 -0.5577 -0.8083
   54c3c     C7  152   0.527   1.745   1.570  0.9587 -0.2245 -0.0056
   54c3c    H14  153   0.463   1.661   1.543  1.1443 -0.2962 -0.2204
   54c3c    H15  154   0.478   1.806   1.646 -0.2981 -0.7348 -0.3846
   54c3c     C8  155   0.654   1.690   1.642  0.0333 -0.7375  0.0957
   54c3c    H16  156   0.701   1.773   1.695 -0.0112 -0.4611 -0.2894
   54c3c    H17  157   0.733   1.660   1.573 -0.1231  1.1062 -0.9276
   54c3c    H18  158   0.623   1.600   1.694  0.0383  0.0796  1.5225
   55c3c      N  159   1.542   2.605   0.713 -0.0260 -0.3245 -0.0955
   55c3c     C1  160   1.580   2.462   0.698  0.1436  0.1821  0.7451
   55c3c     C2  161   1.473   2.643   0.587 -0.2051 -0.3764  0.2642
   55c3c     C3  162   1.458   2.400   0.635  0.2427  0.0042 -0.1872
   55c3c     C4  163   1.388   2.520   0.572  0.2413 -0.2952 -0.0966
   55c3c     C5  164   1.450   2.628   0.825  0.3938 -0.1706  0.2293
   55c3c     C6  165   1.658   2.684   0.738 -0.4679  0.3232  0.4108
   55c3c     H1  166   1.616   2.417   0.791 -0.8044  1.5246  1.7970
   55c3c     H2  167   1.668   2.450   0.635 -0.5438  0.9169 -0.3687
   55c3c     H3  168   1.412   2.733   0.589  2.2039  1.3325 -0.3334
   55c3c     H4  169   1.538   2.661   0.501 -1.6632  0.3609 -0.7032
   55c3c     H5  170   1.392   2.349   0.706  0.4006 -0.3471 -0.2906
   55c3c     H6  171   1.493   2.328   0.561  1.8378  1.9584 -1.3884
   55c3c     H7  172   1.299   2.545   0.628  1.1248  0.7016  0.8802
   55c3c     H8  173   1.368   2.490   0.469 -1.1162  0.3236 -0.0126
   55c3c     H9  174   1.484   2.581   0.917 -0.5651  0.0685  0.7112
   55c3c    H10  175   1.434   2.733   0.849 -0.0709  0.0977 -1.1867
   55c3c    H11  176   1.347   2.593   0.835 -0.0325  0.2700 -2.2489
   55c3c    H12  177   1.634   2.787   0.763 -1.3609 -0.1618  1.6075
   55c3c    H13  178   1.698   2.652   0.834 -2.1504 -3.0256  0.0562
   55c3c     C7  179   1.775   2.691   0.632  0.4366  0.6462  0.5072
   55c3c    H14  180   1.738   2.753   0.550  1.0820  0.6434  0.2179
   55c3c    H15  181   1.809   2.594   0.595  0.5371  0.9734 -0.2684
   55c3c     C8  182   1.899   2.755   0.688 -0.3284 -0.5468  0.1572
   55c3c    H16  183   1.977   2.784   0.617  0.9369  1.6094  2.3307
   55c3c    H17  184   1.940   2.697   0.770 -0.4624 -0.4006  0.3280
   55c3c    H18  185   1.865   2.851   0.730  1.4108  0.7712 -1.3759
   56c3c      N  186   1.612   1.671   1.433  0.6549  0.1992 -0.0849
   56c3c     C1  187   1.608   1.731   1.298  0.2524  0.6618 -1.0189
   56c3c     C2  188   1.625   1.786   1.520  0.7832 -0.2926 -0.1613
   56c3c     C3  189   1.537   1.864   1.304 -0.2671  0.3179  0.5713
   56c3c     C4  190   1.550   1.897   1.452  0.2084  0.3954  0.4786
   56c3c     C5  191   1.484   1.601   1.455  0.0862 -0.4500  0.1174
   56c3c     C6  192   1.712   1.568   1.452  0.2095  0.3673  0.6111
   56c3c     H1  193   1.553   1.661   1.236  3.3950 -2.2159 -0.7224
   56c3c     H2  194   1.711   1.747   1.264  1.3745 -0.3610  1.7386
   56c3c     H3  195   1.585   1.764   1.619 -1.1931  2.7660 -0.2016
   56c3c     H4  196   1.729   1.818   1.532  1.6547 -3.0875  0.0226
   56c3c     H5  197   1.430   1.855   1.283 -0.1370 -0.5583  0.2856
   56c3c     H6  198   1.576   1.945   1.242 -0.1810  0.6888  1.1134
   56c3c     H7  199   1.454   1.912   1.501 -1.2842 -1.8694 -1.6223
   56c3c     H8  200   1.612   1.987   1.460  1.6774 -0.5834  0.3695
   56c3c     H9  201   1.485   1.505   1.406  1.0629 -0.3556 -0.0566
   56c3c    H10  202   1.474   1.572   1.560 -0.1361  0.1043  0.2567
   56c3c    H11  203   1.395   1.660   1.432  0.5117 -0.2133 -0.9221
   56c3c    H12  204   1.692   1.522   1.549  2.6874 -0.7717  0.6294
   56c3c    H13  205   1.702   1.495   1.371  0.4425  1.1067 -0.0921
   56c3c     C7  206   1.861   1.612   1.449  0.5871 -0.1052  0.3866
   56c3c    H14  207   1.892   1.678   1.530  1.0736 -0.2047  0.2781
   56c3c    H15  208   1.895   1.672   1.365 -1.2069 -0.8582 -0.9217
   56c3c     C8  209   1.946   1.484   1.446 -0.7196 -0.8972 -0.4715
   56c3c    H16  210   1.903   1.405   1.508  1.4285 -2.3993 -0.8264
   56c3c    H17  211   2.044   1.505   1.488  0.0936 -2.0925 -1.7446
   56c3c    H18  212   1.962   1.450   1.344  1.1979 -1.1150 -0.1113
   57c3c      N  213   0.641   0.144   1.732 -0.4823 -0.0827  0.6111
   57c3c     C1  214   0.783   0.116   1.765  0.0681 -0.0223  0.9351
   57c3c     C2  215   0.608   0.242   1.840  0.4238 -0.5122  0.1979
   57c3c     C3  216   0.848   0.247   1.816  0.2550 -1.2224 -0.3556
   57c3c     C4  217   0.730   0.328   1.878 -0.1641 -1.0624 -0.0536
   57c3c     C5  218   0.643   0.217   1.604  0.5906  0.2593 -0.1973
   57c3c     C6  219   0.553   0.027   1.736 -0.3880 -0.4161 -0.0949
   57c3c     H1  220   0.841   0.084   1.679 -0.8051  1.3484 -0.1784
   57c3c     H2  221   0.800   0.046   1.847  0.3946 -0.5503  0.4124
   57c3c     H3  222   0.530   0.310   1.806  0.1846 -0.9390 -0.1058
   57c3c     H4  223   0.569   0.195   1.930  1.0794  0.4810  1.0232
   57c3c     H5  224   0.889   0.315   1.743 -0.5733  0.3575  0.6294
   57c3c     H6  225   0.931   0.235   1.886  0.9664  0.4204 -0.9084
   57c3c     H7  226   0.727   0.426   1.831 -1.8996 -1.0006  0.1423
   57c3c     H8  227   0.743   0.329   1.987  0.9537 -0.4161 -0.1870
   57c3c     H9  228   0.683   0.160   1.520 -0.8065  0.5625 -1.0889
   57c3c    H10  229   0.543   0.246   1.574  0.1520 -1.4177 -0.4163
   57c3c    H11  230   0.703   0.307   1.621  0.5109  0.9272 -3.1309
   57c3c    H12  231   0.455   0.072   1.718 -1.2558 -1.9430  0.7391
   57c3c    H13  232   0.587  -0.035   1.653 -0.8058  0.7987 -1.1925
   57c3c     C7  233   0.545  -0.066   1.867 -0.4116  0.5550  0.4053
   57c3c    H14  234   0.498  -0.003   1.943 -1.3570 -0.8933  1.0360
   57c3c    H15  235   0.643  -0.093   1.906 -0.1595  1.0011  0.0985
   57c3c     C8  236   0.473  -0.190   1.849  0.6708  1.2948 -0.4662
   57c3c    H16  237   0.449  -0.242   1.942 -0.8439  3.3810  0.3539
   57c3c    H17  238   0.531  -0.256   1.784  1.2286  0.8779  0.4477
   57c3c    H18  239   0.376  -0.175   1.801  0.7930  0.7736 -0.8907
   58c3c      N  240   1.659   1.976   0.321 -0.5776  0.4811  0.3908
   58c3c     C1  241   1.548   1.993   0.408  0.6523 -0.1857  0.5922
   58c3c     C2  242   1.705   1.837   0.352  0.8927  0.0538 -0.4349
   58c3c     C3  243   1.466   1.863   0.411  0.2921 -1.0169  0.7259
   58c3c     C4  244   1.575   1.762   0.397 -0.4768 -0.1743  0.2088
   58c3c     C5  245   1.603   1.992   0.184 -0.5037 -0.3008 -0.5347
   58c3c     C6  246   1.764   2.077   0.338 -0.8733 -0.4289 -0.2179
   58c3c     H1  247   1.502   2.092   0.408 -1.3631 -1.0973 -0.9515
   58c3c     H2  248   1.592   1.984   0.508  0.6313  1.3616  0.7536
   58c3c     H3  249   1.743   1.791   0.261  0.9022  1.9871 -1.4164
   58c3c     H4  250   1.774   1.836   0.436 -1.6277 -0.8970  1.7321
   58c3c     H5  251   1.401   1.851   0.325  0.4849 -1.8184  0.6872
   58c3c     H6  252   1.412   1.840   0.503  1.1284 -1.6132  1.0756
   58c3c     H7  253   1.538   1.677   0.339  0.6228 -1.7706  1.8024
   58c3c     H8  254   1.585   1.734   0.501  0.4559 -1.4778 -0.2133
   58c3c     H9  255   1.567   2.094   0.171 -0.7663  0.1206  2.8693
   58c3c    H10  256   1.679   1.978   0.107  1.2244  2.7182  0.5387
   58c3c    H11  257   1.507   1.944   0.163 -0.9714 -0.9270  2.6528
   58c3c    H12  258   1.836   2.057   0.259 -0.3853  1.1851 -0.1875
   58c3c    H13  259   1.722   2.172   0.306 -0.0877  0.3987  1.1503
   58c3c     C7  260   1.833   2.095   0.473 -0.6787 -0.3979  0.5807
   58c3c    H14  261   1.887   2.006   0.505  0.7343 -0.1369 -0.9944
   58c3c    H15  262   1.758   2.113   0.550  0.3203  0.1115  1.4512
   58c3c     C8  263   1.929   2.220   0.472 -0.2989 -0.0214  0.2618
   58c3c    H16  264   1.966   2.232   0.574  1.4245 -0.7506 -0.2414
   58c3c    H17  265   1.873   2.309   0.443 -2.6142 -2.2664 -2.3963
   58c3c    H18  266   2.018   2.214   0.408  1.2099 -3.4816  2.5046
   59c3c      N  267   1.147   3.219   2.133 -0.1105 -0.4206 -0.1161
   59c3c     C1  268   1.157   3.071   2.138  0.3479  0.2051 -0.4544
   59c3c     C2  269   1.055   3.233   2.021 -0.0696  0.2463 -0.8574
   59c3c     C3  270   1.019   3.019   2.113 -0.0048 -0.4142  0.6309
   59c3c     C4  271   0.943   3.128   2.036 -0.2205 -0.4562  0.8371
   59c3c     C5  272   1.094   3.273   2.258 -0.0187  0.4807  0.8735
   59c3c     C6  273   1.278   3.289   2.110 -0.2654 -0.5165  0.5610
   59c3c     H1  274   1.206   3.024   2.224 -2.7180  1.0933  1.8944
   59c3c     H2  275   1.215   3.033   2.054 -1.0241  1.5621 -2.0581
   59c3c     H3  276   1.020   3.336   2.025  0.0751  0.2362  1.9735
   59c3c     H4  277   1.102   3.211   1.925 -0.7163 -1.0646 -0.8877
   59c3c     H5  278   0.982   3.002   2.214 -0.1699  1.1158  0.8312
   59c3c     H6  279   1.021   2.925   2.058 -2.2719  0.0080 -0.2189
   59c3c     H7  280   0.858   3.168   2.092  1.0686  0.8043  1.9365
   59c3c     H8  281   0.903   3.102   1.938  0.5135 -0.3050  0.4933
   59c3c     H9  282   1.152   3.239   2.344  2.9882  3.0642 -0.0265
   59c3c    H10  283   1.105   3.382   2.250  1.1141  0.4982  2.3676
   59c3c    H11  284   0.994   3.245   2.290 -0.7407 -0.0588 -1.7390
   59c3c    H12  285   1.262   3.396   2.102  1.7838 -0.3494 -1.9955
   59c3c    H13  286   1.348   3.275   2.192  0.6656 -1.5272 -0.3875
   59c3c     C7  287   1.341   3.263   1.973 -0.5955 -0.4598 -0.2460
   59c3c    H14  288   1.284   3.306   1.891 -1.6413 -0.7626  0.3087
   59c3c    H15  289   1.362   3.158   1.952 -1.1204 -1.0949  2.1895
   59c3c     C8  290   1.482   3.333   1.963  0.4219  0.0016  0.2215
   59c3c    H16  291   1.474   3.442   1.965  0.2754  0.0097 -0.4446
   59c3c    H17  292   1.536   3.315   1.870 -0.8221 -2.0979 -0.1151
   59c3c    H18  293   1.549   3.302   2.043  0.2440 -0.7056  0.1005
   60c3c      N  294   2.556   0.229   1.446  0.3859  0.2321  0.6785
   60c3c     C1  295   2.637   0.132   1.514  0.6717 -0.0607 -0.2851
   60c3c     C2  296   2.421   0.167   1.432 -0.1460  0.1459 -0.4813
   60c3c     C3  297   2.543   0.060   1.605 -0.3329  0.1050 -0.0879
   60c3c     C4  298   2.401   0.103   1.565 -0.5908  0.0897 -0.1177
   60c3c     C5  299   2.558   0.344   1.539 -0.3564 -0.5019 -0.3273
   60c3c     C6  300   2.617   0.269   1.316 -0.2464  0.0032  0.7619
   60c3c     H1  301   2.723   0.179   1.561 -0.3815  1.7630 -0.1409
   60c3c     H2  302   2.674   0.058   1.442  1.3143 -0.8667  0.8548
   60c3c     H3  303   2.347   0.243   1.407  0.3936  0.2744 -1.7575
   60c3c     H4  304   2.421   0.083   1.362  0.2887 -0.6736  0.4833
   60c3c     H5  305   2.568   0.075   1.710  2.5009 -3.0318 -0.2236
   60c3c     H6  306   2.557  -0.046   1.582 -2.3822 -0.3651  0.7484
   60c3c     H7  307   2.357   0.170   1.639 -0.6705 -0.2539  0.1455
   60c3c     H8  308   2.336   0.016   1.561 -0.1839 -0.1894 -0.8524
   60c3c     H9  309   2.654   0.395   1.540  0.5772 -2.2303  0.4047
   60c3c    H10  310   2.480   0.405   1.492  0.4921  2.1207  1.5924
   60c3c    H11  311   2.527   0.317   1.640  0.1350 -0.5845 -0.1995
   60c3c    H12  312   2.576   0.361   1.275 -0.6369 -0.0743  0.9741
   60c3c    H13  313   2.719   0.305   1.329 -0.1785  0.0121  0.2058
   60c3c     C7  314   2.622   0.158   1.199 -0.4508  0.2492  0.4844
   60c3c    H14  315   2.523   0.125   1.168  0.4746 -0.1931 -2.1038
   60c3c    H15  316   2.677   0.072   1.238  0.0392  1.1407  1.8357
   60c3c     C8  317   2.689   0.221   1.081  0.0305 -0.9766  0.3423
   60c3c    H16  318   2.779   0.270   1.119  0.1349 -1.3950  0.6469
   60c3c    H17  319   2.619   0.295   1.041  1.1169 -1.6129 -2.8002
   60c3c    H18  320   2.702   0.144   1.006  1.0318 -0.8840  0.4110
   61c3c      N  321   0.457   1.985   2.545  0.0405  0.2396  0.3837
   61c3c     C1  322   0.380   2.066   2.453 -0.6026  0.5352 -0.7163
   61c3c     C2  323   0.489   2.070   2.659  0.3260 -0.4457 -0.4596
   61c3c     C3  324   0.306   2.165   2.547 -0.5785  0.0997 -0.3156
   61c3c     C4  325   0.363   2.150   2.687 -0.0255  0.0803  0.0374
   61c3c     C5  326   0.363   1.884   2.592 -0.1851  0.3439 -0.4450
   61c3c     C6  327   0.576   1.920   2.492  0.1355  0.5480 -0.2649
   61c3c     H1  328   0.300   2.019   2.396 -2.0338  0.4251  1.3155
   61c3c     H2  329   0.434   2.135   2.388  1.1916 -0.5075 -0.3755
   61c3c     H3  330   0.534   2.006   2.734 -0.2432 -1.4978 -1.0081
   61c3c     H4  331   0.572   2.137   2.637  0.3082  0.7233  2.8722
   61c3c     H5  332   0.198   2.149   2.550 -0.5369  0.0561  2.9770
   61c3c     H6  333   0.330   2.266   2.516 -0.6822 -0.4503 -2.2548
   61c3c     H7  334   0.296   2.092   2.750 -1.3923  2.0982  0.4599
   61c3c     H8  335   0.388   2.237   2.747 -1.1169  1.0683 -0.9330
   61c3c     H9  336   0.337   1.817   2.510  0.4476 -0.0191 -0.3547
   61c3c    H10  337   0.408   1.826   2.673  1.6390  1.8354 -0.3630
   61c3c    H11  338   0.264   1.921   2.618 -0.3509  1.8855 -3.1065
   61c3c    H12  339   0.603   1.839   2.560 -2.4244  1.9606  2.5266
   61c3c    H13  340   0.551   1.855   2.408 -0.4778  0.1062  0.2594
   61c3c     C7  341   0.709   2.007   2.463 -0.2624  0.0560  0.5684
   61c3c    H14  342   0.753   2.041   2.557 -0.5180  0.7930  0.4258
   61c3c    H15  343   0.682   2.099   2.410 -3.0397 -0.9317  0.1567
   61c3c     C8  344   0.804   1.928   2.381  0.4042  0.7615 -1.3272
   61c3c    H16  345   0.903   1.971   2.390  1.2767 -1.4304 -0.0103
   61c3c    H17  346   0.759   1.901   2.285 -3.6824  1.4557  0.2718
   61c3c    H18  347   0.821   1.841   2.445  0.1158  0.2153 -1.9882
   62c3c      N  348   2.105   1.170   2.017 -0.6925 -0.1000 -0.0463
   62c3c     C1  349   2.069   1.024   2.015 -0.0614 -0.6442  0.4607
   62c3c     C2  350   1.971   1.227   2.039 -0.1678  0.8728 -0.3695
   62c3c     C3  351   1.953   1.007   2.119 -0.0868  0.3485  0.9106
   62c3c     C4  352   1.909   1.144   2.148  0.3906 -0.2289  0.4274
   62c3c     C5  353   2.198   1.194   2.130 -0.3498  0.9702  0.7015
   62c3c     C6  354   2.159   1.223   1.894  0.1954  0.6050 -0.6985
   62c3c     H1  355   2.150   0.959   2.048  1.1771  1.0428  0.7534
   62c3c     H2  356   2.031   0.995   1.916  2.7042  1.2167 -1.2219
   62c3c     H3  357   1.963   1.330   2.075 -0.1247  0.8126 -0.1849
   62c3c     H4  358   1.902   1.219   1.954 -0.2855 -2.6867 -0.0331
   62c3c     H5  359   1.992   0.965   2.211  0.5515 -0.5605  0.2339
   62c3c     H6  360   1.874   0.953   2.067 -0.8076  1.6849  0.5928
   62c3c     H7  361   1.927   1.182   2.249  1.6331 -1.7816  0.8023
   62c3c     H8  362   1.803   1.139   2.123  0.1644 -1.4106  1.5580
   62c3c     H9  363   2.295   1.146   2.115  0.9115  4.3000 -2.5103
   62c3c    H10  364   2.215   1.300   2.148 -1.6825  1.5831 -1.5508
   62c3c    H11  365   2.153   1.156   2.222 -1.9110  2.2599  0.4831
   62c3c    H12  366   2.176   1.326   1.927 -3.2750  0.6767  1.1083
   62c3c    H13  367   2.249   1.163   1.881  0.3793  1.2082 -2.3607
   62c3c     C7  368   2.084   1.217   1.758  0.4131 -1.2594 -0.2292
   62c3c    H14  369   2.005   1.293   1.765  0.9827 -0.5385 -1.4648
   62c3c    H15  370   2.037   1.122   1.732 -0.9356 -0.8895  0.8087
   62c3c     C8  371   2.181   1.260   1.649  0.2501  0.3313  0.3592
   62c3c    H16  372   2.266   1.193   1.646  1.5789  2.0641 -1.5669
   62c3c    H17  373   2.227   1.354   1.679  0.3968 -0.2847  2.1519
   62c3c    H18  374   2.151   1.263   1.544  1.9443 -1.8885 -0.2163
   63c3c      N  375   1.578   2.316   2.659 -0.5948  0.2221  0.1211
   63c3c     C1  376   1.563   2.338   2.803  0.1813 -0.2941  0.1965
   63c3c     C2  377   1.520   2.435   2.595  0.5931  0.3694 -0.3218
   63c3c     C3  378   1.559   2.490   2.818 -0.2711  0.0092  0.5909
   63c3c     C4  379   1.564   2.549   2.682  0.0801 -0.4948  0.0213
   63c3c     C5  380   1.723   2.303   2.625  0.0776  0.2256 -0.2919
   63c3c     C6  381   1.512   2.188   2.618 -0.2113  0.7327  0.4360
   63c3c     H1  382   1.645   2.292   2.858  1.9448  0.5569 -1.6303
   63c3c     H2  383   1.469   2.307   2.848  0.2834  0.2461  0.7974
   63c3c     H3  384   1.540   2.448   2.489  0.7519  0.1964 -0.3155
   63c3c     H4  385   1.412   2.443   2.606  0.5907  1.0466 -0.8681
   63c3c     H5  386   1.647   2.527   2.870 -1.4627 -0.7817  3.2263
   63c3c     H6  387   1.461   2.519   2.856 -1.5167 -2.7932 -0.3317
   63c3c     H7  388   1.662   2.583   2.646 -1.2914  2.5413 -0.9800
   63c3c     H8  389   1.487   2.626   2.678  0.3736 -0.2707 -1.4493
   63c3c     H9  390   1.778   2.212   2.648  1.9918  1.8873  1.9184
   63c3c    H10  391   1.737   2.305   2.517 -0.4474 -1.2741 -0.3954
   63c3c    H11  392   1.794   2.379   2.660  0.7339 -0.0943 -0.9284
   63c3c    H12  393   1.533   2.172   2.512 -1.8906  0.0947  0.1821
   63c3c    H13  394   1.560   2.110   2.677  2.1527  1.7863 -0.0701
   63c3c     C7  395   1.363   2.168   2.624  0.2803 -1.0689 -0.0525
   63c3c    H14  396   1.304   2.245   2.575 -0.4436 -2.3198 -1.1811
   63c3c    H15  397   1.332   2.172   2.729  1.7690 -3.5589  0.5165
   63c3c     C8  398   1.308   2.033   2.575  0.6660 -0.3165  0.1343
   63c3c    H16  399   1.204   2.018   2.607  1.5565 -1.3004  2.7207
   63c3c    H17  400   1.357   1.943   2.612 -0.2572 -1.9697 -2.5149
   63c3c    H18  401   1.312   2.026   2.467 -0.1638  0.7802  0.0220
   64c3c      N  402   2.689   2.583   2.145 -0.4886  0.2942 -0.9249
   64c3c     C1  403   2.832   2.581   2.104 -0.4085 -0.3179  0.1002
   64c3c     C2  404   2.692   2.683   2.255 -1.1631 -0.7240  0.3724
   64c3c     C3  405   2.893   2.724   2.126 -0.1650  0.4793  0.0046
   64c3c     C4  406   2.780   2.801   2.203 -0.2836 -0.0081 -0.5467
   64c3c     C5  407   2.613   2.640   2.029 -0.1414  0.2093  0.4184
   64c3c     C6  408   2.625   2.453   2.172 -0.3327  0.2725 -0.4271
   64c3c     H1  409   2.843   2.545   2.001 -3.3918 -1.1435  0.0139
   64c3c     H2  410   2.890   2.514   2.168  0.7232 -0.8385 -1.4390
   64c3c     H3  411   2.591   2.721   2.270 -1.4857 -1.4012 -0.0534
   64c3c     H4  412   2.737   2.641   2.345  2.7082 -2.1094 -2.0389
   64c3c     H5  413   2.923   2.774   2.034  0.3592  0.3555  0.1068
   64c3c     H6  414   2.971   2.712   2.202  0.8241  2.9455 -0.5810
   64c3c     H7  415   2.722   2.868   2.139 -1.9858  0.2334  1.2168
   64c3c     H8  416   2.820   2.844   2.294 -3.0277  1.3531  0.0851
   64c3c     H9  417   2.615   2.577   1.940  1.6950  1.0045 -0.1343
   64c3c    H10  418   2.509   2.642   2.060 -0.1672  0.9826  0.2882
   64c3c    H11  419   2.640   2.741   2.000 -2.2929  1.0667  1.2689
   64c3c    H12  420   2.517   2.451   2.192  0.0149  1.5201  1.7852
   64c3c    H13  421   2.637   2.393   2.082  0.2265 -0.4486  0.1213
   64c3c     C7  422   2.686   2.374   2.292  0.5302  0.3426 -0.5324
   64c3c    H14  423   2.668   2.416   2.391  0.5581 -1.2823  0.1773
   64c3c    H15  424   2.794   2.371   2.276  0.7897 -2.7041  1.4690
   64c3c     C8  425   2.625   2.227   2.293 -0.0007 -0.0663 -0.2853
   64c3c    H16  426   2.516   2.225   2.282 -0.2861  0.6111  2.0357
   64c3c    H17  427   2.647   2.184   2.390 -4.0981 -4.0784 -0.9569
   64c3c    H18  428   2.671   2.163   2.218  2.5554 -0.9216  1.9490
   65c3c      N  429   2.964   2.144   1.611 -0.1138 -0.1121 -0.2695
   65c3c     C1  430   2.891   2.057   1.700 -0.1326 -0.3912  0.2190
   65c3c     C2  431   2.984   2.058   1.496  0.9836  0.2000 -0.6360
   65c3c     C3  432   2.797   1.964   1.621 -0.2001 -0.5147  0.1646
   65c3c     C4  433   2.852   1.969   1.473  0.4669  0.6597  0.1040
   65c3c     C5  434   2.869   2.258   1.574 -0.3585  0.3483 -0.2346
   65c3c     C6  435   3.083   2.205   1.672 -0.0867  0.5831 -0.0913
   65c3c     H1  436   2.838   2.110   1.779 -0.5033  0.6082 -0.6833
   65c3c     H2  437   2.969   1.998   1.748 -0.4727 -2.2407 -1.4633
   65c3c     H3  438   3.015   2.101   1.401 -1.7904 -0.8285 -2.0452
   65c3c     H4  439   3.064   1.985   1.512  0.9383  0.4100  0.5851
   65c3c     H5  440   2.696   2.003   1.618 -0.4750 -1.2486 -0.3999
   65c3c     H6  441   2.799   1.859   1.650 -0.0494 -0.0270  1.9361
   65c3c     H7  442   2.783   2.026   1.411  1.6261  1.2391 -0.6648
   65c3c     H8  443   2.865   1.872   1.426 -1.8971 -0.6164  1.9767
   65c3c     H9  444   2.827   2.308   1.662 -2.3618  0.8339 -1.4508
   65c3c    H10  445   2.912   2.337   1.513  1.7044 -1.0148 -0.6002
   65c3c    H11  446   2.788   2.215   1.516  1.7737 -1.3701 -2.0227
   65c3c    H12  447   3.114   2.285   1.606 -0.3289  2.3025  1.8278
   65c3c    H13  448   3.050   2.252   1.765 -0.0136  1.3000 -0.4291
   65c3c     C7  449   3.201   2.106   1.698 -0.0365  0.6230 -0.2281
   65c3c    H14  450   3.240   2.058   1.609  0.6428  2.1742 -0.7698
   65c3c    H15  451   3.166   2.032   1.771 -2.2895  1.5595 -0.3007
   65c3c     C8  452   3.315   2.176   1.771  0.5583 -0.6699  0.3256
   65c3c    H16  453   3.402   2.115   1.797 -1.2157 -3.6130 -0.4724
   65c3c    H17  454   3.276   2.210   1.866  0.7960  1.4056 -0.2879
   65c3c    H18  455   3.358   2.260   1.715 -0.8513 -0.5111 -0.5427
   66c3c      N  456   1.497   2.943   1.408 -0.1715 -0.0116  0.4610
   66c3c     C1  457   1.528   2.808   1.458 -0.7153  0.0441  0.4069
   66c3c     C2  458   1.457   2.926   1.262 -0.3249  0.2938  0.7016
   66c3c     C3  459   1.438   2.708   1.377  0.4797  0.0725 -0.4604
   66c3c     C4  460   1.395   2.786   1.252 -0.3610 -0.8025 -0.6621
   66c3c     C5  461   1.380   2.990   1.483 -0.4253  0.2968  0.6079
   66c3c     C6  462   1.604   3.040   1.427  0.0022  0.0135  1.1027
   66c3c     H1  463   1.516   2.790   1.565 -0.6708 -1.0740  0.2245
   66c3c     H2  464   1.633   2.784   1.439 -0.2074  3.8724 -2.1449
   66c3c     H3  465   1.399   3.007   1.219  0.0606  0.3550  0.2835
   66c3c     H4  466   1.540   2.928   1.191 -1.2085 -1.7391 -0.4522
   66c3c     H5  467   1.357   2.677   1.442 -0.6786  4.6111  0.4484
   66c3c     H6  468   1.492   2.617   1.351  0.4193 -0.5632  1.5813
   66c3c     H7  469   1.286   2.782   1.252 -0.4148  0.3442 -0.2432
   66c3c     H8  470   1.435   2.741   1.161  3.4132  0.1739  0.4069
   66c3c     H9  471   1.421   2.998   1.584  1.5619 -2.5524  0.0903
   66c3c    H10  472   1.351   3.090   1.452 -0.3137  0.3997  0.8323
   66c3c    H11  473   1.293   2.925   1.483 -0.1671 -0.0473  0.3929
   66c3c    H12  474   1.575   3.137   1.385 -0.6283 -1.2615 -1.5151
   66c3c    H13  475   1.621   3.057   1.533  0.2646  2.2531  0.7341
   66c3c     C7  476   1.739   3.000   1.367 -0.2678  0.2211 -0.2821
   66c3c    H14  477   1.725   2.987   1.260 -0.3257 -1.0687 -0.1293
   66c3c    H15  478   1.788   2.916   1.416 -1.3561 -0.1895  0.1020
   66c3c     C8  479   1.840   3.117   1.378 -0.6568 -0.0188  0.0251
   66c3c    H16  480   1.933   3.086   1.330  0.5826 -2.4183  3.8006
   66c3c    H17  481   1.872   3.129   1.482 -0.9128 -0.5681  0.1673
   66c3c    H18  482   1.810   3.215   1.342  0.1759 -0.2217 -1.2564
   67c3c      N  483   0.582   3.150   2.495 -0.5706  0.4276 -0.1569
   67c3c     C1  484   0.583   3.285   2.550  0.3102 -0.3795  0.3746
   67c3c     C2  485   0.437   3.120   2.473 -0.1813 -0.0700 -0.3766
   67c3c     C3  486   0.471   3.360   2.484  0.9299 -0.2710  0.2181
   67c3c     C4  487   0.380   3.252   2.421 -0.1831 -0.1472 -0.1939
   67c3c     C5  488   0.659   3.160   2.365 -0.6883  0.5271  0.1525
   67c3c     C6  489   0.655   3.048   2.579  0.1218 -0.2262  0.1724
   67c3c     H1  490   0.680   3.334   2.537 -0.1765  1.0049  1.8683
   67c3c     H2  491   0.552   3.289   2.654 -0.3418  1.0675  0.1277
   67c3c     H3  492   0.418   3.042   2.400  2.2271 -0.3255 -0.7615
   67c3c     H4  493   0.390   3.115   2.571  1.0378  0.6142  0.2561
   67c3c     H5  494   0.513   3.421   2.404  1.3266  0.4972  1.0035
   67c3c     H6  495   0.409   3.422   2.548 -0.3976 -1.2643 -0.0926
   67c3c     H7  496   0.379   3.258   2.312 -0.7847  2.2331 -0.0908
   67c3c     H8  497   0.275   3.268   2.446 -0.2518  0.1640 -0.6761
   67c3c     H9  498   0.762   3.189   2.387  0.8701 -3.0834 -1.9451
   67c3c    H10  499   0.662   3.061   2.319 -0.0415 -0.1605  1.6422
   67c3c    H11  500   0.627   3.231   2.290  0.4496 -0.0755 -0.9151
   67c3c    H12  501   0.667   2.956   2.522  0.0081  1.0825 -2.0084
   67c3c    H13  502   0.759   3.081   2.589 -0.0739  0.9354 -1.4626
   67c3c     C7  503   0.591   3.019   2.713  0.3691  0.5305 -0.1117
   67c3c    H14  504   0.534   2.929   2.689  2.6775 -0.6514 -1.2934
   67c3c    H15  505   0.518   3.089   2.755  3.1416  2.1396  2.2768
   67c3c     C8  506   0.704   3.010   2.822 -0.2642  1.3974 -0.0190
   67c3c    H16  507   0.732   3.108   2.861  0.0817  2.0166 -1.7369
   67c3c    H17  508   0.794   2.964   2.780 -1.0355  1.0335 -1.2981
   67c3c    H18  509   0.663   2.947   2.901  0.9655  1.4993  0.7065
   68c3c      N  510   0.087   2.858   1.689 -0.5668 -0.1088  0.7791
   68c3c     C1  511   0.066   2.998   1.648 -1.2609 -0.2217 -0.5167
   68c3c     C2  512   0.228   2.842   1.703 -0.1782 -0.7357  0.3010
   68c3c     C3  513   0.185   3.076   1.712 -0.5281 -0.3973  0.0307
   68c3c     C4  514   0.286   2.978   1.762  0.1634  0.2910  1.2256
   68c3c     C5  515   0.024   2.836   1.824 -0.4051 -0.1607  0.5596
   68c3c     C6  516   0.023   2.764   1.598 -0.1772  0.2818  0.1998
   68c3c     H1  517  -0.032   3.033   1.680 -0.2208  0.8756  1.5393
   68c3c     H2  518   0.074   3.003   1.539 -1.0051 -1.0126 -0.5403
   68c3c     H3  519   0.269   2.755   1.754  2.0702  0.2574  0.2865
   68c3c     H4  520   0.267   2.848   1.601 -1.2672  0.6204 -0.0512
   68c3c     H5  521   0.146   3.136   1.794 -0.1329 -1.3601  0.9444
   68c3c     H6  522   0.234   3.143   1.641  0.2161  0.2677  1.1522
   68c3c     H7  523   0.280   2.980   1.870  1.8018  2.6330  1.3022
   68c3c     H8  524   0.387   3.009   1.735 -0.5038  1.3940 -0.0904
   68c3c     H9  525  -0.079   2.866   1.844 -0.9089 -1.2133 -0.4127
   68c3c    H10  526   0.019   2.730   1.848 -3.4898 -1.0561 -3.4778
   68c3c    H11  527   0.081   2.884   1.903  2.6124  0.1274 -1.7019
   68c3c    H12  528   0.039   2.664   1.636 -2.6992 -0.6142 -0.9521
   68c3c    H13  529  -0.085   2.783   1.600 -0.2019  0.2673 -0.6567
   68c3c     C7  530   0.056   2.760   1.449  0.2766 -0.2089 -0.1608
   68c3c    H14  531   0.162   2.769   1.424  0.7197 -2.4807  0.7663
   68c3c    H15  532   0.007   2.841   1.395 -2.4126 -1.9645 -0.4603
   68c3c     C8  533   0.012   2.623   1.390 -0.1073 -0.7186  0.2616
   68c3c    H16  534  -0.096   2.610   1.381 -0.5239  2.3925  0.0413
   68c3c    H17  535   0.055   2.534   1.436  1.0183 -0.7828 -0.9058
   68c3c    H18  536   0.046   2.614   1.287  0.7946 -0.0320  0.4878
   69c3c      N  537   2.299   2.031   0.980 -0.0108 -0.5503 -0.1964
   69c3c     C1  538   2.190   1.943   1.022 -0.4403  0.4634 -0.7323
   69c3c     C2  539   2.295   2.030   0.835  0.4942 -0.0405 -0.0033
   69c3c     C3  540   2.076   2.003   0.939  0.0297 -0.5717 -0.0412
   69c3c     C4  541   2.146   2.057   0.811 -0.5403 -0.5575  0.0039
   69c3c     C5  542   2.278   2.158   1.045 -0.3691 -0.4771  0.3528
   69c3c     C6  543   2.428   1.982   1.028  0.3342  0.4582 -0.2287
   69c3c     H1  544   2.164   1.948   1.128 -1.2730 -0.3952 -0.8860
   69c3c     H2  545   2.208   1.839   0.993 -2.0514 -0.3355  0.9917
   69c3c     H3  546   2.356   2.102   0.781 -1.8178  1.1971 -1.0536
   69c3c     H4  547   2.307   1.931   0.791  0.0797  0.4182 -1.1891
   69c3c     H5  548   2.032   2.090   0.988  0.0646  1.0334 -2.7160
   69c3c     H6  549   1.997   1.939   0.900 -0.0094 -1.5952  1.7097
   69c3c     H7  550   2.123   2.163   0.796 -0.2313 -0.5046 -0.1093
   69c3c     H8  551   2.106   2.000   0.727 -0.6896 -1.6632  0.8176
   69c3c     H9  552   2.269   2.148   1.153 -0.1012 -0.5759  0.3681
   69c3c    H10  553   2.368   2.219   1.031  1.9671 -4.3834 -2.7715
   69c3c    H11  554   2.202   2.223   1.002 -1.6203 -2.3009 -0.2264
   69c3c    H12  555   2.502   2.049   0.985 -0.6930  2.4775  1.0692
   69c3c    H13  556   2.439   1.996   1.136  1.6881  0.5295 -0.3690
   69c3c     C7  557   2.474   1.831   1.004 -0.8564 -0.0882 -0.4853
   69c3c    H14  558   2.448   1.786   0.908  0.6201 -1.7318 -0.1510
   69c3c    H15  559   2.427   1.766   1.079 -1.8248  2.3117  1.0368
   69c3c     C8  560   2.629   1.825   1.020 -0.4843 -0.7806 -0.0204
   69c3c    H16  561   2.654   1.720   1.003 -1.7324 -0.8796 -1.2606
   69c3c    H17  562   2.679   1.854   1.113 -0.5548 -3.2154  0.8136
   69c3c    H18  563   2.677   1.871   0.934  0.0207  0.7463  1.0528
   70c3c      N  564   0.103   3.432   1.318 -0.4641  0.1568 -0.7439
   70c3c     C1  565   0.194   3.417   1.200  0.4612 -0.4179  0.1890
   70c3c     C2  566  -0.002   3.337   1.292  0.4900  0.7394  0.0053
   70c3c     C3  567   0.182   3.270   1.153 -0.7765 -0.2948 -0.2368
   70c3c     C4  568   0.056   3.220   1.210  0.2350  0.5124  0.0937
   70c3c     C5  569   0.165   3.397   1.446 -0.3629 -0.6630  0.1720
   70c3c     C6  570   0.052   3.567   1.341 -0.1597 -0.3842 -0.4043
   70c3c     H1  571   0.294   3.452   1.225 -0.3232  2.0022  0.1107
   70c3c     H2  572   0.181   3.477   1.110  0.4590 -2.0688 -0.9277
   70c3c     H3  573  -0.060   3.315   1.381  2.3025 -1.0221  0.7658
   70c3c     H4  574  -0.076   3.380   1.224 -1.2702  0.7038  1.8439
   70c3c     H5  575   0.265   3.207   1.184 -0.8170 -0.3702 -0.2812
   70c3c     H6  576   0.193   3.269   1.044  1.2697 -1.9571 -0.0377
   70c3c     H7  577   0.074   3.136   1.278 -3.0666 -0.5246 -0.2172
   70c3c     H8  578  -0.015   3.169   1.145  0.7088 -1.7001  1.2451
   70c3c     H9  579   0.249   3.466   1.458 -0.2922 -0.3506 -1.8631
   70c3c    H10  580   0.096   3.419   1.527  0.4571  0.4156  0.5980
   70c3c    H11  581   0.201   3.295   1.458 -2.2212 -1.1789  1.6360
   70c3c    H12  582  -0.019   3.569   1.423  0.8978  0.4667  0.5107
   70c3c    H13  583   0.139   3.627   1.367 -0.1425 -1.0742  1.1960
   70c3c     C7  584  -0.013   3.641   1.212 -0.2435 -0.9922  0.2449
   70c3c    H14  585  -0.114   3.603   1.200 -1.1772  2.2385 -2.7936
   70c3c    H15  586   0.041   3.623   1.119 -0.2329  0.3569 -0.0179
   70c3c     C8  587  -0.015   3.799   1.216 -0.3060  0.1946 -0.1009
   70c3c    H16  588  -0.060   3.842   1.306  0.8780  0.0753  0.5647
   70c3c    H17  589  -0.063   3.830   1.124  0.2281 -2.1639 -1.2069
   70c3c    H18  590   0.091   3.825   1.221  0.1917 -1.2445 -2.3093
   71c3c      N  591   3.024   3.218   1.777 -0.2840  0.2794 -0.2151
   71c3c     C1  592   2.898   3.242   1.704  0.8624  0.0793 -0.8462
   71c3c     C2  593   2.987   3.267   1.915 -0.4589  0.6752  0.7003
   71c3c     C3  594   2.783   3.211   1.805  1.0941  0.2545  0.8564
   71c3c     C4  595   2.842   3.228   1.944  0.2051 -0.7666  0.2443
   71c3c     C5  596   3.046   3.073   1.765  0.0397 -0.3343  0.3677
   71c3c     C6  597   3.143   3.282   1.720 -1.1199  0.1447 -0.0668
   71c3c     H1  598   2.890   3.181   1.614 -0.1177  0.1715 -0.8273
   71c3c     H2  599   2.883   3.344   1.668 -0.4589 -0.1005 -0.8396
   71c3c     H3  600   3.056   3.222   1.986  2.0846 -0.5154 -2.4000
   71c3c     H4  601   2.991   3.376   1.912 -2.7853  0.7650 -1.0447
   71c3c     H5  602   2.746   3.110   1.789 -1.9070  1.5113 -0.7035
   71c3c     H6  603   2.701   3.283   1.799 -1.6717 -2.9640 -1.1422
   71c3c     H7  604   2.836   3.140   2.008  1.1510 -0.0871  1.2701
   71c3c     H8  605   2.791   3.305   2.002  1.2913  0.3509 -0.2697
   71c3c     H9  606   3.074   3.035   1.667  1.0102 -1.1422  0.9458
   71c3c    H10  607   3.124   3.038   1.833 -0.8312  0.7160  1.9408
   71c3c    H11  608   2.959   3.021   1.806 -0.5632  0.5801  0.2492
   71c3c    H12  609   3.233   3.243   1.766 -0.0235 -0.0664 -2.2895
   71c3c    H13  610   3.136   3.248   1.616 -0.0198 -0.5252  0.0735
   71c3c     C7  611   3.146   3.440   1.718 -0.9930 -0.3010 -0.6472
   71c3c    H14  612   3.164   3.478   1.819 -0.6606  1.9421 -1.5337
   71c3c    H15  613   3.054   3.479   1.675 -1.3513  0.0410  0.4148
   71c3c     C8  614   3.264   3.490   1.637  0.6547 -0.0323  0.0959
   71c3c    H16  615   3.352   3.450   1.686  0.3306 -0.6265  0.1909
   71c3c    H17  616   3.256   3.599   1.636  0.7209 -0.0292 -0.2840
   71c3c    H18  617   3.263   3.452   1.535 -1.5275 -1.3507  0.5905
   72c3c      N  618   1.450   0.697   0.344 -0.1215  0.5487  0.1263
   72c3c     C1  619   1.454   0.603   0.227  0.2810 -0.0569 -0.3525
   72c3c     C2  620   1.318   0.680   0.401 -0.8954 -0.1258 -0.5492
   72c3c     C3  621   1.364   0.482   0.262  0.1644  0.1196 -0.1459
   72c3c     C4  622   1.282   0.530   0.376  0.3129 -0.8864 -0.2481
   72c3c     C5  623   1.558   0.650   0.438 -0.2937 -0.1144 -0.1733
   72c3c     C6  624   1.483   0.843   0.313  0.1834  0.9070 -0.1671
   72c3c     H1  625   1.555   0.580   0.194 -0.8260 -0.6419 -3.4587
   72c3c     H2  626   1.418   0.652   0.136 -0.2317  0.9165  0.3629
   72c3c     H3  627   1.308   0.730   0.497 -2.5618 -0.6870 -0.4106
   72c3c     H4  628   1.252   0.724   0.326  3.9889  3.5092 -3.0134
   72c3c     H5  629   1.433   0.398   0.278 -0.1613  0.0482  0.8957
   72c3c     H6  630   1.303   0.455   0.176  2.4183 -0.0907 -1.7409
   72c3c     H7  631   1.300   0.482   0.472  2.3472  0.3449  0.0206
   72c3c     H8  632   1.176   0.509   0.363  0.0547 -0.9189  1.7612
   72c3c     H9  633   1.657   0.680   0.406  0.5799 -0.1526  2.3831
   72c3c    H10  634   1.551   0.697   0.536 -0.3667  0.3185 -0.3852
   72c3c    H11  635   1.563   0.541   0.451 -1.1510 -0.2002 -0.4819
   72c3c    H12  636   1.475   0.896   0.408 -2.2170  1.9556 -0.9170
   72c3c    H13  637   1.580   0.855   0.265 -0.6864  0.6269 -2.0359
   72c3c     C7  638   1.382   0.918   0.217 -0.2643 -0.4433  0.1355
   72c3c    H14  639   1.284   0.921   0.266  0.8608 -0.8893  2.4767
   72c3c    H15  640   1.370   0.861   0.125  0.8856 -1.8171  0.8247
   72c3c     C8  641   1.433   1.056   0.173  0.2990 -0.0256 -0.2180
   72c3c    H16  642   1.529   1.049   0.122 -0.4000 -3.8062 -1.2380
   72c3c    H17  643   1.434   1.131   0.251 -0.8747 -0.4609  0.2280
   72c3c    H18  644   1.362   1.094   0.099  0.4046 -1.4143 -1.0646
   73c3c      N  645   1.988   1.420   3.397 -0.5361 -0.0085 -0.1151
   73c3c     C1  646   1.881   1.334   3.333  0.8090 -0.3534 -0.0749
   73c3c     C2  647   1.897   1.509   3.479  0.6595 -0.0450  0.8684
   73c3c     C3  648   1.784   1.292   3.449  0.3946 -0.8733  0.0818
   73c3c     C4  649   1.789   1.418   3.540  0.8772  0.5327  0.1042
   73c3c     C5  650   2.080   1.343   3.483  0.0688 -0.3192 -0.5088
   73c3c     C6  651   2.077   1.491   3.302 -0.2799 -0.7030 -0.0287
   73c3c     H1  652   1.929   1.245   3.291  2.6657  0.2714  0.6742
   73c3c     H2  653   1.830   1.391   3.256 -0.1908 -1.9281 -0.6125
   73c3c     H3  654   1.952   1.564   3.556 -0.0432  2.7015 -0.5224
   73c3c     H4  655   1.842   1.584   3.422  0.9210  0.0543  0.7419
   73c3c     H5  656   1.814   1.204   3.505  1.3512  0.8139  2.3080
   73c3c     H6  657   1.683   1.281   3.409  0.6027  0.6746 -0.9012
   73c3c     H7  658   1.795   1.401   3.647 -0.1442 -1.1505 -0.0781
   73c3c     H8  659   1.699   1.477   3.520  1.6897  1.6498 -0.3008
   73c3c     H9  660   2.145   1.414   3.535  0.7654 -1.4751  0.2430
   73c3c    H10  661   2.012   1.299   3.557 -0.2426  3.1528  1.3725
   73c3c    H11  662   2.128   1.257   3.437  1.0863  0.1207 -0.2945
   73c3c    H12  663   2.134   1.562   3.361 -0.9289 -1.1428  1.1365
   73c3c    H13  664   2.158   1.430   3.261 -0.1073 -1.6772  1.6999
   73c3c     C7  665   2.004   1.560   3.184 -0.1123  0.0191 -0.6598
   73c3c    H14  666   1.927   1.628   3.220  1.4543  0.3439  2.2224
   73c3c    H15  667   1.953   1.487   3.121  0.8393 -0.7207 -0.5938
   73c3c     C8  668   2.096   1.642   3.096 -0.5654 -0.2213 -0.1344
   73c3c    H16  669   2.171   1.584   3.042 -0.5114  0.1550 -0.4662
   73c3c    H17  670   2.141   1.715   3.163 -0.0068 -0.0991 -0.6403
   73c3c    H18  671   2.034   1.700   3.027  1.3469 -0.3250 -1.9745
   74c3c      N  672   0.808   2.161   1.748  0.9054 -0.0772 -0.0917
   74c3c     C1  673   0.705   2.245   1.804 -0.8593 -0.6953  0.0616
   74c3c     C2  674   0.748   2.117   1.622  0.4146  0.5562 -0.6268
   74c3c     C3  675   0.661   2.332   1.694  0.1758 -0.0134  0.1078
   74c3c     C4  676   0.686   2.246   1.571 -0.2395  0.4969  0.0600
   74c3c     C5  677   0.940   2.220   1.714  0.5541  0.6606 -0.7853
   74c3c     C6  678   0.835   2.052   1.842  0.0593 -0.2597  0.1718
   74c3c     H1  679   0.736   2.290   1.899  0.5315 -1.4532 -0.0336
   74c3c     H2  680   0.613   2.190   1.826 -0.6821 -1.3921 -0.9175
   74c3c     H3  681   0.819   2.061   1.562  1.7753  0.5562  0.9646
   74c3c     H4  682   0.676   2.039   1.646 -0.6827  1.6456 -0.3145
   74c3c     H5  683   0.719   2.424   1.689 -1.0729  0.9093  1.9798
   74c3c     H6  684   0.557   2.363   1.695 -0.0855 -0.8600 -0.0708
   74c3c     H7  685   0.763   2.289   1.507 -0.0596  0.3184  0.1536
   74c3c     H8  686   0.595   2.239   1.512  0.0911 -1.5137 -0.2433
   74c3c     H9  687   0.983   2.260   1.806 -1.5398  1.5742 -0.1466
   74c3c    H10  688   1.009   2.142   1.682 -0.2602 -0.0078 -0.9602
   74c3c    H11  689   0.940   2.295   1.635  1.2158  0.5266 -0.9104
   74c3c    H12  690   0.905   1.980   1.800 -0.8727 -1.0247 -0.0932
   74c3c    H13  691   0.885   2.101   1.925  1.7007 -3.9671  1.5099
   74c3c     C7  692   0.717   1.970   1.905  0.7102  0.6423  0.6856
   74c3c    H14  693   0.649   1.943   1.824  1.5299  1.3041 -0.2261
   74c3c    H15  694   0.670   2.030   1.982 -0.9434 -0.8590  0.8777
   74c3c     C8  695   0.763   1.837   1.979 -0.7436 -0.0341  0.7703
   74c3c    H16  696   0.680   1.777   2.013 -0.3212 -1.1021 -0.0576
   74c3c    H17  697   0.818   1.860   2.071  0.1354 -1.9762  0.7594
   74c3c    H18  698   0.824   1.774   1.914  1.3522  3.9313 -1.3288
   75c3c      N  699   1.879   0.478   2.532  0.3792  0.8128  0.1869
   75c3c     C1  700   1.904   0.532   2.397 -0.3605 -0.2905  0.1420
   75c3c     C2  701   1.812   0.597   2.597 -0.1030  0.3563 -0.1831
   75c3c     C3  702   1.782   0.610   2.350 -0.3549 -0.2670  0.0068
   75c3c     C4  703   1.722   0.655   2.483  0.1936  0.6369 -0.0850
   75c3c     C5  704   1.793   0.352   2.519 -0.3292 -0.0444  0.7421
   75c3c     C6  705   1.998   0.429   2.600 -0.5559 -0.0075 -0.2904
   75c3c     H1  706   1.947   0.453   2.335  2.0978  0.5290  0.7428
   75c3c     H2  707   1.989   0.599   2.399  0.4191 -1.1643 -2.0676
   75c3c     H3  708   1.753   0.580   2.687 -0.3609 -0.9768 -0.5840
   75c3c     H4  709   1.887   0.674   2.612  0.6881 -0.2990 -0.7458
   75c3c     H5  710   1.713   0.544   2.296  0.9319 -0.4684 -1.4232
   75c3c     H6  711   1.805   0.693   2.283 -0.5816 -1.2205 -1.2759
   75c3c     H7  712   1.627   0.602   2.488  1.4599 -1.5069  3.2085
   75c3c     H8  713   1.711   0.763   2.477  0.2717  0.6532  0.0531
   75c3c     H9  714   1.849   0.273   2.470 -1.5464 -0.2618 -0.3188
   75c3c    H10  715   1.770   0.310   2.617  2.2172 -0.8444  1.0448
   75c3c    H11  716   1.698   0.358   2.465  0.3852 -3.6663 -1.1069
   75c3c    H12  717   1.984   0.407   2.706  1.1981 -0.0770 -0.0659
   75c3c    H13  718   2.027   0.329   2.568 -0.5585  0.3151 -1.3256
   75c3c     C7  719   2.127   0.513   2.600 -0.5399  0.1357  0.4924
   75c3c    H14  720   2.113   0.610   2.647 -0.4818  1.6728 -2.5264
   75c3c    H15  721   2.148   0.536   2.496  0.1820  0.0010  0.6038
   75c3c     C8  722   2.243   0.421   2.657  0.3148 -1.0827  0.6123
   75c3c    H16  723   2.270   0.353   2.576 -1.5110  0.0021 -0.9493
   75c3c    H17  724   2.215   0.378   2.753  1.9859 -2.0631  0.6708
   75c3c    H18  725   2.335   0.472   2.686 -0.7803  0.1804  1.9073
   76c3c      N  726   2.263   2.128   2.891 -0.8030  0.3555  0.2767
   76c3c     C1  727   2.360   2.128   2.782  0.1994  0.2296  0.5666
   76c3c     C2  728   2.139   2.158   2.824  0.1058  0.2008 -0.4736
   76c3c     C3  729   2.292   2.074   2.658  0.1098  0.8230 -0.0637
   76c3c     C4  730   2.143   2.081   2.690  0.0225 -0.2455  0.7030
   76c3c     C5  731   2.253   1.991   2.941  0.3735  0.1325 -0.2519
   76c3c     C6  732   2.313   2.223   2.999  0.4717  0.4925  0.3962
   76c3c     H1  733   2.445   2.063   2.805 -0.8571 -0.9771  1.1216
   76c3c     H2  734   2.391   2.227   2.748 -0.2620 -0.1665 -1.0675
   76c3c     H3  735   2.054   2.132   2.887 -0.3575 -0.4113 -1.3500
   76c3c     H4  736   2.132   2.265   2.803 -0.4269  0.5111  1.2134
   76c3c     H5  737   2.321   1.972   2.633 -2.0912  0.8025 -2.7914
   76c3c     H6  738   2.311   2.139   2.572  1.3379 -0.0813 -0.4917
   76c3c     H7  739   2.098   1.984   2.712  1.5036 -1.0217  0.3200
   76c3c     H8  740   2.083   2.118   2.607 -2.0575 -1.6906  1.5031
   76c3c     H9  741   2.349   1.962   2.983 -0.5180 -0.9191  1.1129
   76c3c    H10  742   2.184   1.997   3.026  2.2801 -0.0243  1.3396
   76c3c    H11  743   2.229   1.910   2.873 -2.9006 -0.1451  1.1298
   76c3c    H12  744   2.237   2.208   3.076 -1.4531  0.3187 -1.4984
   76c3c    H13  745   2.406   2.182   3.038  0.6805  1.4669  0.9400
   76c3c     C7  746   2.324   2.379   2.970 -0.6914  0.9273 -0.2535
   76c3c    H14  747   2.221   2.415   2.956 -2.9847 -5.1073 -0.3586
   76c3c    H15  748   2.381   2.409   2.882 -2.7997 -0.0477 -2.0164
   76c3c     C8  749   2.385   2.444   3.086 -0.7537 -0.1785  0.6851
   76c3c    H16  750   2.383   2.552   3.073  2.6860 -0.4307 -2.8756
   76c3c    H17  751   2.480   2.403   3.119 -1.3285  0.9123  3.8398
   76c3c    H18  752   2.328   2.420   3.176 -0.1851 -1.8521  0.6226
   77c3c      N  753   2.094   1.981   2.003  0.2489  0.6214 -0.2674
   77c3c     C1  754   2.207   1.896   1.978 -0.1764  0.1107  0.2965
   77c3c     C2  755   2.073   1.959   2.143 -0.0870  0.7884 -0.5209
   77c3c     C3  756   2.303   1.923   2.099  0.0240 -0.2405 -0.8268
   77c3c     C4  757   2.207   1.958   2.210  0.3941 -0.5567 -0.6090
   77c3c     C5  758   2.122   2.121   1.979 -0.8058 -0.3377  0.7430
   77c3c     C6  759   1.977   1.950   1.919 -0.1187  1.1367 -0.5303
   77c3c     H1  760   2.246   1.921   1.879 -0.1596  2.1368  0.7947
   77c3c     H2  761   2.189   1.789   1.977  1.8687 -0.2643  1.4598
   77c3c     H3  762   2.007   2.030   2.192  0.2731  2.5517 -2.4901
   77c3c     H4  763   2.038   1.858   2.164  2.9845  0.0569  1.2917
   77c3c     H5  764   2.365   2.009   2.072  0.0338  0.3615  1.0318
   77c3c     H6  765   2.352   1.830   2.127 -3.4491 -2.0372 -0.4264
   77c3c     H7  766   2.238   2.054   2.252 -1.7074 -0.8163  1.7135
   77c3c     H8  767   2.217   1.880   2.285 -1.6755 -1.0634 -0.8470
   77c3c     H9  768   2.159   2.142   1.879 -1.6039 -0.2696  0.4624
   77c3c    H10  769   2.027   2.169   2.001 -1.1760 -1.1966  1.0454
   77c3c    H11  770   2.203   2.153   2.045  0.6142  0.0768 -1.1368
   77c3c    H12  771   1.898   2.023   1.937  0.4881  1.7181 -0.1912
   77c3c    H13  772   1.997   1.959   1.813 -1.0067 -0.2215 -0.8253
   77c3c     C7  773   1.906   1.808   1.917 -0.5880 -0.0327  0.1961
   77c3c    H14  774   1.867   1.779   2.014  0.2043 -0.0841  0.5035
   77c3c    H15  775   1.976   1.729   1.890 -0.7324  0.1316 -0.6668
   77c3c     C8  776   1.799   1.808   1.807  0.1645 -0.2848 -0.1896
   77c3c    H16  777   1.711   1.864   1.840  0.7593  0.9824 -0.7210
   77c3c    H17  778   1.770   1.706   1.780  0.6132 -0.1610 -1.1631
   77c3c    H18  779   1.830   1.854   1.713 -0.6835  1.7932  0.5302
   78c3c      N  780   3.055   0.674   0.862 -0.7686 -1.2008  0.5393
   78c3c     C1  781   2.928   0.739   0.823  0.2768 -0.1951  0.1849
   78c3c     C2  782   3.131   0.707   0.740  0.2641 -0.3586  0.3610
   78c3c     C3  783   2.963   0.874   0.757 -0.2143 -0.1201 -0.2531
   78c3c     C4  784   3.097   0.853   0.688 -0.1491  0.6098 -0.1346
   78c3c     C5  785   3.115   0.741   0.978 -0.2247 -0.4756  0.2896
   78c3c     C6  786   3.046   0.532   0.894 -0.5883 -0.5142  0.5015
   78c3c     H1  787   2.853   0.744   0.902 -2.2631  2.7376 -2.2757
   78c3c     H2  788   2.881   0.676   0.747  0.0132 -0.0606  0.2376
   78c3c     H3  789   3.235   0.677   0.749  0.2663  0.2793  2.7439
   78c3c     H4  790   3.095   0.640   0.663  1.0756  1.7009 -1.9001
   78c3c     H5  791   2.979   0.950   0.834  1.1268 -0.2907 -0.3545
   78c3c     H6  792   2.887   0.909   0.688 -1.0169 -1.4589 -0.0707
   78c3c     H7  793   3.168   0.933   0.708 -0.8043  0.2863  3.9012
   78c3c     H8  794   3.100   0.841   0.580  0.8595  1.1149 -0.1641
   78c3c     H9  795   3.073   0.714   1.075  1.7543  0.8559  1.5603
   78c3c    H10  796   3.219   0.712   0.992 -0.0594 -0.4677 -0.8269
   78c3c    H11  797   3.109   0.849   0.964  0.3192 -0.5005 -0.1405
   78c3c    H12  798   3.150   0.507   0.915 -0.5694 -0.6825  0.2058
   78c3c    H13  799   2.991   0.518   0.988 -1.4099  0.3725  0.1632
   78c3c     C7  800   2.987   0.431   0.790 -0.1738  0.0476 -0.3865
   78c3c    H14  801   3.047   0.431   0.699 -0.7287  2.7251 -0.7849
   78c3c    H15  802   2.887   0.448   0.751  0.4502 -0.8701 -2.4492
   78c3c     C8  803   2.976   0.287   0.844 -1.0007 -0.2530  0.1496
   78c3c    H16  804   2.873   0.276   0.878 -0.6936 -0.2370  1.1202
   78c3c    H17  805   3.040   0.275   0.932  1.8853  0.3960 -1.7949
   78c3c    H18  806   2.995   0.213   0.767 -2.0232  0.4264 -0.7579
   79c3c      N  807   1.387   1.698   2.160  0.2642 -0.3800  0.0966
   79c3c     C1  808   1.335   1.784   2.264  0.2509 -0.5621  0.4417
   79c3c     C2  809   1.261   1.622   2.126 -0.7756  0.5185  0.0710
   79c3c     C3  810   1.193   1.832   2.223  0.0386 -0.1374  1.0497
   79c3c     C4  811   1.146   1.720   2.135 -0.1914  0.4608  0.0760
   79c3c     C5  812   1.442   1.784   2.052 -1.0153  0.1153  0.8641
   79c3c     C6  813   1.508   1.613   2.193 -0.1304  0.1346 -0.0224
   79c3c     H1  814   1.395   1.864   2.308  1.4189 -0.7214 -0.8302
   79c3c     H2  815   1.312   1.723   2.351 -1.2631 -0.2880  0.2461
   79c3c     H3  816   1.262   1.577   2.026 -1.2060  2.7823 -0.9678
   79c3c     H4  817   1.248   1.530   2.183  0.9885  0.5222  0.5130
   79c3c     H5  818   1.194   1.933   2.183 -2.1767 -0.2710  0.6170
   79c3c     H6  819   1.131   1.833   2.313  0.4681 -0.1638  1.3465
   79c3c     H7  820   1.135   1.760   2.034 -2.3992 -2.8468 -1.0452
   79c3c     H8  821   1.054   1.680   2.175 -1.9050  1.8375 -2.3437
   79c3c     H9  822   1.530   1.839   2.083  0.1305 -0.8899 -0.5347
   79c3c    H10  823   1.476   1.724   1.968 -1.1570  1.8040 -0.4251
   79c3c    H11  824   1.363   1.848   2.011 -1.1095 -0.5564 -0.0324
   79c3c    H12  825   1.517   1.549   2.105 -0.1168 -1.1159  0.8701
   79c3c    H13  826   1.602   1.667   2.201  1.2818 -2.0651 -1.2614
   79c3c     C7  827   1.489   1.515   2.310  0.2145 -0.1806 -0.4939
   79c3c    H14  828   1.414   1.441   2.284 -0.5304  1.2887 -2.6165
   79c3c    H15  829   1.456   1.563   2.402 -1.0238 -0.6073 -0.7131
   79c3c     C8  830   1.623   1.439   2.338 -0.6198  0.1252 -0.3893
   79c3c    H16  831   1.599   1.360   2.410  1.3346 -1.2318 -1.1801
   79c3c    H17  832   1.696   1.511   2.377  0.0369  0.2105 -1.7481
   79c3c    H18  833   1.660   1.392   2.247 -1.4460 -1.2450 -0.0320
   80c3c      N  834   0.709   1.529   0.562 -0.1031 -0.4049  0.7034
   80c3c     C1  835   0.705   1.423   0.462  0.2396  0.1335  0.3704
   80c3c     C2  836   0.614   1.632   0.509 -0.4975 -0.2373 -0.2497
   80c3c     C3  837   0.562   1.411   0.421 -0.3220  0.1094  0.2295
   80c3c     C4  838   0.506   1.547   0.450  0.7985 -0.7120  0.6146
   80c3c     C5  839   0.662   1.486   0.694  0.0964  0.1685 -0.4131
   80c3c     C6  840   0.847   1.577   0.573 -0.0277 -0.0416 -0.2052
   80c3c     H1  841   0.745   1.329   0.499  0.4758 -0.0300 -0.3115
   80c3c     H2  842   0.744   1.446   0.363 -1.6006  0.7389 -0.2432
   80c3c     H3  843   0.573   1.698   0.585 -0.6186  0.6585 -1.0808
   80c3c     H4  844   0.670   1.698   0.443 -0.6112  0.7071  0.5922
   80c3c     H5  845   0.503   1.339   0.478 -0.5436 -1.2308 -1.6381
   80c3c     H6  846   0.551   1.386   0.315 -1.1206  0.0446  0.3261
   80c3c     H7  847   0.413   1.540   0.506  0.5873  0.9287  0.4785
   80c3c     H8  848   0.471   1.589   0.356 -1.0396 -1.2958  1.0142
   80c3c     H9  849   0.735   1.412   0.725 -0.6799 -0.5433 -0.2761
   80c3c    H10  850   0.659   1.577   0.754  0.8788 -0.4683  0.5889
   80c3c    H11  851   0.564   1.440   0.704 -0.2978  1.5625  2.6298
   80c3c    H12  852   0.842   1.663   0.640 -0.0729  0.9746 -1.4900
   80c3c    H13  853   0.908   1.501   0.621  0.2024  0.5686  0.4824
   80c3c     C7  854   0.917   1.635   0.444  0.7123  0.3538 -0.5407
   80c3c    H14  855   0.864   1.715   0.391 -0.4062  0.2108  0.3562
   80c3c    H15  856   0.919   1.554   0.372 -1.0265 -0.7403  0.6122
   80c3c     C8  857   1.062   1.680   0.467 -0.6976  0.0714  0.2299
   80c3c    H16  858   1.114   1.701   0.374 -1.2540 -0.4653 -0.2103
   80c3c    H17  859   1.123   1.610   0.524  0.7969 -0.3115 -1.8035
   80c3c    H18  860   1.056   1.770   0.528 -2.0057  1.1710 -1.4478
   81c3c      N  861   1.380   0.924   2.164 -0.4783  0.5804 -0.3762
   81c3c     C1  862   1.409   1.066   2.182 -0.5306  0.2445  0.4909
   81c3c     C2  863   1.427   0.860   2.287  0.4844 -0.7476  0.5242
   81c3c     C3  864   1.387   1.104   2.330  0.5430 -0.1033 -0.1287
   81c3c     C4  865   1.382   0.960   2.400  0.0631  0.1633  0.3816
   81c3c     C5  866   1.235   0.913   2.145 -0.8773 -0.3789 -0.9109
   81c3c     C6  867   1.438   0.856   2.045 -0.2133 -0.1356  0.1370
   81c3c     H1  868   1.355   1.129   2.110  0.4112  1.5883  0.9350
   81c3c     H2  869   1.512   1.097   2.170 -0.2729 -1.7577 -3.0367
   81c3c     H3  870   1.387   0.759   2.299 -1.4018 -0.1837 -0.7792
   81c3c     H4  871   1.535   0.853   2.274  0.6112  1.6863  0.0300
   81c3c     H5  872   1.293   1.155   2.347  0.5572 -0.1265  0.0217
   81c3c     H6  873   1.468   1.168   2.367  0.5440 -1.4429  2.3289
   81c3c     H7  874   1.279   0.941   2.431 -0.3150 -1.7822 -1.9460
   81c3c     H8  875   1.436   0.948   2.494  2.0434  0.8043 -0.6494
   81c3c     H9  876   1.205   0.952   2.048  0.8580  1.9934 -0.5526
   81c3c    H10  877   1.205   0.809   2.155  2.1077 -1.1604  0.3762
   81c3c    H11  878   1.178   0.973   2.216  0.5392 -0.6514  0.4934
   81c3c    H12  879   1.411   0.752   2.061 -2.0761  0.4329  0.8954
   81c3c    H13  880   1.389   0.887   1.952  0.6443 -0.0977 -0.3007
   81c3c     C7  881   1.590   0.868   2.019 -0.1059 -0.0604 -0.6176
   81c3c    H14  882   1.652   0.825   2.099  0.1853 -0.9714 -1.3183
   81c3c    H15  883   1.635   0.967   2.015  0.1576 -0.1618 -0.1964
   81c3c     C8  884   1.631   0.792   1.898  0.2886  0.3693  0.7204
   81c3c    H16  885   1.573   0.702   1.878 -0.8727  1.4201 -0.7181
   81c3c    H17  886   1.732   0.754   1.915  0.7020  1.7557  1.3747
   81c3c    H18  887   1.638   0.843   1.802 -0.0195 -0.6342  0.1532
   82c3c      N  888   0.963   0.864   1.053  0.0826  0.2403 -0.2068
   82c3c     C1  889   0.981   0.990   0.978  0.5178 -0.1019  0.8982
   82c3c     C2  890   1.041   0.880   1.172 -0.1493  0.4995  0.1213
   82c3c     C3  891   0.963   1.092   1.094 -0.1765 -0.4368  0.5254
   82c3c     C4  892   1.016   1.028   1.218  0.0389  0.6294  1.1996
   82c3c     C5  893   0.817   0.843   1.078  0.5535 -0.1736  0.4009
   82c3c     C6  894   0.998   0.750   0.971  0.9366 -0.2138 -0.3509
   82c3c     H1  895   0.907   1.001   0.899  0.0561  0.2304  1.3735
   82c3c     H2  896   1.082   0.994   0.936  1.5692  0.9535  3.4395
   82c3c     H3  897   1.019   0.808   1.250  1.9049 -0.0028  0.2524
   82c3c     H4  898   1.146   0.874   1.145  0.0418  1.6655  0.5728
   82c3c     H5  899   0.865   1.137   1.107 -0.6425 -2.2257  3.5107
   82c3c     H6  900   1.027   1.177   1.069 -2.5675  1.5579  1.0695
   82c3c     H7  901   0.941   1.029   1.297 -0.1971  0.6789  0.9768
   82c3c     H8  902   1.113   1.068   1.248  0.8648 -0.4412  0.0259
   82c3c     H9  903   0.753   0.851   0.990  2.8944  1.3178 -1.2154
   82c3c    H10  904   0.799   0.745   1.122  1.4167  0.4434  2.1733
   82c3c    H11  905   0.765   0.914   1.142  0.9903  0.2553  0.2834
   82c3c    H12  906   0.977   0.656   1.022 -0.5180  0.1759 -0.1925
   82c3c    H13  907   0.930   0.755   0.886 -0.9809  1.1594  1.1921
   82c3c     C7  908   1.146   0.723   0.936  0.4961 -0.1232 -0.0387
   82c3c    H14  909   1.206   0.689   1.021  1.3511 -0.0847 -0.6107
   82c3c    H15  910   1.190   0.817   0.901 -0.2968 -1.1759 -4.1047
   82c3c     C8  911   1.171   0.612   0.831  0.5342 -0.0192  0.2153
   82c3c    H16  912   1.129   0.650   0.737 -0.4885  1.0090  1.0766
   82c3c    H17  913   1.118   0.525   0.868 -1.6074  1.1877  0.0421
   82c3c    H18  914   1.280   0.603   0.827  0.3784 -1.4458 -1.4457
   83c3c      N  915   3.395   0.584   1.605  0.6797  0.4507 -0.1910
   83c3c     C1  916   3.406   0.617   1.748  0.6950  0.1340 -0.6095
   83c3c     C2  917   3.312   0.459   1.603  0.1307  0.3508 -0.1327
   83c3c     C3  918   3.264   0.599   1.801  0.2881 -0.6118  0.2227
   83c3c     C4  919   3.198   0.495   1.704 -0.4270  0.0729 -0.4572
   83c3c     C5  920   3.331   0.689   1.529 -0.1483 -0.7707 -0.1176
   83c3c     C6  921   3.527   0.572   1.540 -0.1823 -0.6252  0.1388
   83c3c     H1  922   3.457   0.711   1.769  1.4209 -0.5515  0.7779
   83c3c     H2  923   3.464   0.542   1.800  0.5031  0.6246  0.3317
   83c3c     H3  924   3.276   0.419   1.508 -0.0063 -2.1640  0.9439
   83c3c     H4  925   3.360   0.377   1.658 -2.6036 -0.6443  0.8493
   83c3c     H5  926   3.203   0.688   1.793  1.8950  0.5930  1.1315
   83c3c     H6  927   3.253   0.568   1.905 -1.0641 -0.7975  0.0255
   83c3c     H7  928   3.108   0.539   1.661 -2.0234 -2.4384  0.1493
   83c3c     H8  929   3.165   0.409   1.762  1.5339  0.6065  1.4997
   83c3c     H9  930   3.389   0.779   1.548  0.0789 -1.1049  0.8346
   83c3c    H10  931   3.331   0.671   1.422 -0.6013 -2.7159  0.1932
   83c3c    H11  932   3.230   0.714   1.561  0.1102  1.9679 -1.3218
   83c3c    H12  933   3.508   0.571   1.432  1.3222 -0.2798 -0.1403
   83c3c    H13  934   3.584   0.662   1.560 -1.1044  0.2437 -1.0786
   83c3c     C7  935   3.615   0.450   1.556 -0.5960  0.1130 -0.0473
   83c3c    H14  936   3.566   0.353   1.542  0.3915 -0.4788  0.5237
   83c3c    H15  937   3.648   0.455   1.659 -3.4375  1.3062  0.8478
   83c3c     C8  938   3.734   0.447   1.462 -0.7277  0.3426  0.0373
   83c3c    H16  939   3.798   0.534   1.479  0.2078 -0.3946  0.3473
   83c3c    H17  940   3.707   0.441   1.356 -0.7887 -0.3654  0.0930
   83c3c    H18  941   3.790   0.356   1.479  1.0673  1.4514  0.2154
   84c3c      N  942   0.617   1.245   2.221  0.7135  0.5682  0.6582
   84c3c     C1  943   0.547   1.247   2.094  0.2447 -0.4250  0.0948
   84c3c     C2  944   0.515   1.210   2.317 -0.3120 -0.3050 -0.4007
   84c3c     C3  945   0.447   1.136   2.097  0.4681 -0.2213  1.0338
   84c3c     C4  946   0.418   1.118   2.243  0.1461  0.3134 -0.2819
   84c3c     C5  947   0.714   1.136   2.217  0.6033  0.0882 -0.2462
   84c3c     C6  948   0.690   1.370   2.247  0.0457 -0.0760 -0.1028
   84c3c     H1  949   0.613   1.228   2.009 -0.4519  0.2767 -0.6100
   84c3c     H2  950   0.492   1.338   2.070 -0.2895 -0.2605  1.9309
   84c3c     H3  951   0.547   1.182   2.417  1.1489  0.5186 -0.6303
   84c3c     H4  952   0.455   1.300   2.330  0.6403  0.5759 -2.0236
   84c3c     H5  953   0.492   1.045   2.057  1.9904  1.0232 -0.1412
   84c3c     H6  954   0.351   1.164   2.052  1.3306  1.2604  0.0936
   84c3c     H7  955   0.454   1.020   2.273 -1.3781  0.7516  3.1720
   84c3c     H8  956   0.316   1.125   2.281 -0.2083 -1.1620 -0.9373
   84c3c     H9  957   0.792   1.147   2.142  1.4059 -1.6268  0.2988
   84c3c    H10  958   0.771   1.133   2.310  2.3859  2.0455 -1.2439
   84c3c    H11  959   0.677   1.033   2.213  0.7681  0.0107  0.2574
   84c3c    H12  960   0.755   1.366   2.334 -0.2925  0.6720  0.1879
   84c3c    H13  961   0.754   1.381   2.159 -1.0136 -2.6231 -1.2426
   84c3c     C7  962   0.606   1.503   2.265 -0.2320 -0.0775 -0.2646
   84c3c    H14  963   0.554   1.500   2.361 -0.2510 -0.5484 -0.2915
   84c3c    H15  964   0.530   1.516   2.188 -0.9842  2.9529  0.9133
   84c3c     C8  965   0.701   1.627   2.261 -0.0965 -0.3705 -0.2258
   84c3c    H16  966   0.636   1.715   2.259  1.0514  0.4750 -0.3614
   84c3c    H17  967   0.760   1.621   2.170 -0.5903 -1.6210 -0.4750
   84c3c    H18  968   0.763   1.623   2.350 -1.6160  0.6036  0.9209
   85c3c      N  969   1.342   0.665   3.029  0.1335  0.4609  0.9557
   85c3c     C1  970   1.362   0.676   3.172  0.1367 -0.8148  0.2328
   85c3c     C2  971   1.381   0.519   3.002 -0.2020  0.1617 -0.1903
   85c3c     C3  972   1.303   0.548   3.231  0.2835  0.3941 -0.3388
   85c3c     C4  973   1.314   0.442   3.112 -0.2507  0.0135 -0.2653
   85c3c     C5  974   1.199   0.688   2.998  0.2688 -0.0889 -0.4313
   85c3c     C6  975   1.417   0.759   2.943 -0.7096  0.2784  0.2622
   85c3c     H1  976   1.325   0.772   3.209 -0.9941 -0.6471 -1.3021
   85c3c     H2  977   1.467   0.668   3.199 -0.1203 -0.1093  1.4791
   85c3c     H3  978   1.350   0.497   2.900 -1.5440 -2.4956  0.7500
   85c3c     H4  979   1.487   0.499   3.014 -0.0192  1.1149 -0.1504
   85c3c     H5  980   1.207   0.555   3.282  0.9777 -0.4334  1.1019
   85c3c     H6  981   1.364   0.516   3.315 -0.7391 -0.7483 -0.0172
   85c3c     H7  982   1.210   0.427   3.083 -0.4334  1.5442 -0.4865
   85c3c     H8  983   1.368   0.351   3.136 -2.1411 -0.7355  1.2675
   85c3c     H9  984   1.166   0.792   3.000 -3.0017 -1.0546 -0.9221
   85c3c    H10  985   1.167   0.657   2.899 -1.7425  1.1205 -0.1939
   85c3c    H11  986   1.134   0.622   3.055  1.2162  0.1727  0.9874
   85c3c    H12  987   1.393   0.729   2.841  0.4755  1.6959 -0.4543
   85c3c    H13  988   1.375   0.859   2.959  1.4146  1.6969 -2.6684
   85c3c     C7  989   1.563   0.770   2.982 -0.5975  0.3347  0.2826
   85c3c    H14  990   1.597   0.666   2.989 -0.9532  0.2072  0.1361
   85c3c    H15  991   1.573   0.812   3.082 -1.0307 -0.9588  0.8813
   85c3c     C8  992   1.671   0.835   2.887 -0.5861 -0.4192  0.1843
   85c3c    H16  993   1.766   0.830   2.941  0.6916  1.0007 -1.8553
   85c3c    H17  994   1.646   0.937   2.857  0.3588 -0.3910 -0.5326
   85c3c    H18  995   1.683   0.772   2.798 -2.2955  0.7866 -0.9201
   86c3c      N  996   2.801   1.120   1.578 -0.1103 -0.0310 -0.3756
   86c3c     C1  997   2.667   1.058   1.576  0.4713 -0.2824 -0.4298
   86c3c     C2  998   2.870   1.037   1.687  0.0742  0.2796  0.2336
   86c3c     C3  999   2.695   0.907   1.585  0.2038  0.0703  0.1318
   86c3c     C4 1000   2.807   0.899   1.692  0.4366  0.2180  0.2598
   86c3c     C5 1001   2.876   1.095   1.451 -0.3014 -0.2913  0.3273
   86c3c     C6 1002   2.802   1.267   1.592  0.0650 -0.0694 -0.5476
   86c3c     H1 1003   2.607   1.093   1.491 -0.2416 -1.3974 -0.3932
   86c3c     H2 1004   2.600   1.081   1.659 -1.3068 -0.0984 -1.8819
   86c3c     H3 1005   2.977   1.029   1.672  0.0156  0.1327 -0.1018
   86c3c     H4 1006   2.856   1.085   1.784 -0.6622 -0.9145  0.7339
   86c3c     H5 1007   2.718   0.865   1.487 -0.0750 -0.5237  0.3195
   86c3c     H6 1008   2.602   0.862   1.618  0.6056 -0.2251  0.8818
   86c3c     H7 1009   2.879   0.820   1.671 -0.7159 -0.0793 -2.8015
   86c3c     H8 1010   2.750   0.880   1.782  0.2370  3.5286  0.8819
   86c3c     H9 1011   2.821   1.124   1.362  1.1378  2.7744  0.4034
   86c3c    H10 1012   2.971   1.147   1.461  1.0396 -3.0093  2.4176
   86c3c    H11 1013   2.897   0.989   1.437 -0.7887 -0.2633 -0.6198
   86c3c    H12 1014   2.904   1.303   1.605 -1.4556  3.8949  1.3638
   86c3c    H13 1015   2.758   1.299   1.497 -2.0394 -1.3169 -0.0381
   86c3c     C7 1016   2.707   1.326   1.706 -0.4689  0.3173 -0.3429
   86c3c    H14 1017   2.715   1.270   1.800 -0.8510  0.3430 -0.2930
   86c3c    H15 1018   2.604   1.313   1.671 -0.3986  0.2165 -0.5141
   86c3c     C8 1019   2.723   1.475   1.724 -0.1339 -0.5155 -0.3801
   86c3c    H16 1020   2.642   1.518   1.784  1.2111 -0.8634  1.7575
   86c3c    H17 1021   2.718   1.531   1.631  0.4368  1.3101  0.6521
   86c3c    H18 1022   2.817   1.502   1.772 -0.1963 -1.3606  0.2237
   87c3c      N 1023   2.309   2.948   1.058 -0.1095  0.5296  0.0731
   87c3c     C1 1024   2.384   2.855   0.972 -0.7667  0.1482  0.0218
   87c3c     C2 1025   2.221   3.009   0.961 -0.3177  0.2656 -0.5304
   87c3c     C3 1026   2.281   2.795   0.885 -0.2124  0.1733  0.0318
   87c3c     C4 1027   2.178   2.908   0.856  0.1413 -0.2152  0.2057
   87c3c     C5 1028   2.221   2.870   1.154  0.3731 -0.2758 -0.7742
   87c3c     C6 1029   2.396   3.036   1.137  0.2408 -0.3280  0.0827
   87c3c     H1 1030   2.433   2.779   1.033 -1.4644 -0.1226  0.2407
   87c3c     H2 1031   2.464   2.906   0.918 -0.3123  1.1942  1.6077
   87c3c     H3 1032   2.142   3.063   1.013 -1.2186 -0.3219 -1.2820
   87c3c     H4 1033   2.277   3.083   0.903  0.2561 -0.2446 -0.6251
   87c3c     H5 1034   2.234   2.702   0.918  1.1344 -0.4513  0.2503
   87c3c     H6 1035   2.331   2.761   0.794  1.2319 -0.1979  0.9491
   87c3c     H7 1036   2.074   2.877   0.867 -0.3675  1.4876  0.3030
   87c3c     H8 1037   2.182   2.945   0.754  1.9969 -2.2342 -0.5101
   87c3c     H9 1038   2.292   2.817   1.217 -0.1108 -0.9275 -0.7634
   87c3c    H10 1039   2.158   2.934   1.216 -2.1040 -0.7254 -2.7269
   87c3c    H11 1040   2.152   2.798   1.111 -0.3941 -0.8539  1.3373
   87c3c    H12 1041   2.328   3.092   1.201  1.1326 -0.5255  1.2186
   87c3c    H13 1042   2.464   2.975   1.197  0.4108 -1.6415 -1.4208
   87c3c     C7 1043   2.486   3.140   1.062 -0.3492  0.5534  0.2710
   87c3c    H14 1044   2.424   3.208   1.004 -0.0423  0.9264  0.3825
   87c3c    H15 1045   2.563   3.098   0.997  0.5086  0.2545  1.4813
   87c3c     C8 1046   2.573   3.218   1.162 -0.1899  0.3421 -0.4030
   87c3c    H16 1047   2.637   3.296   1.121 -0.2028  0.4821 -0.1530
   87c3c    H17 1048   2.639   3.154   1.219  2.6330  1.3354 -2.4559
   87c3c    H18 1049   2.516   3.277   1.234 -0.1695  1.7435 -1.5174
   88c3c      N 1050   0.673   2.378   3.150  0.3970 -0.0688 -0.7037
   88c3c     C1 1051   0.765   2.290   3.226 -0.3237 -0.3675 -0.2440
   88c3c     C2 1052   0.611   2.473   3.243 -0.2980 -0.1530  0.3760
   88c3c     C3 1053   0.691   2.280   3.359 -0.6100 -0.0502 -0.3857
   88c3c     C4 1054   0.626   2.411   3.382  0.1440 -0.4502 -0.8545
   88c3c     C5 1055   0.760   2.443   3.049  0.2011 -0.8117  0.6136
   88c3c     C6 1056   0.570   2.306   3.069  0.2820 -0.2428 -0.0354
   88c3c     H1 1057   0.861   2.332   3.258 -0.1291 -1.0133  0.0410
   88c3c     H2 1058   0.789   2.195   3.178  0.4279  0.4813 -1.5809
   88c3c     H3 1059   0.658   2.571   3.240 -3.4402  1.3442 -2.3076
   88c3c     H4 1060   0.507   2.495   3.221  0.1631  1.7756  0.0822
   88c3c     H5 1061   0.747   2.247   3.446  1.9023 -0.9603 -2.2934
   88c3c     H6 1062   0.607   2.212   3.342 -1.7222  1.4822 -1.1886
   88c3c     H7 1063   0.684   2.469   3.454  0.5629 -0.7402 -0.9579
   88c3c     H8 1064   0.524   2.394   3.417  0.8619 -0.9108  1.0425
   88c3c     H9 1065   0.784   2.376   2.966 -0.8107  0.5937 -0.8479
   88c3c    H10 1066   0.722   2.539   3.014  2.1137 -0.3721 -0.3422
   88c3c    H11 1067   0.857   2.464   3.093  0.0544  1.1853  0.0652
   88c3c    H12 1068   0.517   2.382   3.012  0.5526 -0.7994 -1.0329
   88c3c    H13 1069   0.616   2.243   2.993  3.4323  0.6080  1.1242
   88c3c     C7 1070   0.465   2.217   3.142  0.0645  0.0868 -0.0744
   88c3c    H14 1071   0.418   2.261   3.230 -0.3161 -1.4815  0.5254
   88c3c    H15 1072   0.503   2.120   3.174 -0.4974  0.4910  1.8953
   88c3c     C8 1073   0.356   2.194   3.042 -0.2499  0.5717 -0.6529
   88c3c    H16 1074   0.393   2.129   2.964 -2.5476  0.4436 -1.6749
   88c3c    H17 1075   0.311   2.284   3.000 -1.6243 -0.6176 -1.7435
   88c3c    H18 1076   0.280   2.137   3.095 -0.2425  1.4828  0.3638
   89c3c      N 1077   1.953   0.036   1.804 -0.0390 -0.4309  0.1210
   89c3c     C1 1078   1.854   0.137   1.760  0.0311  0.5561  0.0227
   89c3c     C2 1079   1.900  -0.099   1.757  0.1595 -0.2012  0.3701
   89c3c     C3 1080   1.787   0.078   1.636  0.4133 -0.4009  0.1933
   89c3c     C4 1081   1.819  -0.071   1.637 -1.1011 -0.1282  0.3785
   89c3c     C5 1082   2.076   0.043   1.720 -0.8503 -0.0034 -0.1097
   89c3c     C6 1083   1.999   0.038   1.950 -0.6609 -0.4997 -0.1323
   89c3c     H1 1084   1.902   0.233   1.738  0.4796  0.8748  2.3059
   89c3c     H2 1085   1.773   0.167   1.827  0.6872 -0.4643  1.2814
   89c3c     H3 1086   1.977  -0.171   1.728 -0.0672  0.4539 -1.9643
   89c3c     H4 1087   1.837  -0.139   1.837 -1.1852 -1.1674 -1.1360
   89c3c     H5 1088   1.820   0.125   1.544 -1.0434  0.5477  0.1451
   89c3c     H6 1089   1.680   0.089   1.651  0.8078  3.2528  0.8053
   89c3c     H7 1090   1.868  -0.096   1.543 -1.9904  0.4738 -0.2568
   89c3c     H8 1091   1.726  -0.129   1.634 -0.5546 -0.9739 -0.8335
   89c3c     H9 1092   2.121   0.142   1.709 -1.1094  0.3276  1.6632
   89c3c    H10 1093   2.161  -0.016   1.755 -0.6295 -1.8503 -3.5573
   89c3c    H11 1094   2.054   0.007   1.620 -0.5747 -0.1055 -0.1345
   89c3c    H12 1095   2.047  -0.058   1.965  0.1211 -0.1365 -0.2502
   89c3c    H13 1096   2.080   0.110   1.967 -1.7201  1.5259 -3.2716
   89c3c     C7 1097   1.884   0.040   2.052  0.2139  0.4293 -0.2032
   89c3c    H14 1098   1.821  -0.038   2.009 -1.8195  2.5539 -1.1927
   89c3c    H15 1099   1.834   0.137   2.042 -1.2603 -0.4938 -1.9361
   89c3c     C8 1100   1.910   0.007   2.206 -0.0931  0.5066  0.7540
   89c3c    H16 1101   2.008   0.046   2.231  1.3019 -1.7118 -1.0381
   89c3c    H17 1102   1.945  -0.095   2.225  0.1914  0.6280  0.8697
   89c3c    H18 1103   1.825   0.013   2.275 -1.0033  1.1945 -0.4188
   90c3c      N 1104   1.543   1.574   2.841  0.0959 -0.0407  0.1858
   90c3c     C1 1105   1.460   1.543   2.720 -0.0147 -0.4092  0.9569
   90c3c     C2 1106   1.492   1.464   2.928  0.3113  0.1005  0.0574
   90c3c     C3 1107   1.475   1.392   2.708 -0.1027 -0.9407 -0.2680
   90c3c     C4 1108   1.504   1.336   2.844  0.0868 -0.0027  0.3745
   90c3c     C5 1109   1.687   1.561   2.816  0.4057 -0.1536 -0.2607
   90c3c     C6 1110   1.520   1.703   2.890  0.5632 -0.2679 -0.2929
   90c3c     H1 1111   1.501   1.592   2.631 -1.0361 -1.5297 -0.1390
   90c3c     H2 1112   1.355   1.570   2.724  0.3674  1.3100  0.0061
   90c3c     H3 1113   1.538   1.464   3.028  0.8245  0.8521 -0.1715
   90c3c     H4 1114   1.385   1.464   2.946  0.3762 -0.7725  0.4751
   90c3c     H5 1115   1.563   1.358   2.655  0.4203 -0.0471  0.0122
   90c3c     H6 1116   1.381   1.346   2.679  0.3365 -1.2246 -1.2427
   90c3c     H7 1117   1.606   1.299   2.848 -0.5170 -1.6213  1.7748
   90c3c     H8 1118   1.439   1.252   2.871  0.5227 -0.2437  0.6777
   90c3c     H9 1119   1.726   1.639   2.751  2.0689 -0.7564 -0.0047
   90c3c    H10 1120   1.743   1.572   2.908  1.1462  1.3142 -0.8686
   90c3c    H11 1121   1.722   1.466   2.776  2.0187  1.9115 -4.0566
   90c3c    H12 1122   1.569   1.721   2.986 -0.0501 -0.0063 -0.0273
   90c3c    H13 1123   1.560   1.774   2.818 -0.0948 -0.3074 -0.6961
   90c3c     C7 1124   1.375   1.748   2.906  0.8671 -0.5207 -0.6768
   90c3c    H14 1125   1.328   1.686   2.982 -0.5057  0.0886 -1.0322
   90c3c    H15 1126   1.316   1.740   2.815 -1.5302 -2.2656  0.9819
   90c3c     C8 1127   1.348   1.893   2.955  0.6518 -0.7604 -0.0267
   90c3c    H16 1128   1.367   1.963   2.873  0.4746  0.0681  0.6337
   90c3c    H17 1129   1.404   1.911   3.046 -0.7666 -0.1000  0.7230
   90c3c    H18 1130   1.242   1.897   2.977  0.5187  0.5326 -0.8561
   91c3c      N 1131   1.121   2.032   0.928  0.2950  0.1493 -0.2857
   91c3c     C1 1132   1.064   1.915   0.859 -0.3177 -0.2498  0.4116
   91c3c     C2 1133   1.237   1.975   1.003 -0.5332 -0.1661 -0.0529
   91c3c     C3 1134   1.185   1.840   0.805 -0.5032 -0.1375  0.2457
   91c3c     C4 1135   1.288   1.858   0.914 -0.0270 -0.5896 -0.0459
   91c3c     C5 1136   1.181   2.119   0.821 -0.7692  0.0952 -0.0195
   91c3c     C6 1137   1.026   2.117   1.006  1.0824 -0.1345  0.4506
   91c3c     H1 1138   0.989   1.942   0.784 -0.7074 -2.6423 -0.0865
   91c3c     H2 1139   1.008   1.863   0.937 -2.8127 -1.1201 -1.8770
   91c3c     H3 1140   1.318   2.048   1.011 -0.3495 -0.2705 -0.9221
   91c3c     H4 1141   1.199   1.951   1.102  0.1335 -0.1003  0.2242
   91c3c     H5 1142   1.221   1.878   0.710  0.2465  0.4255  0.7433
   91c3c     H6 1143   1.153   1.737   0.789 -1.5282  0.2138 -0.0191
   91c3c     H7 1144   1.388   1.876   0.876  0.8520 -0.9949  2.0298
   91c3c     H8 1145   1.279   1.764   0.968 -1.3158  0.8191  2.2673
   91c3c     H9 1146   1.112   2.175   0.758  0.1053  0.3010 -0.7987
   91c3c    H10 1147   1.231   2.203   0.870 -1.7209  0.5062  0.2612
   91c3c    H11 1148   1.260   2.082   0.756 -2.1392 -0.3346 -1.4792
   91c3c    H12 1149   1.083   2.184   1.069 -1.4974  2.0533  0.5592
   91c3c    H13 1150   0.966   2.171   0.932  0.4614  0.7880  1.6149
   91c3c     C7 1151   0.937   2.035   1.103 -0.2435  0.2246 -0.2838
   91c3c    H14 1152   0.988   1.955   1.156 -1.8881 -1.0485 -0.5971
   91c3c    H15 1153   0.856   1.984   1.050  2.3724 -1.6074 -2.6499
   91c3c     C8 1154   0.864   2.131   1.199  0.3055  0.5322  0.3282
   91c3c    H16 1155   0.773   2.081   1.231  0.6679 -0.0780  0.4106
   91c3c    H17 1156   0.828   2.225   1.158 -3.1506  0.5672  3.1946
   91c3c    H18 1157   0.928   2.154   1.285  0.8199 -0.8365  0.3344
   92c3c      N 1158   1.041   3.090   0.307 -0.5429 -0.4181 -0.4446
   92c3c     C1 1159   1.061   3.153   0.177 -0.2890 -0.3125 -0.0544
   92c3c     C2 1160   1.108   2.958   0.281 -0.8525  0.4544  0.1251
   92c3c     C3 1161   1.207   3.127   0.131  0.0593  0.3932 -0.2017
   92c3c     C4 1162   1.237   3.003   0.205  0.0667  0.4269 -0.1565
   92c3c     C5 1163   1.114   3.165   0.416 -0.2400  0.1760  0.1920
   92c3c     C6 1164   0.901   3.073   0.355 -0.1138  0.6298  0.2376
   92c3c     H1 1165   1.036   3.258   0.166  1.8651  0.1441 -0.7882
   92c3c     H2 1166   1.004   3.094   0.105  0.2527 -0.5072 -0.3274
   92c3c     H3 1167   1.116   2.890   0.366 -1.5868  1.3176  0.8993
   92c3c     H4 1168   1.045   2.906   0.209 -2.7970  1.2253  1.2468
   92c3c     H5 1169   1.271   3.206   0.169  0.6298 -0.6971  1.1435
   92c3c     H6 1170   1.216   3.130   0.022  0.1632  1.5685 -0.1657
   92c3c     H7 1171   1.314   3.029   0.278 -1.8000  2.8904  0.9726
   92c3c     H8 1172   1.273   2.931   0.131  0.1898 -1.0098  1.2803
   92c3c     H9 1173   1.058   3.258   0.428 -1.5007 -0.5250 -0.1752
   92c3c    H10 1174   1.110   3.101   0.504  0.0970  2.9730  2.3069
   92c3c    H11 1175   1.220   3.189   0.407 -0.5587  1.0007 -1.6526
   92c3c    H12 1176   0.901   3.033   0.456  0.0620  1.8027  0.7174
   92c3c    H13 1177   0.850   3.169   0.368  1.0897  1.4050 -0.6302
   92c3c     C7 1178   0.810   2.969   0.281  0.2875  0.8402  0.6941
   92c3c    H14 1179   0.837   2.880   0.337 -0.8617 -1.3447 -2.1085
   92c3c    H15 1180   0.828   2.945   0.176 -0.4638 -1.6630  1.1166
   92c3c     C8 1181   0.661   2.992   0.307  0.0816 -0.0174 -0.2098
   92c3c    H16 1182   0.635   3.049   0.396 -0.7356  2.1256 -1.7633
   92c3c    H17 1183   0.605   2.898   0.304  0.9147 -0.5346  0.1876
   92c3c    H18 1184   0.614   3.054   0.230 -0.2599  0.6714  0.5481
   93c3c      N 1185   2.307   3.163   2.550  0.2387 -0.1235  0.0463
   93c3c     C1 1186   2.445   3.174   2.601  1.4028 -0.1727 -0.1348
   93c3c     C2 1187   2.333   3.126   2.414 -0.0374 -0.2941  0.6170
   93c3c     C3 1188   2.535   3.072   2.532  0.4529  0.4092  0.1667
   93c3c     C4 1189   2.456   3.031   2.409  0.4827  0.0298  0.1570
   93c3c     C5 1190   2.236   3.056   2.615 -0.4881  0.4621 -0.3213
   93c3c     C6 1191   2.210   3.278   2.564  0.1088 -0.0469  0.0726
   93c3c     H1 1192   2.445   3.173   2.710  1.3433 -1.5408 -0.1325
   93c3c     H2 1193   2.484   3.271   2.571  2.4696 -0.2299  1.0371
   93c3c     H3 1194   2.248   3.094   2.353  1.2644  0.0552 -1.4216
   93c3c     H4 1195   2.374   3.212   2.361  0.1220 -0.5741  0.2885
   93c3c     H5 1196   2.553   2.980   2.588 -0.5111  1.7851  2.8021
   93c3c     H6 1197   2.631   3.121   2.514  0.7126  0.1570  0.8393
   93c3c     H7 1198   2.418   2.929   2.412  0.9689 -0.1587 -0.0089
   93c3c     H8 1199   2.506   3.030   2.311 -1.6054  1.4123 -0.9589
   93c3c     H9 1200   2.222   3.077   2.721 -0.8190  0.9699 -0.4655
   93c3c    H10 1201   2.135   3.047   2.576 -1.0002 -0.7018  1.2104
   93c3c    H11 1202   2.290   2.962   2.610  0.5788  1.0694 -0.2722
   93c3c    H12 1203   2.110   3.267   2.521  0.0877 -0.4451  0.2229
   93c3c    H13 1204   2.174   3.274   2.667 -1.0080 -0.3438 -0.3230
   93c3c     C7 1205   2.245   3.423   2.517 -0.3962 -0.7010  0.5511
   93c3c    H14 1206   2.294   3.419   2.420  0.6624  1.1497  0.9847
   93c3c    H15 1207   2.328   3.464   2.574 -0.3614  1.6882 -1.1590
   93c3c     C8 1208   2.127   3.521   2.520  0.1149  0.5046 -0.1598
   93c3c    H16 1209   2.145   3.607   2.455  0.5238  0.0632 -0.6339
   93c3c    H17 1210   2.111   3.560   2.621  0.2700 -0.3555  0.1949
   93c3c    H18 1211   2.033   3.473   2.494  0.1011  0.0732  0.6833
   94c3c      N 1212   0.982   1.825   3.322 -0.4570 -0.3487 -0.7370
   94c3c     C1 1213   0.956   1.965   3.351 -1.2042 -0.5322 -0.1799
   94c3c     C2 1214   1.101   1.836   3.239 -0.3723  0.0649 -0.1707
   94c3c     C3 1215   1.093   2.023   3.387 -0.3377  0.0044 -0.5751
   94c3c     C4 1216   1.194   1.944   3.302 -0.5754  0.6576  0.0944
   94c3c     C5 1217   1.019   1.752   3.444 -0.3656  0.1135  0.7690
   94c3c     C6 1218   0.862   1.758   3.264  0.0758  0.4575  0.2048
   94c3c     H1 1219   0.874   1.995   3.416  0.5595  1.3091  1.2698
   94c3c     H2 1220   0.916   2.017   3.264 -0.6315  1.1697  0.5502
   94c3c     H3 1221   1.156   1.743   3.223  0.1416  0.3901 -0.3222
   94c3c     H4 1222   1.065   1.881   3.147  1.9177  0.3239 -0.9690
   94c3c     H5 1223   1.120   2.008   3.492 -0.7024  1.0583 -0.3266
   94c3c     H6 1224   1.084   2.128   3.363  0.9702  0.4408  0.7351
   94c3c     H7 1225   1.273   1.900   3.363 -0.3898  1.2846  0.3039
   94c3c     H8 1226   1.246   2.003   3.226  0.2328 -0.5748 -0.3317
   94c3c     H9 1227   0.942   1.771   3.519 -1.6993 -2.1396  0.0256
   94c3c    H10 1228   1.043   1.646   3.439 -3.7272 -0.6423 -1.0106
   94c3c    H11 1229   1.109   1.789   3.493 -0.2415  1.2671 -0.3006
   94c3c    H12 1230   0.900   1.661   3.231 -0.4858 -0.8346  3.1191
   94c3c    H13 1231   0.790   1.738   3.344  1.9251  1.6338  2.2151
   94c3c     C7 1232   0.790   1.820   3.145 -0.3553  0.0491 -0.1323
   94c3c    H14 1233   0.863   1.816   3.065 -0.2593  0.2130 -0.0533
   94c3c    H15 1234   0.763   1.925   3.157 -0.8575 -0.1591  0.6382
   94c3c     C8 1235   0.661   1.745   3.107  0.4817  0.1702  0.4555
   94c3c    H16 1236   0.569   1.772   3.160  0.2429 -1.3828  0.8668
   94c3c    H17 1237   0.679   1.640   3.129 -0.1093  0.0197  0.2323
   94c3c    H18 1238   0.634   1.748   3.001 -1.0816 -1.2653  0.7938
   95c3c      N 1239   1.334   2.589   3.236  0.3432 -0.1626  0.7045
   95c3c     C1 1240   1.468   2.644   3.205  0.0724  0.0894  0.2455
   95c3c     C2 1241   1.290   2.705   3.319 -0.2036  0.5797  0.2319
   95c3c     C3 1242   1.453   2.785   3.172 -0.4966 -0.2352 -0.1009
   95c3c     C4 1243   1.332   2.839   3.252 -0.6494 -0.7071 -0.0637
   95c3c     C5 1244   1.252   2.584   3.111  0.7569 -0.7004 -0.2826
   95c3c     C6 1245   1.331   2.453   3.300 -0.4584 -0.0439 -0.7047
   95c3c     H1 1246   1.519   2.590   3.125 -1.4008 -1.4088  0.2721
   95c3c     H2 1247   1.533   2.630   3.291 -1.2644 -2.1136  0.9488
   95c3c     H3 1248   1.185   2.702   3.348 -0.1394  3.0266  0.8430
   95c3c     H4 1249   1.331   2.695   3.420 -2.4797 -0.8132  1.0603
   95c3c     H5 1250   1.441   2.784   3.063  0.9870  0.1441 -0.2782
   95c3c     H6 1251   1.535   2.855   3.186  2.0126 -2.9603 -0.5230
   95c3c     H7 1252   1.253   2.879   3.189  2.3790  2.1234 -2.2322
   95c3c     H8 1253   1.379   2.905   3.325  0.2760 -3.4108  1.8980
   95c3c     H9 1254   1.299   2.508   3.048 -0.4107 -1.5068 -0.2035
   95c3c    H10 1255   1.145   2.568   3.127  0.1584  2.2802 -1.0694
   95c3c    H11 1256   1.256   2.673   3.048 -0.1562 -1.5110 -1.5219
   95c3c    H12 1257   1.230   2.435   3.336  0.0026 -0.1205  0.5812
   95c3c    H13 1258   1.360   2.369   3.237  0.5012 -0.8729  0.8172
   95c3c     C7 1259   1.409   2.431   3.437 -0.4086 -0.5378  0.7035
   95c3c    H14 1260   1.381   2.494   3.522  1.5724  1.1896  0.1207
   95c3c    H15 1261   1.517   2.433   3.419 -0.5447 -0.6241 -0.1154
   95c3c     C8 1262   1.371   2.303   3.489  0.3006 -0.6297 -0.4006
   95c3c    H16 1263   1.387   2.214   3.428  0.9041 -1.7121  1.3072
   95c3c    H17 1264   1.267   2.301   3.520  0.8265  1.7363  1.7151
   95c3c    H18 1265   1.436   2.280   3.573  0.6010  0.3359 -0.3590
   96c3c      N 1266   3.373   1.659   1.840  0.5373 -0.1954 -0.5400
   96c3c     C1 1267   3.410   1.571   1.952 -0.8024 -0.7232 -0.1641
   96c3c     C2 1268   3.251   1.595   1.786 -0.0145  0.4782  0.8496
   96c3c     C3 1269   3.285   1.501   1.997 -0.1106 -0.0418  0.8421
   96c3c     C4 1270   3.173   1.542   1.904 -0.3914  0.3996 -1.0078
   96c3c     C5 1271   3.338   1.787   1.894  0.3242  0.4163 -0.0195
   96c3c     C6 1272   3.480   1.679   1.746  0.1943  0.3569 -0.3349
   96c3c     H1 1273   3.445   1.627   2.039 -0.0349  0.5890 -1.2830
   96c3c     H2 1274   3.480   1.498   1.913 -0.2256 -0.2482 -0.0339
   96c3c     H3 1275   3.189   1.651   1.717 -1.2458  0.2806  1.7739
   96c3c     H4 1276   3.275   1.508   1.725 -0.4670 -0.4945  2.0316
   96c3c     H5 1277   3.248   1.528   2.096 -1.8737  0.0943  0.1692
   96c3c     H6 1278   3.290   1.393   1.991  2.2747  0.0542  0.4070
   96c3c     H7 1279   3.117   1.627   1.941  0.8412  1.7212 -2.0876
   96c3c     H8 1280   3.103   1.463   1.880 -0.3459 -0.2787  1.0129
   96c3c     H9 1281   3.265   1.786   1.975 -0.1520 -1.9600 -0.4369
   96c3c    H10 1282   3.421   1.837   1.943 -1.0271 -0.3390  3.2115
   96c3c    H11 1283   3.301   1.853   1.816 -0.8209 -1.3293 -0.9923
   96c3c    H12 1284   3.458   1.761   1.677 -1.5157  0.1043 -0.1138
   96c3c    H13 1285   3.570   1.703   1.802  0.1959 -2.0004  0.7214
   96c3c     C7 1286   3.505   1.567   1.638  0.4506  0.7794  0.6100
   96c3c    H14 1287   3.417   1.563   1.574  0.0340  1.5171  1.1350
   96c3c    H15 1288   3.509   1.469   1.686  0.1079  1.0539  1.1917
   96c3c     C8 1289   3.627   1.580   1.548  0.4958 -0.4577 -0.1496
   96c3c    H16 1290   3.603   1.627   1.453 -0.5193  1.2850  0.9499
   96c3c    H17 1291   3.649   1.475   1.525  0.4645 -1.0545  2.3847
   96c3c    H18 1292   3.708   1.618   1.611  0.6036 -1.6977  0.4905
   97c3c      N 1293   2.228   1.103   0.577  0.0135  0.0028  0.0140
   97c3c     C1 1294   2.121   1.179   0.520  0.9266 -0.7742 -0.3033
   97c3c     C2 1295   2.189   1.087   0.712  0.0663  0.2284  0.0767
   97c3c     C3 1296   1.990   1.138   0.593 -0.3364  0.5516  0.4648
   97c3c     C4 1297   2.046   1.048   0.701  0.1835  0.1192 -0.2475
   97c3c     C5 1298   2.241   0.972   0.510 -0.0223  0.2039 -0.0451
   97c3c     C6 1299   2.363   1.170   0.556 -0.2779  0.4243  0.0951
   97c3c     H1 1300   2.109   1.169   0.413  0.4970  0.1603 -0.3484
   97c3c     H2 1301   2.120   1.281   0.559  1.8881 -0.8190 -0.1424
   97c3c     H3 1302   2.244   1.011   0.769 -0.2148 -0.0053  0.0402
   97c3c     H4 1303   2.183   1.173   0.778 -1.8708 -1.0285  1.6211
   97c3c     H5 1304   1.917   1.085   0.531 -0.6728  1.1467  0.3550
   97c3c     H6 1305   1.934   1.224   0.630  0.8956  1.2774  0.6695
   97c3c     H7 1306   2.038   0.943   0.674 -0.2727  0.1957 -0.4130
   97c3c     H8 1307   1.986   1.056   0.791 -0.4046 -1.3604 -0.4872
   97c3c     H9 1308   2.271   0.985   0.406  1.9560 -0.6912  0.3892
   97c3c    H10 1309   2.318   0.922   0.569 -0.6169  2.5485  2.8582
   97c3c    H11 1310   2.150   0.912   0.509 -0.0324  0.2284 -0.4704
   97c3c    H12 1311   2.437   1.099   0.595 -0.9353 -0.0109  0.5674
   97c3c    H13 1312   2.401   1.193   0.457 -0.4084  2.3580  0.4830
   97c3c     C7 1313   2.392   1.300   0.633  0.2977 -0.0387  0.2701
   97c3c    H14 1314   2.396   1.276   0.739 -0.6214 -1.0524  0.0882
   97c3c    H15 1315   2.313   1.373   0.615  0.6532  1.3682  4.0763
   97c3c     C8 1316   2.530   1.357   0.608  0.1728  0.1211 -0.5343
   97c3c    H16 1317   2.607   1.286   0.636  0.7489  0.8111 -0.3385
   97c3c    H17 1318   2.543   1.442   0.676  0.7271 -1.0999  0.9117
   97c3c    H18 1319   2.557   1.381   0.505  1.1582 -1.6655 -0.7038
   98c3c      N 1320   1.473   1.346   0.723 -0.2170  0.0363  0.5142
   98c3c     C1 1321   1.574   1.378   0.827  0.3221  0.1095  0.0080
   98c3c     C2 1322   1.502   1.451   0.619  1.1916  0.5605 -0.2546
   98c3c     C3 1323   1.702   1.426   0.752  0.3444  1.0379 -0.5371
   98c3c     C4 1324   1.656   1.458   0.618 -0.3062  0.5056 -0.5073
   98c3c     C5 1325   1.502   1.209   0.676  0.3734 -0.7572  0.3215
   98c3c     C6 1326   1.334   1.347   0.764 -0.2725  0.2071 -0.8376
   98c3c     H1 1327   1.580   1.295   0.897 -3.8210 -0.1669  0.1838
   98c3c     H2 1328   1.541   1.462   0.889 -0.1091  0.2265 -0.3796
   98c3c     H3 1329   1.449   1.437   0.525  0.0277  2.3871  0.0990
   98c3c     H4 1330   1.468   1.544   0.664 -0.5029  0.7567 -1.8764
   98c3c     H5 1331   1.767   1.341   0.732 -2.5915 -1.2815 -0.6464
   98c3c     H6 1332   1.740   1.513   0.804  1.7448  0.2409 -0.2034
   98c3c     H7 1333   1.693   1.387   0.544  2.3025 -0.2613  1.4416
   98c3c     H8 1334   1.691   1.560   0.602  0.7937  0.0894 -0.8191
   98c3c     H9 1335   1.484   1.144   0.761  0.0154  1.4193  1.9471
   98c3c    H10 1336   1.445   1.165   0.595  2.8365 -0.0117 -1.8996
   98c3c    H11 1337   1.608   1.202   0.650  0.6070 -0.8900  1.2887
   98c3c    H12 1338   1.268   1.311   0.685 -0.1360 -0.3148 -0.7155
   98c3c    H13 1339   1.319   1.268   0.839 -0.2982  1.5121  0.5515
   98c3c     C7 1340   1.283   1.464   0.845 -0.5110  0.5586  0.6361
   98c3c    H14 1341   1.287   1.559   0.792 -2.3124  0.0788 -0.4137
   98c3c    H15 1342   1.341   1.473   0.937 -1.2112  0.0911  1.1283
   98c3c     C8 1343   1.140   1.451   0.881 -0.0097 -0.6865 -0.2417
   98c3c    H16 1344   1.123   1.531   0.953  1.3158  0.2836 -0.9767
   98c3c    H17 1345   1.139   1.349   0.921  3.8348 -0.8466 -0.3220
   98c3c    H18 1346   1.069   1.449   0.799  0.7967 -0.8022 -0.9438
   99c3c      N 1347   1.458   2.429   1.895 -0.6236  0.2065  0.0652
   99c3c     C1 1348   1.538   2.541   1.840 -0.7247 -0.4027  0.8046
   99c3c     C2 1349   1.501   2.418   2.037  0.0252 -0.4281 -0.6172
   99c3c     C3 1350   1.541   2.642   1.959  0.3287 -0.3742  0.1953
   99c3c     C4 1351   1.509   2.570   2.083  0.0388  0.1920  0.3232
   99c3c     C5 1352   1.311   2.465   1.903 -0.2843  0.4246 -0.0801
   99c3c     C6 1353   1.468   2.304   1.821 -0.0478 -0.1435 -0.0330
   99c3c     H1 1354   1.506   2.589   1.748 -0.7972 -1.3405  0.3368
   99c3c     H2 1355   1.644   2.514   1.830 -0.9407 -0.6812 -0.8279
   99c3c     H3 1356   1.430   2.362   2.098  1.9077 -0.8402  1.2343
   99c3c     H4 1357   1.598   2.370   2.052  0.7441  1.0953 -0.3549
   99c3c     H5 1358   1.463   2.714   1.938  0.0464 -0.5599  0.6118
   99c3c     H6 1359   1.638   2.691   1.971 -0.5530  1.3152  0.5489
   99c3c     H7 1360   1.417   2.609   2.125 -0.2040  0.4330 -0.4300
   99c3c     H8 1361   1.587   2.567   2.159 -0.3780 -1.3715  0.7055
   99c3c     H9 1362   1.277   2.506   1.808 -0.8018 -1.7452 -0.8677
   99c3c    H10 1363   1.249   2.381   1.936 -0.0479  0.2572 -0.0572
   99c3c    H11 1364   1.280   2.532   1.983  0.0029 -1.3648  1.5609
   99c3c    H12 1365   1.405   2.226   1.866  0.4911 -0.3715  0.3300
   99c3c    H13 1366   1.430   2.324   1.721 -0.7351 -1.7375 -0.1098
   99c3c     C7 1367   1.608   2.256   1.788  0.0339 -0.4466  0.2637
   99c3c    H14 1368   1.658   2.230   1.881 -1.2062 -1.0696  0.7688
   99c3c    H15 1369   1.672   2.327   1.735  0.4653 -1.8088 -1.0904
   99c3c     C8 1370   1.590   2.128   1.706 -0.7955 -0.2753  0.3877
   99c3c    H16 1371   1.507   2.060   1.728 -1.1174  0.3752  1.2042
   99c3c    H17 1372   1.674   2.059   1.712  0.2256  0.9242  0.1820
   99c3c    H18 1373   1.566   2.160   1.604 -4.5439 -3.7131  0.0166
  100c3c      N 1374   1.455   0.019   1.031  0.2222 -0.6539 -0.2568
  100c3c     C1 1375   1.351  -0.007   0.932 -0.2765  1.1595 -0.0899
  100c3c     C2 1376   1.520   0.131   0.959 -0.0698 -0.4868  0.2262
  100c3c     C3 1377   1.302   0.117   0.854  0.2156  0.0651  0.3499
  100c3c     C4 1378   1.407   0.214   0.895 -0.5289 -0.5186  0.0775
  100c3c     C5 1379   1.386   0.070   1.152 -0.3846  0.3793  0.1847
  100c3c     C6 1380   1.542  -0.087   1.073  0.6852  0.3907  0.1111
  100c3c     H1 1381   1.261  -0.065   0.948  0.4913 -0.9920 -3.0926
  100c3c     H2 1382   1.398  -0.058   0.848  1.3058  1.8440  0.3525
  100c3c     H3 1383   1.576   0.196   1.027 -0.1049 -0.7866  0.5452
  100c3c     H4 1384   1.586   0.093   0.881 -0.7841 -0.0262 -0.6083
  100c3c     H5 1385   1.204   0.161   0.876  0.7265  0.7529  1.3018
  100c3c     H6 1386   1.313   0.104   0.746 -0.3461  0.9770  0.1737
  100c3c     H7 1387   1.363   0.295   0.954 -0.2316  0.6061 -1.2204
  100c3c     H8 1388   1.452   0.264   0.809 -1.1560  0.3988  0.2711
  100c3c     H9 1389   1.332  -0.016   1.192 -1.2891  1.3225  1.0155
  100c3c    H10 1390   1.458   0.099   1.228  1.7441 -2.0840 -0.7909
  100c3c    H11 1391   1.304   0.141   1.139  0.3862  1.2572  0.1122
  100c3c    H12 1392   1.618  -0.048   1.141  2.9707  0.5439 -2.4695
  100c3c    H13 1393   1.477  -0.159   1.123 -0.8258  1.2988 -0.5081
  100c3c     C7 1394   1.622  -0.164   0.969 -0.9858 -0.4146  0.5627
  100c3c    H14 1395   1.694  -0.096   0.923 -1.0939 -0.0524  0.9262
  100c3c    H15 1396   1.557  -0.208   0.893  0.3450  0.1282 -0.9214
  100c3c     C8 1397   1.721  -0.269   1.024  0.2769  0.2064 -0.4786
  100c3c    H16 1398   1.767  -0.307   0.933 -2.2277 -0.5587 -1.4723
  100c3c    H17 1399   1.679  -0.350   1.084 -0.4693 -0.7709 -2.2810
  100c3c    H18 1400   1.799  -0.220   1.083 -0.2517 -0.4735  0.8045
  101fsi     F1 1401   1.874   2.615   1.910  0.0914  0.0842 -0.1287
  101fsi     S1 1402   1.951   2.732   1.986 -0.1096 -0.2073 -0.0060
  101fsi      N 1403   1.999   2.832   1.881  0.6416  0.5432 -0.9300
  101fsi     O1 1404   1.849   2.795   2.067 -0.6023 -0.3560  0.2134
  101fsi     O2 1405   2.063   2.667   2.053  0.2700 -0.2911  0.6564
  101fsi     S2 1406   1.915   2.869   1.749 -0.2885  0.2377  0.7700
  101fsi     O3 1407   1.983   2.976   1.686  0.0160 -0.6081 -0.1114
  101fsi     O4 1408   1.772   2.859   1.756 -0.4958  0.1332 -0.0156
  101fsi     F2 1409   1.948   2.745   1.661 -0.3487  0.6493 -0.2318
  102fsi     F1 1410   1.737   0.533   0.065 -0.5621  0.0319 -0.0811
  102fsi     S1 1411   1.733   0.394   0.002  0.5735  0.0450  0.2034
  102fsi      N 1412   1.876   0.392  -0.073  0.4921 -0.3368  0.0191
  102fsi     O1 1413   1.716   0.305   0.111  0.3113 -0.4994  0.4994
  102fsi     O2 1414   1.627   0.400  -0.092 -0.1700 -0.0079 -0.2353
  102fsi     S2 1415   2.014   0.351  -0.011 -0.4326  0.0072 -0.0076
  102fsi     O3 1416   2.021   0.352   0.131 -0.0646  0.3945  0.0119
  102fsi     O4 1417   2.113   0.423  -0.082  0.3039  0.0594 -0.0389
  102fsi     F2 1418   2.030   0.202  -0.060  0.4671  0.1840  0.5856
  103fsi     F1 1419   1.324   0.895   1.676 -0.2461  0.5058  0.6311
  103fsi     S1 1420   1.276   0.885   1.522 -0.0401  0.1474 -0.2200
  103fsi      N 1421   1.253   1.039   1.496  0.4755  0.6091  0.9267
  103fsi     O1 1422   1.394   0.847   1.447 -0.1332 -0.5733 -0.7023
  103fsi     O2 1423   1.161   0.803   1.526  0.5966  0.0809  0.0714
  103fsi     S2 1424   1.150   1.136   1.562  0.0572  0.7882  0.4492
  103fsi     O3 1425   1.080   1.072   1.673  0.0612  0.1132  0.2895
  103fsi     O4 1426   1.065   1.209   1.468 -0.0059  0.6525 -0.5108
  103fsi     F2 1427   1.244   1.249   1.626  0.0453  0.0956 -0.2296
  104fsi     F1 1428   0.457   2.059   0.798  0.2172  0.3017  0.2297
  104fsi     S1 1429   0.615   2.095   0.826 -0.1455  0.4222 -0.0347
  104fsi      N 1430   0.654   2.175   0.693 -0.1944  0.6478 -1.0770
  104fsi     O1 1431   0.617   2.168   0.949  0.2438  0.1060  0.1963
  104fsi     O2 1432   0.687   1.971   0.834 -0.5547 -0.1323 -0.3321
  104fsi     S2 1433   0.601   2.311   0.641 -0.3362  0.2151  0.1634
  104fsi     O3 1434   0.679   2.364   0.537 -0.1141 -0.0460 -0.7776
  104fsi     O4 1435   0.571   2.398   0.751  0.0525 -0.4117 -0.1763
  104fsi     F2 1436   0.458   2.282   0.582 -0.5039 -0.3318  0.8752
  105fsi     F1 1437   1.210   2.161   2.964 -0.2771 -0.1029  0.2438
  105fsi     S1 1438   1.064   2.212   2.990 -0.2255 -0.1522  0.1505
  105fsi      N 1439   1.060   2.318   2.873  0.2871 -0.0014 -0.7103
  105fsi     O1 1440   0.973   2.099   2.973 -0.3781  0.1129  0.5284
  105fsi     O2 1441   1.074   2.275   3.117  0.0959 -0.2522  0.2913
  105fsi     S2 1442   0.967   2.334   2.747  0.1220  0.1396 -0.5201
  105fsi     O3 1443   0.952   2.473   2.703  0.5432  0.1009  0.2327
  105fsi     O4 1444   0.851   2.250   2.752  0.2230  0.4112 -0.0712
  105fsi     F2 1445   1.053   2.272   2.628 -0.4047  0.7884 -0.0506
  106fsi     F1 1446   0.498   2.657   1.859 -0.5121 -0.3791  0.2003
  106fsi     S1 1447   0.468   2.637   2.015  0.1337  0.5909  0.1713
  106fsi      N 1448   0.597   2.691   2.083 -0.5575  0.2141  0.1324
  106fsi     O1 1449   0.352   2.711   2.047 -0.0591 -0.0691 -0.1284
  106fsi     O2 1450   0.462   2.495   2.025  0.2051  0.1682 -0.2159
  106fsi     S2 1451   0.619   2.846   2.117  0.3304  0.0060  0.0842
  106fsi     O3 1452   0.536   2.941   2.043 -0.2588  0.7047 -0.1528
  106fsi     O4 1453   0.760   2.875   2.136  0.3868  0.5517  0.4625
  106fsi     F2 1454   0.571   2.861   2.260 -0.3038 -0.3319 -0.1222
  107fsi     F1 1455   1.829   2.696   1.230 -0.3790 -0.4219 -0.3011
  107fsi     S1 1456   1.760   2.635   1.113 -0.0159  0.1758 -0.2592
  107fsi      N 1457   1.883   2.593   1.020 -0.1042 -0.4990 -0.2965
  107fsi     O1 1458   1.685   2.528   1.174  0.2819  0.1083 -0.3529
  107fsi     O2 1459   1.680   2.739   1.052 -0.2698  0.2998 -0.0319
  107fsi     S2 1460   1.949   2.455   0.984 -0.2415  0.2127  0.2344
  107fsi     O3 1461   1.937   2.413   0.846  0.2422  0.2818  0.1320
  107fsi     O4 1462   1.909   2.358   1.078 -0.2887 -0.9849 -0.4451
  107fsi     F2 1463   2.104   2.472   1.007 -0.2286 -0.3222  0.1690
  108fsi     F1 1464   2.917   0.284   1.736 -0.0987  0.0131 -0.2688
  108fsi     S1 1465   2.880   0.215   1.867 -0.3231  0.0014  0.1941
  108fsi      N 1466   3.014   0.207   1.947  0.0593  0.8923 -0.2375
  108fsi     O1 1467   2.784   0.310   1.916  0.3033  0.2103 -0.0092
  108fsi     O2 1468   2.834   0.091   1.824 -0.4518  0.2060  0.2150
  108fsi     S2 1469   3.089   0.310   2.035  0.0590  0.2579 -0.0166
  108fsi     O3 1470   3.051   0.448   2.010 -0.4936 -0.3805  0.1261
  108fsi     O4 1471   3.234   0.294   2.044 -0.0800 -0.2302  0.3612
  108fsi     F2 1472   3.043   0.280   2.178 -0.1665  0.2319  0.1560
  109fsi     F1 1473   2.881   2.698   1.539  0.0886 -0.2765  0.4065
  109fsi     S1 1474   2.862   2.646   1.691  0.8659  0.0568 -0.1711
  109fsi      N 1475   2.996   2.561   1.710  0.4048  0.0087  0.5396
  109fsi     O1 1476   2.834   2.755   1.782 -1.0120 -0.0406 -0.2615
  109fsi     O2 1477   2.747   2.558   1.684  0.0065  0.6256 -1.3641
  109fsi     S2 1478   3.134   2.615   1.759  0.0978  0.1479  0.3547
  109fsi     O3 1479   3.143   2.756   1.746 -0.3251 -0.2746 -0.2185
  109fsi     O4 1480   3.247   2.529   1.732 -0.7641 -0.4464  0.3071
  109fsi     F2 1481   3.118   2.600   1.912  0.1199 -0.1079 -0.0002
  110fsi     F1 1482   0.973   3.308   0.863  0.3096  0.1058 -0.0666
  110fsi     S1 1483   0.941   3.184   0.949 -0.5234 -0.1998  0.4817
  110fsi      N 1484   1.069   3.165   1.040  0.1230 -0.1864 -0.1271
  110fsi     O1 1485   0.820   3.217   1.020  0.3305 -0.3263  1.3041
  110fsi     O2 1486   0.938   3.079   0.854  0.0244  0.0656 -0.2001
  110fsi     S2 1487   1.107   3.238   1.177  0.4728 -0.4049 -0.2790
  110fsi     O3 1488   1.056   3.371   1.186 -0.4698 -0.3412  0.5209
  110fsi     O4 1489   1.249   3.219   1.211 -0.0620 -0.0536 -0.2141
  110fsi     F2 1490   1.023   3.150   1.289  0.1903  0.7131 -0.0362
  111fsi     F1 1491   3.376   0.963   1.348  0.2350  0.4444 -0.4628
  111fsi     S1 1492   3.356   0.981   1.192 -0.1440 -0.0228 -0.1804
  111fsi      N 1493   3.199   0.959   1.173 -0.2219 -0.7347 -0.3898
  111fsi     O1 1494   3.408   1.116   1.166  0.2689  0.1080 -0.8902
  111fsi     O2 1495   3.428   0.870   1.140 -0.3147  0.2547  0.0987
  111fsi     S2 1496   3.093   1.073   1.157 -0.2075  0.1414 -0.1990
  111fsi     O3 1497   3.110   1.187   1.249  0.5458 -0.5552 -0.2384
  111fsi     O4 1498   2.954   1.031   1.140 -0.0266  1.0339 -0.5463
  111fsi     F2 1499   3.131   1.131   1.012  0.0860  0.1468  0.0756
  112fsi     F1 1500   1.868   1.315   1.015 -0.3569 -0.1571 -0.0657
  112fsi     S1 1501   1.964   1.237   1.116 -0.2472  0.2986  0.4589
  112fsi      N 1502   1.873   1.204   1.240 -0.3714 -0.0198 -0.1408
  112fsi     O1 1503   2.004   1.122   1.041 -0.2919  0.1032  0.2824
  112fsi     O2 1504   2.071   1.331   1.144  0.3860  0.8659  0.2305
  112fsi     S2 1505   1.807   1.073   1.282 -0.1966  0.5030  0.0931
  112fsi     O3 1506   1.852   0.947   1.225  0.2036 -0.8722  0.2142
  112fsi     O4 1507   1.668   1.088   1.302  0.2560  0.3229 -0.1441
  112fsi     F2 1508   1.863   1.072   1.430 -0.1053 -0.1193 -0.3647
  113fsi     F1 1509   1.975   0.258   1.187  0.3690 -0.0121 -0.0512
  113fsi     S1 1510   1.931   0.113   1.145 -0.0849  0.1918 -0.0327
  113fsi      N 1511   2.021   0.015   1.228  1.2143  0.8194  0.0705
  113fsi     O1 1512   1.797   0.109   1.184 -0.4336 -0.2520  0.2559
  113fsi     O2 1513   1.951   0.104   1.000  0.2081 -0.5744  0.1847
  113fsi     S2 1514   2.123  -0.096   1.180 -0.1484 -0.0491 -0.2079
  113fsi     O3 1515   2.100  -0.129   1.043 -0.3792 -0.1703  0.3393
  113fsi     O4 1516   2.142  -0.206   1.270  0.0826  0.3193  0.2751
  113fsi     F2 1517   2.260  -0.023   1.178  0.0254 -0.3976  0.1575
  114fsi     F1 1518   0.724   1.274   1.269 -0.0226 -0.3209  0.2323
  114fsi     S1 1519   0.741   1.426   1.327 -0.1338 -0.2944 -0.3892
  114fsi      N 1520   0.856   1.488   1.234 -0.0730 -0.3617 -0.3997
  114fsi     O1 1521   0.607   1.483   1.311 -0.3780  0.5139  0.1068
  114fsi     O2 1522   0.781   1.404   1.463  0.0773  0.1077  0.1381
  114fsi     S2 1523   0.859   1.607   1.131 -0.2357 -0.2354  0.2800
  114fsi     O3 1524   0.980   1.675   1.133 -0.3323  0.2021  0.0096
  114fsi     O4 1525   0.740   1.687   1.123 -0.2594 -0.5923  0.1974
  114fsi     F2 1526   0.858   1.531   0.988 -0.2215 -0.4082 -0.1128
  115fsi     F1 1527   1.858   3.196   0.551  0.1155 -0.0593 -0.1798
  115fsi     S1 1528   1.998   3.254   0.591  0.4163  0.3096  0.2019
  115fsi      N 1529   2.014   3.375   0.493 -0.2398  0.5287  0.0531
  115fsi     O1 1530   1.984   3.285   0.729 -0.0563  0.3768 -0.4614
  115fsi     O2 1531   2.086   3.142   0.561 -0.1872 -0.0093  0.5316
  115fsi     S2 1532   2.014   3.531   0.523  0.0058  0.2680 -0.0113
  115fsi     O3 1533   1.980   3.557   0.661 -0.2256  0.3387  0.5409
  115fsi     O4 1534   1.957   3.604   0.412  0.3576  0.3286  0.1921
  115fsi     F2 1535   2.174   3.565   0.520  0.1671 -0.0600 -0.4453
  116fsi     F1 1536   1.930   2.897   0.359 -0.0354  0.2446 -0.1007
  116fsi     S1 1537   2.044   2.903   0.244 -0.0666 -0.0980 -0.5320
  116fsi      N 1538   2.150   2.819   0.317  0.1274 -0.0676  0.0905
  116fsi     O1 1539   1.991   2.833   0.130  0.0089 -0.3696  0.5866
  116fsi     O2 1540   2.097   3.037   0.234  0.1325  0.2877  0.2234
  116fsi     S2 1541   2.289   2.850   0.387  0.0540  0.1866  0.0612
  116fsi     O3 1542   2.294   2.779   0.509 -0.1155 -0.7732  0.1501
  116fsi     O4 1543   2.332   2.987   0.389  0.3366 -0.2506  0.3725
  116fsi     F2 1544   2.396   2.779   0.298  0.7673 -0.0967 -0.6184
  117fsi     F1 1545   1.606   0.816   0.848  0.7967  0.2081  0.0855
  117fsi     S1 1546   1.742   0.854   0.786 -0.0718 -0.0479  0.0028
  117fsi      N 1547   1.836   0.834   0.910  0.1120  0.8697  0.4759
  117fsi     O1 1548   1.757   0.760   0.679  0.3673  0.4136 -0.0729
  117fsi     O2 1549   1.718   0.990   0.757  0.2817  0.1474 -0.4522
  117fsi     S2 1550   1.949   0.723   0.929  0.0085 -0.0243  0.1296
  117fsi     O3 1551   1.924   0.601   0.864  0.0039  0.4569  0.4153
  117fsi     O4 1552   1.999   0.718   1.066  0.0904 -0.1836 -0.1468
  117fsi     F2 1553   2.073   0.779   0.847  0.7309 -0.1193  0.0914
  118fsi     F1 1554   1.816   0.739   3.246  0.7525 -0.2581 -0.2461
  118fsi     S1 1555   1.967   0.745   3.238 -0.2478 -0.3346  0.2202
  118fsi      N 1556   2.003   0.611   3.159 -0.3539  0.3994  0.4005
  118fsi     O1 1557   2.001   0.861   3.156  0.0413  0.2217 -0.2497
  118fsi     O2 1558   2.021   0.740   3.366 -0.1342 -0.0822 -0.0110
  118fsi     S2 1559   2.062   0.583   3.016 -0.1168 -0.0285 -0.2314
  118fsi     O3 1560   2.037   0.680   2.913 -0.0653 -0.5148 -0.2313
  118fsi     O4 1561   2.041   0.449   2.977 -0.0166 -0.3089  0.2390
  118fsi     F2 1562   2.221   0.590   3.042 -0.0902 -0.0750 -0.1226
  119fsi     F1 1563   2.029   0.688   0.444 -0.0946 -0.2412  0.1951
  119fsi     S1 1564   1.956   0.664   0.310 -0.3520  0.2252  0.0472
  119fsi      N 1565   1.866   0.791   0.304  0.4928  1.2863  1.5469
  119fsi     O1 1566   2.063   0.657   0.217  0.5568  0.3260 -0.0271
  119fsi     O2 1567   1.881   0.544   0.329  0.0037  0.3355 -0.0220
  119fsi     S2 1568   1.902   0.936   0.240 -0.1337 -0.2234 -0.3431
  119fsi     O3 1569   2.040   0.968   0.219  0.2714  0.0711 -0.5967
  119fsi     O4 1570   1.813   1.037   0.295  0.1900 -0.3483 -0.1889
  119fsi     F2 1571   1.847   0.939   0.094 -0.2630 -0.1209 -0.0289
  120fsi     F1 1572   0.569   1.078   2.750  0.0357 -0.1377 -0.7231
  120fsi     S1 1573   0.644   0.940   2.774  0.2021  0.1504 -0.2371
  120fsi      N 1574   0.559   0.833   2.696  0.1778  0.0668  0.4150
  120fsi     O1 1575   0.773   0.963   2.713 -0.2669  0.8255  0.3267
  120fsi     O2 1576   0.648   0.920   2.914 -0.0258 -0.0414 -0.2587
  120fsi     S2 1577   0.575   0.753   2.558  0.1091 -0.0767  0.1456
  120fsi     O3 1578   0.713   0.742   2.515 -0.7115  0.9553 -0.1852
  120fsi     O4 1579   0.474   0.779   2.456  0.7740  0.0147  0.3420
  120fsi     F2 1580   0.541   0.604   2.601  0.0104  0.2855 -0.1428
  121fsi     F1 1581   2.839   1.667   1.242 -0.1624  0.1752 -0.4590
  121fsi     S1 1582   2.849   1.534   1.325  0.3662 -0.2176  0.2321
  121fsi      N 1583   2.708   1.471   1.300 -0.5571  0.2958  0.2747
  121fsi     O1 1584   2.959   1.461   1.269 -0.0996 -0.0539  0.3902
  121fsi     O2 1585   2.867   1.579   1.458  0.8321 -0.0112 -0.2636
  121fsi     S2 1586   2.665   1.396   1.167  0.4318  0.1477 -0.2970
  121fsi     O3 1587   2.724   1.434   1.043  0.1256  0.3950 -0.6588
  121fsi     O4 1588   2.516   1.396   1.168  0.0477  0.3250  0.0865
  121fsi     F2 1589   2.711   1.248   1.191  0.3303 -0.0693 -0.5396
  122fsi     F1 1590   0.464   1.247   0.863  0.3244  0.4470  0.3563
  122fsi     S1 1591   0.597   1.169   0.879  0.5096 -0.1314  0.1698
  122fsi      N 1592   0.640   1.151   0.728 -0.1592 -0.0191  0.0702
  122fsi     O1 1593   0.684   1.264   0.948  1.0836  0.5389 -0.0554
  122fsi     O2 1594   0.557   1.044   0.947 -0.3738  0.4665 -0.6897
  122fsi     S2 1595   0.676   1.021   0.637  0.2300  0.0104  0.1974
  122fsi     O3 1596   0.715   0.901   0.711  0.1940 -0.3012  0.2031
  122fsi     O4 1597   0.755   1.053   0.524 -0.1134 -0.1618 -0.0028
  122fsi     F2 1598   0.536   0.977   0.580  0.0543 -0.1954  0.4940
  123fsi     F1 1599   2.662   0.651   1.752  0.6216 -0.2725 -0.6337
  123fsi     S1 1600   2.560   0.644   1.870 -0.0764  0.0396  0.2848
  123fsi      N 1601   2.560   0.790   1.925 -0.1819  0.4929 -0.2842
  123fsi     O1 1602   2.439   0.599   1.808 -0.1038 -0.5271 -0.4648
  123fsi     O2 1603   2.621   0.549   1.964 -0.4846 -0.2000 -0.0633
  123fsi     S2 1604   2.454   0.908   1.915 -0.6273  0.0576 -0.1135
  123fsi     O3 1605   2.333   0.872   1.853  0.1901  0.0238 -0.3415
  123fsi     O4 1606   2.512   1.030   1.877  0.2756 -0.7613 -0.4885
  123fsi     F2 1607   2.413   0.925   2.071 -0.2325 -0.6768  0.1306
  124fsi     F1 1608   1.536   0.465   1.855  0.3591 -0.3116  0.4205
  124fsi     S1 1609   1.521   0.369   1.730 -0.1055 -0.1324 -0.4073
  124fsi      N 1610   1.411   0.436   1.639  0.1926  0.0436  0.1962
  124fsi     O1 1611   1.643   0.370   1.663 -0.1924 -0.5187  0.1729
  124fsi     O2 1612   1.486   0.247   1.787 -0.1111 -0.0409 -0.0931
  124fsi     S2 1613   1.259   0.402   1.625 -0.0343 -0.1787  0.1793
  124fsi     O3 1614   1.181   0.521   1.612 -0.1398  0.3445 -0.0097
  124fsi     O4 1615   1.203   0.300   1.707  0.6485  0.5269 -0.1099
  124fsi     F2 1616   1.242   0.331   1.484 -0.1982 -0.0960 -0.0969
  125fsi     F1 1617   0.749   1.410   3.034 -0.1948 -0.1100 -0.0527
  125fsi     S1 1618   0.667   1.309   2.949  0.1997  0.2696  0.1271
  125fsi      N 1619   0.551   1.399   2.897  0.0138 -0.0370 -1.1274
  125fsi     O1 1620   0.762   1.264   2.849 -0.1158  0.0548  0.1029
  125fsi     O2 1621   0.622   1.207   3.045  0.1570 -0.2866  0.5492
  125fsi     S2 1622   0.521   1.457   2.751  0.2123 -0.2136 -0.3968
  125fsi     O3 1623   0.608   1.416   2.645 -0.5747  0.3811 -0.0998
  125fsi     O4 1624   0.466   1.590   2.747 -0.2667  0.1233  0.3828
  125fsi     F2 1625   0.398   1.358   2.728 -0.4190 -0.4726  0.2897
  126fsi     F1 1626   1.257   3.136   0.803  0.0375  0.1062 -0.5283
  126fsi     S1 1627   1.338   3.004   0.806  0.2685  0.3906  0.1097
  126fsi      N 1628   1.411   2.997   0.666 -0.2996 -0.0251 -0.8296
  126fsi     O1 1629   1.419   3.025   0.920 -0.2041 -0.2513 -0.1567
  126fsi     O2 1630   1.229   2.910   0.819  0.4425 -0.1847 -0.1936
  126fsi     S2 1631   1.516   3.092   0.600  0.0724  0.1831 -0.3606
  126fsi     O3 1632   1.520   3.224   0.655 -0.5645  0.1650 -0.7408
  126fsi     O4 1633   1.518   3.085   0.453 -0.6601  0.3360  0.2827
  126fsi     F2 1634   1.650   3.036   0.657  0.0606  0.2624  0.0439
  127fsi     F1 1635   2.458   3.191   1.767 -0.0070  0.1581  0.4513
  127fsi     S1 1636   2.373   3.110   1.660 -0.1781  0.2825  0.0269
  127fsi      N 1637   2.431   2.970   1.688  0.5770 -0.5524  0.3039
  127fsi     O1 1638   2.240   3.134   1.713 -0.5925 -0.0392  0.0056
  127fsi     O2 1639   2.418   3.172   1.538 -0.4816 -0.0619 -0.3367
  127fsi     S2 1640   2.520   2.881   1.592 -0.1916 -0.3053 -0.3149
  127fsi     O3 1641   2.466   2.873   1.459  0.2369  0.0653 -0.0205
  127fsi     O4 1642   2.549   2.755   1.649  0.0131  0.1744 -0.4464
  127fsi     F2 1643   2.663   2.953   1.575  0.4694 -0.7177  0.1130
  128fsi     F1 1644   1.277   2.488   2.298 -0.0296 -0.0476  1.1209
  128fsi     S1 1645   1.121   2.484   2.297  0.2076  0.1225 -0.4991
  128fsi      N 1646   1.076   2.333   2.278 -0.1776  0.5850  0.0076
  128fsi     O1 1647   1.089   2.534   2.431 -0.1213  0.1273  0.3017
  128fsi     O2 1648   1.081   2.567   2.189  0.4336  0.3293  0.3086
  128fsi     S2 1649   1.002   2.264   2.158 -0.4362  0.4549 -0.2363
  128fsi     O3 1650   1.088   2.212   2.055  0.2440  0.5409  0.3527
  128fsi     O4 1651   0.893   2.342   2.116  0.6198  0.2394 -0.9933
  128fsi     F2 1652   0.933   2.135   2.209 -0.4583 -0.4483 -0.0139
  129fsi     F1 1653   1.476   2.699   2.406 -0.2650  0.1416  0.0613
  129fsi     S1 1654   1.529   2.842   2.450  0.3110  0.0228 -0.2507
  129fsi      N 1655   1.601   2.896   2.326 -0.0684 -0.1890 -0.0272
  129fsi     O1 1656   1.408   2.914   2.482 -0.3807  0.9743 -0.3235
  129fsi     O2 1657   1.616   2.821   2.564 -0.1877  0.3550  0.0585
  129fsi     S2 1658   1.545   2.968   2.198 -0.2489  0.1093  0.0309
  129fsi     O3 1659   1.434   2.907   2.132  0.2210 -0.6457 -0.3874
  129fsi     O4 1660   1.650   3.019   2.115 -0.6204  0.0613 -0.2960
  129fsi     F2 1661   1.484   3.101   2.256  0.0448  0.0714  0.6935
  130fsi     F1 1662   2.138   3.228   2.188  0.2908 -0.3570 -0.0737
  130fsi     S1 1663   2.085   3.100   2.100  0.3120 -0.2602 -0.2423
  130fsi      N 1664   2.210   3.051   2.026  0.3014  0.3788 -0.4241
  130fsi     O1 1665   2.021   3.018   2.203 -0.5392  0.0362  0.4012
  130fsi     O2 1666   1.993   3.157   2.001 -0.1508 -0.4506  0.1369
  130fsi     S2 1667   2.294   2.920   2.051  0.1212  0.5228  0.0837
  130fsi     O3 1668   2.296   2.825   1.944  0.0091 -0.2853  0.7105
  130fsi     O4 1669   2.278   2.865   2.182  0.0759 -0.3234  0.0803
  130fsi     F2 1670   2.443   2.964   2.044  0.4800 -0.3035 -0.5566
  131fsi     F1 1671   2.791   0.044   2.237  0.5477 -0.0949  0.4889
  131fsi     S1 1672   2.650   0.115   2.240 -0.1083 -0.0057 -0.3094
  131fsi      N 1673   2.584   0.078   2.099  1.1606 -0.1484  0.7026
  131fsi     O1 1674   2.580   0.058   2.355  0.1866  0.3833  0.0560
  131fsi     O2 1675   2.678   0.257   2.246 -0.5281 -0.8674 -0.5836
  131fsi     S2 1676   2.463  -0.015   2.072 -0.1489  0.2619  0.1656
  131fsi     O3 1677   2.448  -0.132   2.150 -0.3229  0.0510  0.2171
  131fsi     O4 1678   2.441  -0.027   1.934  0.3355  0.6221  0.0894
  131fsi     F2 1679   2.336   0.072   2.118  0.4102 -0.5735 -0.0644
  132fsi     F1 1680   0.694   2.654   1.212 -0.6354 -0.3668  0.4534
  132fsi     S1 1681   0.774   2.519   1.208  0.1686  0.1079 -0.3384
  132fsi      N 1682   0.877   2.553   1.102 -0.4450 -0.0359 -0.2791
  132fsi     O1 1683   0.831   2.512   1.339  0.6833  0.0662  0.1895
  132fsi     O2 1684   0.680   2.418   1.172  0.3865  0.8434  0.5902
  132fsi     S2 1685   1.015   2.631   1.112  0.1670 -0.4128  0.0463
  132fsi     O3 1686   1.037   2.711   1.227  0.7387  0.0682 -0.3468
  132fsi     O4 1687   1.045   2.689   0.980 -0.0228 -0.1667  0.1198
  132fsi     F2 1688   1.114   2.510   1.122  0.3833 -0.4356  0.1048
  133fsi     F1 1689   1.801   2.926   3.112 -0.1327 -0.0329  0.4974
  133fsi     S1 1690   1.931   2.992   3.174 -0.4813 -0.1605  0.3811
  133fsi      N 1691   2.041   2.931   3.078  0.3317 -0.4970  0.7480
  133fsi     O1 1692   1.910   3.135   3.173 -0.5869 -0.2326  0.2897
  133fsi     O2 1693   1.933   2.918   3.296 -0.1322  0.2727 -0.4950
  133fsi     S2 1694   2.104   2.997   2.955 -0.0281  0.2706 -0.2418
  133fsi     O3 1695   2.232   2.937   2.926  0.4199  0.4045  0.3713
  133fsi     O4 1696   2.097   3.143   2.956 -0.0788 -0.5048  0.0173
  133fsi     F2 1697   2.005   2.956   2.832 -0.0393  0.0535  0.0101
  134fsi     F1 1698   1.270   2.782   2.754  0.1025 -0.5159  0.3036
  134fsi     S1 1699   1.159   2.886   2.737  0.2239 -0.0959  0.1236
  134fsi      N 1700   1.071   2.831   2.621  0.7870  0.0409 -0.4259
  134fsi     O1 1701   1.083   2.888   2.859 -0.0725  0.2196 -0.0817
  134fsi     O2 1702   1.223   3.007   2.706  0.2344 -0.1792  0.5861
  134fsi     S2 1703   1.016   2.902   2.498 -0.0868 -0.3529 -0.1062
  134fsi     O3 1704   1.020   3.045   2.486 -0.5639  0.3089 -0.3353
  134fsi     O4 1705   0.892   2.842   2.464  0.4131 -0.0010 -0.2415
  134fsi     F2 1706   1.118   2.861   2.385  0.0034 -0.4991  0.2329
  135fsi     F1 1707   0.472   2.643   2.626 -0.4495  0.4978 -0.0125
  135fsi     S1 1708   0.598   2.552   2.662 -0.3052  0.2113  0.2209
  135fsi      N 1709   0.599   2.436   2.554  0.6081 -0.2382  0.4794
  135fsi     O1 1710   0.714   2.643   2.657 -0.0762 -0.1590  0.0733
  135fsi     O2 1711   0.567   2.506   2.793  0.4856  0.0467  0.3305
  135fsi     S2 1712   0.678   2.438   2.410 -0.1287 -0.1269 -0.6746
  135fsi     O3 1713   0.753   2.554   2.369  0.2802  0.1217 -0.2266
  135fsi     O4 1714   0.598   2.378   2.310 -0.0490 -0.0682  0.3970
  135fsi     F2 1715   0.786   2.336   2.435 -0.8104  0.5221 -0.0503
  136fsi     F1 1716   2.528   0.357   0.115 -0.0246  0.3120  0.3386
  136fsi     S1 1717   2.437   0.442   0.214 -0.2116 -0.3559  0.1100
  136fsi      N 1718   2.515   0.581   0.228  0.3003 -0.1802 -0.6230
  136fsi     O1 1719   2.311   0.446   0.149 -0.1602 -0.1669  0.1566
  136fsi     O2 1720   2.457   0.355   0.330 -0.3834  0.0364  0.3612
  136fsi     S2 1721   2.493   0.714   0.140 -0.0173 -0.0081 -0.2781
  136fsi     O3 1722   2.376   0.722   0.060  0.3148 -0.0667 -0.5939
  136fsi     O4 1723   2.617   0.753   0.077 -0.6222  0.0534 -0.4489
  136fsi     F2 1724   2.464   0.819   0.246 -0.1269 -0.1049  0.5981
  137fsi     F1 1725   1.853   0.232   2.884 -0.3677 -0.9235  0.1844
  137fsi     S1 1726   1.719   0.298   2.935 -0.2048 -0.0341 -0.0037
  137fsi      N 1727   1.649   0.173   2.997  0.4772  0.8774 -0.4611
  137fsi     O1 1728   1.753   0.397   3.032 -0.2413 -0.3360 -0.5060
  137fsi     O2 1729   1.658   0.341   2.815  0.1129 -0.4589  0.4788
  137fsi     S2 1730   1.693   0.099   3.128  0.6736  0.0580 -0.3745
  137fsi     O3 1731   1.815   0.141   3.192  0.1470  0.0129 -0.0694
  137fsi     O4 1732   1.673  -0.041   3.114  0.4190 -0.2240  0.1676
  137fsi     F2 1733   1.582   0.151   3.229 -0.0312  0.4636 -0.0600
  138fsi     F1 1734   0.822   0.542   1.298 -0.4839 -0.1334  0.2986
  138fsi     S1 1735   0.944   0.454   1.337 -0.0869 -0.4031  0.4376
  138fsi      N 1736   0.954   0.340   1.235  0.4081  0.1093 -0.0481
  138fsi     O1 1737   1.058   0.538   1.339  0.0704 -0.0427  0.6341
  138fsi     O2 1738   0.903   0.406   1.466  0.2518 -0.2929 -0.6312
  138fsi     S2 1739   1.034   0.315   1.105 -0.1732 -0.2112  0.0263
  138fsi     O3 1740   1.044   0.177   1.068  0.4081 -0.3278 -0.6969
  138fsi     O4 1741   1.156   0.381   1.086 -0.1012 -0.4569 -0.6671
  138fsi     F2 1742   0.943   0.369   0.992  0.6265  0.0960  0.2150
  139fsi     F1 1743   0.742   1.983   0.438 -0.0904 -0.4096 -0.2658
  139fsi     S1 1744   0.793   2.075   0.316  0.1399  0.1822 -0.1389
  139fsi      N 1745   0.923   2.140   0.373  0.4860 -0.1710  1.0016
  139fsi     O1 1746   0.807   1.973   0.213  0.2700  0.1081 -0.0992
  139fsi     O2 1747   0.684   2.164   0.301  0.1401  0.5039  0.7469
  139fsi     S2 1748   1.072   2.089   0.360  0.2482  0.2289  0.0481
  139fsi     O3 1749   1.101   1.968   0.287  0.1291  0.3049 -0.3128
  139fsi     O4 1750   1.123   2.097   0.498  0.6550  0.1147  0.4241
  139fsi     F2 1751   1.143   2.201   0.278 -0.6111 -0.5205  0.6711
  140fsi     F1 1752   1.031   1.751   2.845 -0.1271  0.3333 -0.1527
  140fsi     S1 1753   0.906   1.713   2.758  0.0858 -0.0045 -0.1481
  140fsi      N 1754   0.982   1.691   2.623 -0.0616  0.3931 -0.2864
  140fsi     O1 1755   0.858   1.595   2.814  0.2766 -0.1473 -0.3410
  140fsi     O2 1756   0.832   1.832   2.759  0.0760 -0.4044 -0.3802
  140fsi     S2 1757   1.065   1.568   2.565 -0.4417  0.0354 -0.1516
  140fsi     O3 1758   1.064   1.452   2.645 -0.3133 -0.0259  0.5284
  140fsi     O4 1759   1.193   1.606   2.518 -0.3313 -0.1011 -0.0989
  140fsi     F2 1760   0.985   1.526   2.441  0.2616  0.4905  0.0693
  141fsi     F1 1761   2.312   2.095   0.032  0.6828 -0.2439 -0.0248
  141fsi     S1 1762   2.237   2.026  -0.090  0.0189 -0.2657  0.1434
  141fsi      N 1763   2.158   1.907  -0.030  0.5910 -0.2758 -0.2883
  141fsi     O1 1764   2.147   2.128  -0.136  0.4049 -0.7455 -0.2384
  141fsi     O2 1765   2.341   1.989  -0.183  0.5823  0.4757  0.0882
  141fsi     S2 1766   2.008   1.903   0.022 -0.1121  0.0989  0.3556
  141fsi     O3 1767   1.940   2.026   0.035  0.1023 -0.3793 -0.4304
  141fsi     O4 1768   2.003   1.814   0.136 -0.1151  0.0850 -0.4709
  141fsi     F2 1769   1.930   1.817  -0.090 -0.0781 -0.0253 -0.0015
  142fsi     F1 1770   1.105   0.701   2.380 -0.2233 -0.5222 -0.1671
  142fsi     S1 1771   1.147   0.617   2.506 -0.0645  0.2249 -0.3043
  142fsi      N 1772   1.032   0.652   2.611 -0.0205 -0.0609 -0.2470
  142fsi     O1 1773   1.145   0.484   2.457 -0.2095 -0.5730  0.4496
  142fsi     O2 1774   1.275   0.677   2.549  0.3063 -0.1583 -0.2204
  142fsi     S2 1775   0.937   0.557   2.686  0.3712  0.3230  0.1880
  142fsi     O3 1776   0.873   0.465   2.601  0.3827  0.1646  0.3907
  142fsi     O4 1777   0.852   0.639   2.770 -0.3207 -0.0674 -0.0018
  142fsi     F2 1778   1.009   0.471   2.793 -0.1879 -0.0563  0.0550
  143fsi     F1 1779   1.585   2.945   2.923 -0.1808 -0.2356 -0.1743
  143fsi     S1 1780   1.566   3.100   2.932  0.3015 -0.3414 -0.3550
  143fsi      N 1781   1.475   3.098   3.067 -0.0726  0.5385 -0.3655
  143fsi     O1 1782   1.696   3.159   2.953  0.2941  0.2485 -1.3627
  143fsi     O2 1783   1.495   3.131   2.811 -0.2115  0.4223 -0.0735
  143fsi     S2 1784   1.379   3.208   3.117 -0.0370  0.1333 -0.0475
  143fsi     O3 1785   1.379   3.324   3.027 -0.4055 -1.3918  0.2807
  143fsi     O4 1786   1.372   3.224   3.259  0.2799 -0.4378 -0.0415
  143fsi     F2 1787   1.238   3.143   3.091 -0.0056 -0.8455  0.3329
  144fsi     F1 1788   0.781   1.445   1.829  0.2167 -0.1293 -0.3120
  144fsi     S1 1789   0.914   1.361   1.807 -0.2470 -0.1303  0.0329
  144fsi      N 1790   0.976   1.371   1.950 -0.2916  0.0352 -0.7154
  144fsi     O1 1791   0.865   1.230   1.758 -0.3227  0.0497  0.1959
  144fsi     O2 1792   0.998   1.434   1.711 -0.2784  0.5169  0.2408
  144fsi     S2 1793   1.083   1.264   2.005  0.7916 -0.0611  0.4681
  144fsi     O3 1794   1.035   1.127   1.987  0.0147  0.3207 -0.3042
  144fsi     O4 1795   1.149   1.296   2.133 -0.3853 -0.4196  0.1651
  144fsi     F2 1796   1.211   1.266   1.901  0.1967  0.3168  0.2829
  145fsi     F1 1797   1.937   1.802   2.583  0.1551  0.1282 -0.1967
  145fsi     S1 1798   2.038   1.682   2.588  0.4121 -0.1172  0.4375
  145fsi      N 1799   2.079   1.664   2.438 -0.5984 -0.1775 -0.3743
  145fsi     O1 1800   2.152   1.729   2.653  0.0118  0.4717  0.2915
  145fsi     O2 1801   1.962   1.573   2.640 -0.1352 -0.1169 -0.1230
  145fsi     S2 1802   2.058   1.551   2.332 -0.2652 -0.1711  0.0430
  145fsi     O3 1803   2.010   1.425   2.387  0.3588  0.0990 -0.1243
  145fsi     O4 1804   2.159   1.551   2.231 -0.1522 -0.2203 -0.5346
  145fsi     F2 1805   1.936   1.612   2.256  0.3036 -0.3434  0.9162
  146fsi     F1 1806   2.235   0.306   1.932  0.0963  0.0322 -0.0677
  146fsi     S1 1807   2.262   0.397   2.057 -0.2665  0.4541 -0.1568
  146fsi      N 1808   2.214   0.541   2.004 -0.0163  0.8717 -0.8251
  146fsi     O1 1809   2.175   0.338   2.157  0.6956 -0.2741  0.4385
  146fsi     O2 1810   2.405   0.380   2.067  0.3943 -0.2465  0.0184
  146fsi     S2 1811   2.080   0.610   2.031 -0.3275  0.0885  0.0396
  146fsi     O3 1812   1.969   0.525   2.058 -0.6375  0.5973  0.6748
  146fsi     O4 1813   2.055   0.709   1.932 -0.5385  0.2868  0.1188
  146fsi     F2 1814   2.099   0.689   2.165  0.6337  0.2250 -0.1568
  147fsi     F1 1815   1.084   1.801   1.786  0.3771 -0.6197 -0.8847
  147fsi     S1 1816   1.189   1.874   1.686  0.2249  0.2191  0.1698
  147fsi      N 1817   1.096   1.904   1.570 -0.0268 -0.1649 -0.9416
  147fsi     O1 1818   1.229   1.991   1.755  0.0554  0.0528  0.1255
  147fsi     O2 1819   1.287   1.779   1.666  0.3457 -0.2970  0.4768
  147fsi     S2 1820   1.053   1.822   1.451  0.3867  0.1632  0.1233
  147fsi     O3 1821   0.917   1.853   1.408  0.8617 -0.2448 -0.6385
  147fsi     O4 1822   1.096   1.685   1.448 -0.5180 -0.1210 -0.1083
  147fsi     F2 1823   1.147   1.892   1.343 -0.6857 -0.2093 -0.3247
  148fsi     F1 1824   0.392   2.141   1.931 -0.3787 -0.5645 -0.1235
  148fsi     S1 1825   0.339   2.026   1.837  0.1835  0.0308 -0.0835
  148fsi      N 1826   0.395   1.906   1.924 -0.4256 -0.7158  0.2822
  148fsi     O1 1827   0.196   2.032   1.834  0.1469 -0.3271 -0.1199
  148fsi     O2 1828   0.407   2.056   1.715 -0.0367 -0.3159  0.2262
  148fsi     S2 1829   0.322   1.821   2.036 -0.0507  0.3687 -0.5384
  148fsi     O3 1830   0.309   1.687   1.982  0.3225 -0.3123  0.0805
  148fsi     O4 1831   0.217   1.892   2.096 -0.2950 -0.0627  0.0004
  148fsi     F2 1832   0.429   1.818   2.148 -0.3623  0.3811 -0.1603
  149fsi     F1 1833   0.462   3.037   0.689  0.4754 -0.0859 -0.4614
  149fsi     S1 1834   0.602   3.043   0.758 -0.1089  0.0324 -0.4015
  149fsi      N 1835   0.629   2.889   0.779  0.1810 -0.1578 -0.3418
  149fsi     O1 1836   0.680   3.115   0.656  0.1041  0.7162 -0.0853
  149fsi     O2 1837   0.575   3.117   0.873  0.3237 -0.0043 -0.6226
  149fsi     S2 1838   0.628   2.810   0.911  0.0812  0.0726 -0.7850
  149fsi     O3 1839   0.696   2.880   1.017 -0.0195  0.5022  0.0260
  149fsi     O4 1840   0.668   2.667   0.902  0.5659  0.0752 -0.0942
  149fsi     F2 1841   0.469   2.812   0.954  0.3372  0.3889 -0.1453
  150fsi     F1 1842   3.415   1.617   1.038 -0.1343 -0.0975  0.1971
  150fsi     S1 1843   3.409   1.554   1.182  0.0586  0.2161 -0.1029
  150fsi      N 1844   3.394   1.677   1.284  0.2797 -0.2663 -1.0839
  150fsi     O1 1845   3.292   1.466   1.182 -0.3344  0.4932  0.1540
  150fsi     O2 1846   3.539   1.497   1.199  0.6763 -0.7590 -0.5442
  150fsi     S2 1847   3.265   1.709   1.359  0.2320  0.0254 -0.0793
  150fsi     O3 1848   3.287   1.820   1.448 -0.0078  0.3733  0.3456
  150fsi     O4 1849   3.189   1.601   1.417 -0.1898  0.0157  0.0479
  150fsi     F2 1850   3.165   1.776   1.244 -0.0938 -0.2567 -0.8923
  151fsi     F1 1851   1.651   0.467   0.722 -0.2317 -0.4994  0.4012
  151fsi     S1 1852   1.755   0.354   0.706 -0.3600  0.1821  0.0350
  151fsi      N 1853   1.672   0.235   0.652  0.6950 -0.2850  0.2975
  151fsi     O1 1854   1.856   0.411   0.619  0.1255  0.2562  0.5000
  151fsi     O2 1855   1.801   0.324   0.842  0.2123 -0.5596  0.1469
  151fsi     S2 1856   1.620   0.210   0.508 -0.1971  0.1128  0.4026
  151fsi     O3 1857   1.673   0.293   0.401 -0.5151  0.0366 -0.3281
  151fsi     O4 1858   1.479   0.184   0.512  0.5422  0.0524  0.2808
  151fsi     F2 1859   1.665   0.071   0.462  0.2631  0.4900 -0.0145
  152fsi     F1 1860   0.665   0.689   2.117 -0.8024  0.6728 -0.0318
  152fsi     S1 1861   0.818   0.670   2.152 -0.4551 -0.3663 -0.0926
  152fsi      N 1862   0.880   0.607   2.018 -0.0157 -0.1641 -0.4545
  152fsi     O1 1863   0.854   0.809   2.177  0.0498 -0.5133  0.0296
  152fsi     O2 1864   0.814   0.583   2.270  0.4125 -0.0619  0.3709
  152fsi     S2 1865   0.952   0.684   1.896 -0.2115 -0.0310 -0.0330
  152fsi     O3 1866   0.966   0.824   1.910  0.5502 -0.0691  0.2811
  152fsi     O4 1867   0.918   0.633   1.766  0.0100 -0.1609 -0.8918
  152fsi     F2 1868   1.101   0.637   1.913 -0.5769 -0.4963  0.4967
  153fsi     F1 1869   3.164   3.127   1.193  0.4364  0.3420 -0.6368
  153fsi     S1 1870   3.113   3.172   1.333 -0.0734 -0.1079 -0.3517
  153fsi      N 1871   3.138   3.332   1.312  0.5336  0.3026  0.3699
  153fsi     O1 1872   2.979   3.127   1.336  0.1349 -0.5346  0.2207
  153fsi     O2 1873   3.211   3.109   1.417  0.3555 -0.2514  0.5007
  153fsi     S2 1874   3.037   3.451   1.324  0.0422 -0.2845  0.1585
  153fsi     O3 1875   3.109   3.572   1.312 -0.7315  0.2134  0.1332
  153fsi     O4 1876   2.941   3.438   1.431  0.1820  0.2286  0.3365
  153fsi     F2 1877   2.947   3.438   1.195 -0.2733  0.0499  0.3364
  154fsi     F1 1878   2.048   1.585   0.951 -0.5099 -0.1328  0.4731
  154fsi     S1 1879   2.151   1.554   0.826 -0.4602 -0.1274  0.0809
  154fsi      N 1880   2.053   1.515   0.705 -0.2940  0.4025  0.0579
  154fsi     O1 1881   2.229   1.671   0.803  0.0665  0.5267 -0.2405
  154fsi     O2 1882   2.217   1.439   0.879  0.5383 -1.1744 -0.7091
  154fsi     S2 1883   2.014   1.589   0.577 -0.4850  0.1480  0.1288
  154fsi     O3 1884   1.962   1.726   0.598  0.0052  0.0093 -0.2209
  154fsi     O4 1885   1.936   1.500   0.492 -0.0424 -0.2374  0.1164
  154fsi     F2 1886   2.136   1.611   0.490 -0.3665  0.2086  0.0339
  155fsi     F1 1887   1.400   1.419   1.173 -0.3236 -0.0378  0.3583
  155fsi     S1 1888   1.320   1.292   1.220  0.3761  0.0643  0.4012
  155fsi      N 1889   1.317   1.200   1.090  0.2885 -0.5385  0.4926
  155fsi     O1 1890   1.407   1.243   1.322  0.0703 -0.2663 -0.5870
  155fsi     O2 1891   1.193   1.352   1.255 -0.2070 -0.1489  0.2941
  155fsi     S2 1892   1.385   1.059   1.062  0.2723  0.0635 -0.2813
  155fsi     O3 1893   1.332   0.999   0.942 -0.0662  0.4163  0.3615
  155fsi     O4 1894   1.396   0.986   1.181 -0.4308  0.1504  0.0938
  155fsi     F2 1895   1.525   1.100   1.027  0.0866  1.1594 -0.4184
  156fsi     F1 1896   1.781   1.858   2.931 -0.4425 -0.5703  0.1442
  156fsi     S1 1897   1.795   2.004   2.987 -0.0191 -0.3599  0.2210
  156fsi      N 1898   1.664   2.023   3.068 -0.3756 -0.6157  0.1279
  156fsi     O1 1899   1.919   1.995   3.065 -0.5764 -0.2313 -0.1133
  156fsi     O2 1900   1.793   2.078   2.861  0.0792 -0.1452 -0.3613
  156fsi     S2 1901   1.629   2.083   3.207  0.4709  0.2858  0.4732
  156fsi     O3 1902   1.738   2.117   3.291 -0.1989  0.1371 -0.6489
  156fsi     O4 1903   1.525   2.008   3.270 -0.4714  0.1605 -0.2367
  156fsi     F2 1904   1.564   2.226   3.174 -0.1587  0.1857 -0.2306
  157fsi     F1 1905   0.752   2.726   3.374  0.0775 -0.3398 -0.0978
  157fsi     S1 1906   0.909   2.723   3.397 -0.3302 -0.0783 -0.0736
  157fsi      N 1907   0.922   2.657   3.537  0.1784 -0.1635 -0.1699
  157fsi     O1 1908   0.949   2.645   3.283  0.0205 -0.4487 -0.3221
  157fsi     O2 1909   0.945   2.861   3.402 -0.0202 -0.4103  0.0017
  157fsi     S2 1910   0.979   2.518   3.590 -0.0953 -0.1051 -0.1269
  157fsi     O3 1911   1.014   2.430   3.486 -0.1151  0.0943  0.1266
  157fsi     O4 1912   0.911   2.467   3.707  0.5870 -0.5243  0.2506
  157fsi     F2 1913   1.121   2.557   3.644  0.3472 -0.6418 -0.0626
  158fsi     F1 1914   0.731   1.442   3.395  0.5036  0.3371 -0.3582
  158fsi     S1 1915   0.835   1.428   3.511 -0.0624 -0.1191  0.0412
  158fsi      N 1916   0.779   1.303   3.588 -0.1470 -0.0880  0.3720
  158fsi     O1 1917   0.964   1.413   3.449  0.0286  0.3571 -0.2892
  158fsi     O2 1918   0.813   1.549   3.586 -0.8724  0.3253  0.2473
  158fsi     S2 1919   0.798   1.150   3.562 -0.0932 -0.3434 -0.5743
  158fsi     O3 1920   0.769   1.062   3.673  0.4057 -0.3870  0.0312
  158fsi     O4 1921   0.913   1.123   3.478 -0.3709  0.1533 -0.4200
  158fsi     F2 1922   0.682   1.115   3.465  0.1719  0.0888 -0.4539
  159fsi     F1 1923   2.573   2.155   1.946  0.0677 -0.2439 -0.1825
  159fsi     S1 1924   2.491   2.224   1.835  0.2279  0.3693 -0.3116
  159fsi      N 1925   2.376   2.293   1.915 -0.1970 -0.0851 -0.1349
  159fsi     O1 1926   2.585   2.319   1.784  0.2378  0.3412  0.2561
  159fsi     O2 1927   2.436   2.120   1.753  0.6461 -0.1977  0.1577
  159fsi     S2 1928   2.318   2.436   1.907 -0.0471 -0.2771  0.0195
  159fsi     O3 1929   2.370   2.524   1.805  0.5850 -0.0651  0.1563
  159fsi     O4 1930   2.308   2.491   2.038 -0.3644 -0.1026  0.0822
  159fsi     F2 1931   2.167   2.418   1.869 -0.2079 -0.2309  0.0933
  160fsi     F1 1932   3.145   1.252   1.710 -0.6254 -0.2650 -0.2399
  160fsi     S1 1933   3.276   1.212   1.624  0.2988  0.2217  0.1716
  160fsi      N 1934   3.386   1.254   1.731  0.9133  0.0162 -0.6314
  160fsi     O1 1935   3.262   1.072   1.606 -0.0574  0.1028  0.1297
  160fsi     O2 1936   3.272   1.301   1.510  0.9708 -0.3378  0.4772
  160fsi     S2 1937   3.478   1.157   1.821  0.4766 -0.0103  0.4347
  160fsi     O3 1938   3.565   1.229   1.911 -0.2270  0.7099 -0.4466
  160fsi     O4 1939   3.533   1.041   1.754  0.5371 -0.2701  0.0259
  160fsi     F2 1940   3.379   1.083   1.919 -0.2014 -0.6630  0.7222
  161fsi     F1 1941   1.169   0.122   2.809  0.6314  0.1640 -0.5760
  161fsi     S1 1942   1.307   0.171   2.741  0.4950 -0.2365 -0.0150
  161fsi      N 1943   1.374   0.046   2.681  0.3940 -0.2415  0.3711
  161fsi     O1 1944   1.265   0.271   2.648  0.3051 -0.5497  0.1532
  161fsi     O2 1945   1.380   0.209   2.856  0.7775 -0.2502  0.0826
  161fsi     S2 1946   1.374  -0.003   2.530 -0.2039  0.3178 -0.0941
  161fsi     O3 1947   1.291   0.075   2.438 -0.2508  0.2190 -0.3412
  161fsi     O4 1948   1.369  -0.143   2.527  0.5485 -0.4858  0.6987
  161fsi     F2 1949   1.521   0.032   2.484  0.6732  0.2432 -0.3986
  162fsi     F1 1950   1.108   3.264   1.531  0.4795 -0.2612 -0.3796
  162fsi     S1 1951   1.123   3.422   1.543  0.1931 -0.0655 -0.0528
  162fsi      N 1952   1.263   3.448   1.466  0.3127  0.2578  0.2547
  162fsi     O1 1953   1.020   3.474   1.467  0.0666 -0.1652  0.1685
  162fsi     O2 1954   1.117   3.448   1.684  0.2521  0.2446  0.6387
  162fsi     S2 1955   1.414   3.441   1.521  0.6710  0.5730 -0.2046
  162fsi     O3 1956   1.511   3.374   1.436  0.3564  0.7413  0.1907
  162fsi     O4 1957   1.424   3.411   1.660  0.5083  0.1573 -0.7718
  162fsi     F2 1958   1.460   3.595   1.503 -0.0601  0.0526 -0.3267
  163fsi     F1 1959   2.791   0.744   1.208  0.2943  0.1239 -0.4059
  163fsi     S1 1960   2.754   0.591   1.225 -0.0279 -0.0914  0.0748
  163fsi      N 1961   2.897   0.527   1.238 -0.5400 -0.9838 -0.0107
  163fsi     O1 1962   2.676   0.581   1.342 -0.4009  0.5716 -0.3071
  163fsi     O2 1963   2.687   0.567   1.100  0.1166 -0.4297 -0.1875
  163fsi     S2 1964   3.006   0.545   1.353 -0.1354  0.1554 -0.1590
  163fsi     O3 1965   2.995   0.651   1.446  0.2219  0.3509  0.3340
  163fsi     O4 1966   3.133   0.511   1.292 -0.2705  0.1384 -0.0033
  163fsi     F2 1967   2.978   0.420   1.439 -0.1150  0.5775  0.3904
  164fsi     F1 1968   2.637   0.432   0.793  0.3856 -1.0045 -0.1244
  164fsi     S1 1969   2.602   0.496   0.647 -0.0289  0.1645  0.0565
  164fsi      N 1970   2.447   0.476   0.636 -0.5268  0.4394  0.0157
  164fsi     O1 1971   2.642   0.633   0.650  0.9715 -0.3955 -0.2093
  164fsi     O2 1972   2.674   0.409   0.554  0.6870  0.0130  0.4857
  164fsi     S2 1973   2.337   0.576   0.672  0.1851  0.0407 -0.0830
  164fsi     O3 1974   2.373   0.665   0.777  0.0567  0.4669  0.2901
  164fsi     O4 1975   2.204   0.518   0.683  0.3044  0.1882  0.0904
  164fsi     F2 1976   2.316   0.668   0.543 -0.2992 -0.0069  0.4321
  165fsi     F1 1977   2.305   0.642   1.384  0.0843 -0.0087  0.0316
  165fsi     S1 1978   2.178   0.701   1.454  0.2134  0.0448  0.1198
  165fsi      N 1979   2.093   0.570   1.472 -0.3024 -0.3534 -0.6919
  165fsi     O1 1980   2.223   0.761   1.576  0.2052  0.1636  0.0654
  165fsi     O2 1981   2.129   0.788   1.349 -0.1448 -0.2345 -0.3889
  165fsi     S2 1982   2.097   0.460   1.584  0.1555 -0.4240  0.0306
  165fsi     O3 1983   2.192   0.480   1.688 -0.0934 -0.1128 -0.4935
  165fsi     O4 1984   2.089   0.336   1.518  0.3377 -0.7658 -0.1359
  165fsi     F2 1985   1.961   0.471   1.657  0.0871  0.4395 -0.1557
  166fsi     F1 1986   2.571   2.206   1.237 -0.3009  0.3452  0.0692
  166fsi     S1 1987   2.487   2.236   1.368 -0.0816  0.4043 -0.2366
  166fsi      N 1988   2.365   2.323   1.330  0.5666  0.0002  0.2926
  166fsi     O1 1989   2.457   2.098   1.410  0.6334 -0.0829  0.3866
  166fsi     O2 1990   2.576   2.306   1.455 -0.4732  0.3119  0.3280
  166fsi     S2 1991   2.343   2.479   1.330 -0.2054  0.1320 -0.0749
  166fsi     O3 1992   2.396   2.545   1.214 -0.1025  0.0889 -0.2471
  166fsi     O4 1993   2.366   2.535   1.461 -0.4616  0.0311 -0.3366
  166fsi     F2 1994   2.190   2.490   1.318  0.1357  0.3331 -0.1896
  167fsi     F1 1995   1.135   1.059   2.877  0.2522 -0.6745 -0.4698
  167fsi     S1 1996   1.168   1.023   2.725  0.3383  0.0240 -0.1925
  167fsi      N 1997   1.094   1.134   2.636 -0.0696 -0.2039 -0.3752
  167fsi     O1 1998   1.311   1.026   2.709  0.0561 -0.2522  0.0102
  167fsi     O2 1999   1.102   0.896   2.718  0.0270 -0.4597  0.3013
  167fsi     S2 2000   0.997   1.117   2.519  0.4922  0.2389 -0.0201
  167fsi     O3 2001   0.872   1.184   2.543  0.4372 -0.1691 -0.1435
  167fsi     O4 2002   0.986   0.986   2.455  0.5846  0.3539 -0.2672
  167fsi     F2 2003   1.068   1.208   2.414 -0.2957 -0.1720 -0.1523
  168fsi     F1 2004   0.540   0.164   1.081 -0.4290  0.3669  0.6741
  168fsi     S1 2005   0.621   0.175   1.214  0.9943 -0.0754  0.0571
  168fsi      N 2006   0.555   0.082   1.318  0.3316 -0.3569  0.2856
  168fsi     O1 2007   0.752   0.128   1.168  0.8167  0.4350 -0.4800
  168fsi     O2 2008   0.610   0.316   1.251 -0.3711  0.1496  0.1899
  168fsi     S2 2009   0.555  -0.084   1.321 -0.2120  0.2656  0.1717
  168fsi     O3 2010   0.554  -0.144   1.187 -0.1093  0.2043  0.2232
  168fsi     O4 2011   0.463  -0.137   1.416 -0.7454  0.3693 -0.4405
  168fsi     F2 2012   0.697  -0.121   1.375  0.0963  0.0289 -0.9180
  169fsi     F1 2013   2.356   1.028   1.443 -0.2985  0.3955 -0.5670
  169fsi     S1 2014   2.321   1.103   1.314 -0.1316 -0.6868 -0.0607
  169fsi      N 2015   2.428   1.046   1.218 -0.9412 -0.7063  0.4536
  169fsi     O1 2016   2.187   1.062   1.286  0.2295  0.5873  0.1849
  169fsi     O2 2017   2.336   1.244   1.340  0.1208 -0.1146 -0.2823
  169fsi     S2 2018   2.411   0.960   1.093  0.1600 -0.3890 -0.0114
  169fsi     O3 2019   2.277   0.947   1.046  0.3360  0.6592  0.2313
  169fsi     O4 2020   2.495   0.837   1.096  0.4218  0.2951 -0.5837
  169fsi     F2 2021   2.474   1.048   0.977  0.4345  0.5140  0.4754
  170fsi     F1 2022   1.965   2.389   1.588 -0.7025 -0.3416 -0.0673
  170fsi     S1 2023   1.991   2.232   1.610 -0.2312 -0.4479 -0.3413
  170fsi      N 2024   1.899   2.177   1.498  0.1985 -0.1594  0.5851
  170fsi     O1 2025   2.127   2.215   1.582 -0.7001 -0.0092  0.7000
  170fsi     O2 2026   1.943   2.205   1.741 -0.1369 -0.6492 -0.7590
  170fsi     S2 2027   1.937   2.088   1.373  0.0079 -0.3768  0.3720
  170fsi     O3 2028   2.073   2.086   1.329  0.3458  0.7283 -0.5251
  170fsi     O4 2029   1.836   2.103   1.271 -0.4527 -0.1521 -0.5039
  170fsi     F2 2030   1.915   1.939   1.430 -0.5676  0.0483  0.2942
  171fsi     F1 2031   1.972   2.400   2.174  0.3578 -0.3237 -0.3047
  171fsi     S1 2032   2.035   2.397   2.316  0.2942 -0.1661  0.0116
  171fsi      N 2033   2.037   2.549   2.361 -0.2253  0.0772  0.1664
  171fsi     O1 2034   1.949   2.310   2.390 -0.0040 -0.2416  0.2565
  171fsi     O2 2035   2.169   2.349   2.288  0.1352  0.1569  0.4933
  171fsi     S2 2036   1.918   2.635   2.416  0.6152  0.2546 -0.0062
  171fsi     O3 2037   1.786   2.590   2.379  0.1929 -0.4419  0.1090
  171fsi     O4 2038   1.947   2.770   2.403 -0.0196 -0.3068  0.2911
  171fsi     F2 2039   1.926   2.618   2.567 -0.0863 -0.0330  0.2334
  172fsi     F1 2040   1.020   2.507   1.804  0.1542  0.2104 -0.3149
  172fsi     S1 2041   0.936   2.634   1.800  0.0871  0.0281 -0.2080
  172fsi      N 2042   1.047   2.749   1.830 -0.3774 -0.1224  0.2841
  172fsi     O1 2043   0.882   2.642   1.666  0.2778  0.1605  0.6976
  172fsi     O2 2044   0.841   2.612   1.902  0.2111  0.3283  0.1750
  172fsi     S2 2045   1.133   2.838   1.733  0.2096  0.0103 -0.0555
  172fsi     O3 2046   1.092   2.846   1.599  0.1687 -0.0887  0.1866
  172fsi     O4 2047   1.274   2.823   1.754 -0.0515 -0.2040 -0.7086
  172fsi     F2 2048   1.103   2.985   1.790  0.0058  0.2189  0.0835
  173fsi     F1 2049   0.738   0.985   1.422 -0.1754 -0.1386  0.0636
  173fsi     S1 2050   0.738   0.855   1.519  0.1891  0.2636 -0.2760
  173fsi      N 2051   0.752   0.915   1.669  0.4702  0.4895  0.3189
  173fsi     O1 2052   0.615   0.788   1.491 -0.4102 -0.6642 -0.0111
  173fsi     O2 2053   0.860   0.788   1.484 -0.1519 -0.1458  0.5583
  173fsi     S2 2054   0.640   0.931   1.778 -0.0571  0.5029 -0.3071
  173fsi     O3 2055   0.512   0.962   1.721  0.0363  0.0692 -0.3862
  173fsi     O4 2056   0.694   1.005   1.886 -0.2858 -0.0801  0.4105
  173fsi     F2 2057   0.626   0.787   1.834 -0.3827 -0.0673  0.2227
  174fsi     F1 2058   0.877   0.044   2.134 -0.0331  0.2981  0.1013
  174fsi     S1 2059   0.784   0.090   2.242  0.0679  0.0927 -0.1024
  174fsi      N 2060   0.846   0.019   2.368  0.2818 -0.1937  0.1607
  174fsi     O1 2061   0.803   0.230   2.246 -0.6432 -0.2407  0.4434
  174fsi     O2 2062   0.657   0.037   2.201 -0.0199 -0.2578  0.3147
  174fsi     S2 2063   0.907   0.080   2.497 -0.2651  0.2763  0.0493
  174fsi     O3 2064   0.952   0.221   2.491  0.1972 -0.0811  0.5219
  174fsi     O4 2065   0.995  -0.017   2.561  0.0819 -0.1976  0.0685
  174fsi     F2 2066   0.782   0.095   2.581 -0.2039 -0.0099  0.2875
  175fsi     F1 2067   0.858   2.675   0.506 -0.1806  0.0637  0.0631
  175fsi     S1 2068   0.982   2.699   0.595 -0.1738 -0.1363  0.3258
  175fsi      N 2069   0.951   2.606   0.717  0.2582  0.2460  0.6131
  175fsi     O1 2070   1.086   2.657   0.502  0.4707  0.7720 -0.0017
  175fsi     O2 2071   0.974   2.831   0.635 -0.5612  0.3466 -0.1605
  175fsi     S2 2072   0.968   2.449   0.727  0.1840  0.0809 -0.1384
  175fsi     O3 2073   0.969   2.382   0.604 -0.1134  0.1888 -0.2717
  175fsi     O4 2074   0.884   2.394   0.830 -0.0540  0.1924 -0.8228
  175fsi     F2 2075   1.113   2.437   0.786  0.2019  0.2420 -0.4294
  176fsi     F1 2076   1.844   2.543   0.304 -0.2210 -0.0174  0.3053
  176fsi     S1 2077   1.708   2.506   0.224  0.2870 -0.6430  0.0884
  176fsi      N 2078   1.680   2.650   0.163  0.3182  0.5008  0.1926
  176fsi     O1 2079   1.739   2.400   0.136 -0.6255  0.6013  0.7879
  176fsi     O2 2080   1.618   2.488   0.333 -0.1827 -0.0092  0.0323
  176fsi     S2 2081   1.559   2.738   0.182  0.0417  0.1782 -0.2193
  176fsi     O3 2082   1.435   2.668   0.207 -0.3656 -0.0792 -0.1664
  176fsi     O4 2083   1.550   2.846   0.084  0.0534  0.6153  0.8525
  176fsi     F2 2084   1.597   2.817   0.315 -0.3129  0.1224 -0.0119
  177fsi     F1 2085   2.549   3.255   0.390  0.1176 -0.3662  0.1303
  177fsi     S1 2086   2.464   3.381   0.422 -0.0054 -0.1127  0.1280
  177fsi      N 2087   2.444   3.438   0.275  0.0126 -0.1117  0.0419
  177fsi     O1 2088   2.350   3.334   0.500 -0.1550  0.3930  0.3718
  177fsi     O2 2089   2.558   3.468   0.494  0.5075  0.3094 -0.2100
  177fsi     S2 2090   2.318   3.412   0.183  0.2831 -0.1590 -0.4592
  177fsi     O3 2091   2.230   3.308   0.229 -0.1391  0.1552  0.2271
  177fsi     O4 2092   2.344   3.410   0.042 -0.2483 -0.1843  0.0038
  177fsi     F2 2093   2.234   3.537   0.209  0.1576  0.3201  0.2111
  178fsi     F1 2094   0.352   0.093   2.161 -0.0503  0.0158  0.0113
  178fsi     S1 2095   0.277   0.172   2.279  0.0737  0.2680 -0.0111
  178fsi      N 2096   0.399   0.218   2.369  0.3936 -0.7010 -0.2796
  178fsi     O1 2097   0.199   0.281   2.220  0.1373  0.1905 -0.4371
  178fsi     O2 2098   0.208   0.064   2.340 -0.1029  0.4279 -0.2223
  178fsi     S2 2099   0.472   0.356   2.359 -0.0621 -0.3357 -0.0091
  178fsi     O3 2100   0.594   0.362   2.429 -0.6231  0.0153 -0.1938
  178fsi     O4 2101   0.378   0.468   2.362  0.0752 -0.1777  0.1408
  178fsi     F2 2102   0.518   0.344   2.208  0.0172  0.0660 -0.4305
  179fsi     F1 2103   2.726   1.838   2.157 -0.3074  0.1079  0.1118
  179fsi     S1 2104   2.844   1.860   2.046 -0.0933 -0.1632 -0.3155
  179fsi      N 2105   2.869   2.012   2.048 -0.1702  0.9066 -0.2603
  179fsi     O1 2106   2.947   1.779   2.107 -0.1274  0.0358  0.0650
  179fsi     O2 2107   2.781   1.821   1.924  0.1804  0.1236  1.0215
  179fsi     S2 2108   2.995   2.093   2.086  0.4115 -0.3434 -0.0531
  179fsi     O3 2109   2.993   2.221   2.022 -0.3429 -0.0717 -0.1199
  179fsi     O4 2110   3.119   2.017   2.089 -0.6941  0.0402 -0.1040
  179fsi     F2 2111   2.979   2.122   2.238  0.1856 -0.2304  0.6469
  180fsi     F1 2112   1.780   1.756   0.898 -0.0309 -0.0371 -0.2627
  180fsi     S1 2113   1.634   1.815   0.893 -0.4512 -0.4200  0.0519
  180fsi      N 2114   1.636   1.960   0.966  0.2020 -0.5542  0.1730
  180fsi     O1 2115   1.608   1.830   0.754 -0.3378 -0.5064  0.5144
  180fsi     O2 2116   1.563   1.710   0.962  0.6829  0.1748 -0.2331
  180fsi     S2 2117   1.627   2.108   0.909 -0.0507 -0.0068 -0.4447
  180fsi     O3 2118   1.616   2.199   1.015 -0.2795 -0.4268  0.4720
  180fsi     O4 2119   1.544   2.125   0.796  0.2553 -0.0091 -0.2873
  180fsi     F2 2120   1.778   2.129   0.855 -0.2108 -0.3405 -0.4197
  181fsi     F1 2121   1.788   1.449   1.779 -0.0153  0.2495 -0.0170
  181fsi     S1 2122   1.638   1.424   1.835  0.1544  0.3925 -0.0219
  181fsi      N 2123   1.576   1.316   1.737  0.1029 -1.0519  0.4393
  181fsi     O1 2124   1.655   1.377   1.969  0.2567 -0.5352  0.1135
  181fsi     O2 2125   1.574   1.549   1.813  0.6223 -0.2390 -0.0985
  181fsi     S2 2126   1.609   1.160   1.723 -0.3260 -0.2003 -0.0815
  181fsi     O3 2127   1.737   1.111   1.760 -0.2624  0.3002 -0.0674
  181fsi     O4 2128   1.554   1.108   1.599 -0.2866  0.3155  0.4267
  181fsi     F2 2129   1.516   1.100   1.836 -0.0951 -0.3302  0.1548
  182fsi     F1 2130   1.744   2.503   3.215 -0.5989  0.4329  0.1958
  182fsi     S1 2131   1.908   2.510   3.217 -0.8262  0.3614  0.1344
  182fsi      N 2132   1.942   2.608   3.094 -0.6486  0.0301  1.1062
  182fsi     O1 2133   1.940   2.571   3.340  0.0859  0.0020  0.4371
  182fsi     O2 2134   1.960   2.375   3.207 -0.0663 -0.0122 -0.2076
  182fsi     S2 2135   1.995   2.571   2.951 -0.1025  0.0434 -0.0007
  182fsi     O3 2136   1.985   2.433   2.917 -0.0061  0.1783 -0.4090
  182fsi     O4 2137   2.118   2.639   2.915  0.2481 -0.6305 -0.0031
  182fsi     F2 2138   1.883   2.644   2.872  0.1485 -0.5422 -0.2527
  183fsi     F1 2139   2.442   2.742   3.364  0.6136  0.1299 -0.5985
  183fsi     S1 2140   2.307   2.784   3.286 -0.0343 -0.3293 -0.4231
  183fsi      N 2141   2.251   2.905   3.377 -0.2703 -0.6521  0.1737
  183fsi     O1 2142   2.352   2.828   3.157  0.4760 -0.2943 -0.1663
  183fsi     O2 2143   2.214   2.677   3.291  0.3239 -0.3657 -0.1835
  183fsi     S2 2144   2.258   3.062   3.362  0.2968 -0.1448 -0.4060
  183fsi     O3 2145   2.138   3.127   3.391 -0.0606  0.5540 -0.0365
  183fsi     O4 2146   2.347   3.115   3.263  0.8196  0.4403 -0.3087
  183fsi     F2 2147   2.349   3.098   3.489  0.5588  0.1087 -0.0060
  184fsi     F1 2148   2.249   2.722   2.530 -0.7118 -0.1450 -0.1258
  184fsi     S1 2149   2.360   2.608   2.495 -0.2015 -0.0369  0.2138
  184fsi      N 2150   2.501   2.652   2.552 -0.7143  0.9079 -0.0524
  184fsi     O1 2151   2.312   2.486   2.557 -0.2107 -0.0277  0.4459
  184fsi     O2 2152   2.374   2.609   2.348  1.0699  0.2825 -0.2737
  184fsi     S2 2153   2.555   2.643   2.702 -0.1951 -0.2259 -0.1323
  184fsi     O3 2154   2.449   2.660   2.798 -0.3732  0.5514 -0.2305
  184fsi     O4 2155   2.683   2.704   2.721  0.3109 -0.2194 -0.2035
  184fsi     F2 2156   2.591   2.494   2.725  0.3866 -0.1027  0.0517
  185fsi     F1 2157   1.216   2.339   1.603 -0.0253 -0.1077 -0.0911
  185fsi     S1 2158   1.187   2.387   1.456  0.1374  0.2060 -0.3856
  185fsi      N 2159   1.328   2.391   1.389  0.6891  0.0807 -0.7587
  185fsi     O1 2160   1.092   2.288   1.411 -0.3805  0.4248 -0.6687
  185fsi     O2 2161   1.131   2.523   1.473 -0.7194 -0.3650 -0.0888
  185fsi     S2 2162   1.407   2.280   1.321 -0.0302 -0.0291 -0.4415
  185fsi     O3 2163   1.350   2.151   1.325  0.0935  0.3005 -0.0815
  185fsi     O4 2164   1.548   2.294   1.336 -0.3893  0.1402  0.7148
  185fsi     F2 2165   1.383   2.321   1.174 -0.4737  0.7664  0.4843
  186fsi     F1 2166   0.384   0.504   1.994  0.2738  0.0098 -0.6407
  186fsi     S1 2167   0.309   0.639   1.981 -0.1744  0.0966 -0.2873
  186fsi      N 2168   0.160   0.603   2.010 -0.6115 -0.2625  0.1128
  186fsi     O1 2169   0.368   0.722   2.082 -0.7392  0.5289 -0.0826
  186fsi     O2 2170   0.341   0.675   1.844  0.1272 -0.7443 -0.5977
  186fsi     S2 2171   0.075   0.622   2.139 -0.3345 -0.4810  0.4354
  186fsi     O3 2172   0.142   0.658   2.262  0.9929 -0.1013  0.5964
  186fsi     O4 2173  -0.030   0.525   2.152 -0.5812 -0.2622  0.3298
  186fsi     F2 2174  -0.002   0.750   2.097  0.1126 -0.1177 -0.0505
  187fsi     F1 2175   0.719   3.030   1.528  0.1485  0.1695 -0.0182
  187fsi     S1 2176   0.691   2.947   1.396 -0.3972  0.2043 -0.2963
  187fsi      N 2177   0.536   2.911   1.404 -0.7799  0.2485  0.1354
  187fsi     O1 2178   0.722   3.040   1.289 -0.0416  0.8793 -0.1412
  187fsi     O2 2179   0.774   2.825   1.408 -0.2477 -0.3392  0.1360
  187fsi     S2 2180   0.424   2.930   1.292 -0.0881  0.3604  0.3480
  187fsi     O3 2181   0.463   2.999   1.168 -0.1253  0.1820  0.1809
  187fsi     O4 2182   0.303   2.973   1.356  0.4800 -0.1709  0.0567
  187fsi     F2 2183   0.395   2.779   1.245 -0.7707  0.0035  0.1188
  188fsi     F1 2184   1.148   1.459   3.172  0.0175 -0.5702 -0.0668
  188fsi     S1 2185   1.116   1.330   3.094  0.0520  0.0969  0.6048
  188fsi      N 2186   1.256   1.257   3.093 -0.4935  0.0909 -0.4905
  188fsi     O1 2187   1.013   1.268   3.172  0.6640 -0.3935  0.3560
  188fsi     O2 2188   1.083   1.378   2.960 -0.0633  0.2257 -0.3725
  188fsi     S2 2189   1.321   1.160   3.205  0.2572  0.3929  0.0259
  188fsi     O3 2190   1.378   1.041   3.147  0.6854 -0.4523  0.3932
  188fsi     O4 2191   1.244   1.144   3.323  0.2149  0.0396 -0.4350
  188fsi     F2 2192   1.445   1.234   3.257 -0.1876 -0.1025 -0.3113
  189fsi     F1 2193   2.126   0.194   3.112 -0.1036  0.3075  0.1253
  189fsi     S1 2194   2.150   0.039   3.102 -0.0214  0.3989  0.3331
  189fsi      N 2195   2.243   0.035   2.973 -0.0579  0.4531 -0.2783
  189fsi     O1 2196   2.219   0.005   3.224 -0.1379 -0.4767  0.7552
  189fsi     O2 2197   2.021  -0.016   3.072 -0.2962 -0.0549 -0.4204
  189fsi     S2 2198   2.394  -0.015   2.961  0.2741 -0.0403  0.3011
  189fsi     O3 2199   2.416  -0.041   2.823  0.0037  0.3089  0.4255
  189fsi     O4 2200   2.447  -0.100   3.064  0.0109 -0.0588  1.1863
  189fsi     F2 2201   2.473   0.115   2.983  0.1314 -0.1832  0.1680
  190fsi     F1 2202   1.450   1.720   3.249  0.0915  0.0382 -0.0899
  190fsi     S1 2203   1.551   1.636   3.329 -0.6269  0.1971  0.0200
  190fsi      N 2204   1.462   1.511   3.375 -0.0397 -0.5996  0.2809
  190fsi     O1 2205   1.647   1.591   3.225  0.3748  0.4924 -0.1110
  190fsi     O2 2206   1.592   1.733   3.425  0.5156 -0.3610  0.3614
  190fsi     S2 2207   1.376   1.498   3.505  0.1839  0.0311 -0.1778
  190fsi     O3 2208   1.256   1.427   3.475  0.3178 -0.3196 -0.3306
  190fsi     O4 2209   1.356   1.622   3.581  0.4351  0.0722 -0.4129
  190fsi     F2 2210   1.459   1.408   3.600  0.1990  0.3145  0.2045
  191fsi     F1 2211   0.130   3.337   2.095 -0.1054  0.2041  0.2167
  191fsi     S1 2212   0.037   3.419   1.999 -0.2165  0.1648 -0.1708
  191fsi      N 2213   0.131   3.466   1.877 -0.1655  0.6905 -0.1625
  191fsi     O1 2214  -0.063   3.328   1.956 -0.0583 -0.0974 -0.4595
  191fsi     O2 2215  -0.016   3.524   2.083 -0.1714 -0.7556 -0.2818
  191fsi     S2 2216   0.166   3.613   1.829  0.3161  0.2938  0.2289
  191fsi     O3 2217   0.074   3.717   1.875 -0.4629  0.5327  1.1087
  191fsi     O4 2218   0.200   3.613   1.688  0.0870  0.3845  0.0479
  191fsi     F2 2219   0.302   3.647   1.895 -0.3128  0.2798  0.3428
  192fsi     F1 2220   2.464   0.076   0.956  0.4110 -0.4243 -0.2647
  192fsi     S1 2221   2.373   0.166   0.861 -0.2521  0.6512  0.1247
  192fsi      N 2222   2.380   0.302   0.939 -0.1608 -1.0013 -0.3385
  192fsi     O1 2223   2.447   0.167   0.737 -0.1529  0.5894  0.0960
  192fsi     O2 2224   2.244   0.095   0.852 -0.0364  0.4815 -0.1002
  192fsi     S2 2225   2.261   0.384   1.008 -0.1264 -0.1511 -0.2187
  192fsi     O3 2226   2.132   0.374   0.948  0.2367 -0.4800 -0.2863
  192fsi     O4 2227   2.304   0.516   1.034 -0.3434  0.1017 -0.7650
  192fsi     F2 2228   2.253   0.311   1.148  0.5409  0.1447 -0.0923
  193fsi     F1 2229   1.829   2.018   2.430  0.1530  0.8484 -0.0259
  193fsi     S1 2230   1.723   1.928   2.371 -0.3956  0.4804 -0.4409
  193fsi      N 2231   1.618   2.032   2.317 -0.4385  0.3491  0.1365
  193fsi     O1 2232   1.784   1.851   2.269 -0.0343  0.1227  0.0686
  193fsi     O2 2233   1.673   1.867   2.491 -0.3394  0.1501 -0.0165
  193fsi     S2 2234   1.618   2.124   2.194  0.2991  0.2170  0.2155
  193fsi     O3 2235   1.499   2.109   2.108 -0.0494  0.5189 -0.3342
  193fsi     O4 2236   1.741   2.129   2.116 -0.7392  0.4476 -0.4581
  193fsi     F2 2237   1.597   2.269   2.253  0.2897  0.0183  0.6961
  194fsi     F1 2238   1.046   1.093   0.658 -0.5419  0.1413 -0.2378
  194fsi     S1 2239   1.107   1.000   0.540 -0.1768 -0.2343  0.1087
  194fsi      N 2240   1.073   1.078   0.409 -0.1584 -0.0430  0.1851
  194fsi     O1 2241   1.250   0.996   0.572  0.4674 -0.0579  0.7295
  194fsi     O2 2242   1.031   0.882   0.560  0.3382  0.1081  0.0073
  194fsi     S2 2243   1.131   1.213   0.354  0.4652  0.1973 -0.0169
  194fsi     O3 2244   1.152   1.213   0.213 -0.3340  0.3410 -0.3473
  194fsi     O4 2245   1.220   1.288   0.442 -0.1538 -0.2883  0.3196
  194fsi     F2 2246   1.008   1.306   0.371  0.1176 -0.4754  0.0280
  195fsi     F1 2247   1.826   0.076   2.651  0.0982 -0.3043  0.1104
  195fsi     S1 2248   1.799  -0.068   2.700  0.1869  0.2513  0.1844
  195fsi      N 2249   1.832  -0.157   2.575 -0.1303  0.2229  0.1777
  195fsi     O1 2250   1.898  -0.082   2.805 -0.0602 -0.1803  0.6089
  195fsi     O2 2251   1.666  -0.066   2.746 -0.0807 -0.4846  0.7585
  195fsi     S2 2252   1.743  -0.251   2.485 -0.2017  0.0345  0.1926
  195fsi     O3 2253   1.630  -0.306   2.549 -0.1179  0.0851  0.0498
  195fsi     O4 2254   1.823  -0.332   2.401 -0.2367 -0.3419 -0.6936
  195fsi     F2 2255   1.680  -0.150   2.378  0.2329 -0.1702  0.4077
  196fsi     F1 2256   1.583   0.320   2.111 -0.0390  0.1105  0.2414
  196fsi     S1 2257   1.441   0.376   2.167 -0.0959  0.1590 -0.0279
  196fsi      N 2258   1.338   0.311   2.071 -0.2067  0.2374 -0.7670
  196fsi     O1 2259   1.437   0.325   2.303  0.2583 -0.4806  0.2965
  196fsi     O2 2260   1.450   0.520   2.149 -0.1171  0.2088  0.5856
  196fsi     S2 2261   1.195   0.266   2.096 -0.1910 -0.2232  0.3009
  196fsi     O3 2262   1.145   0.260   2.233  0.2032  0.0953 -0.2627
  196fsi     O4 2263   1.173   0.148   2.012  0.1625 -0.3875 -0.5499
  196fsi     F2 2264   1.118   0.379   2.025 -0.1115 -0.0855  0.1436
  197fsi     F1 2265   2.133   1.133   3.203 -0.0806  0.4524  0.4665
  197fsi     S1 2266   2.183   1.191   3.070  0.0877 -0.3097  0.1863
  197fsi      N 2267   2.059   1.278   3.019  0.4421  0.2522 -0.2880
  197fsi     O1 2268   2.294   1.269   3.113  0.2658 -0.0510 -0.1368
  197fsi     O2 2269   2.207   1.081   2.981 -0.1239 -0.2722  0.0686
  197fsi     S2 2270   1.938   1.232   2.930  0.1307 -0.0440 -0.0818
  197fsi     O3 2271   1.917   1.090   2.902  0.0278 -0.9382 -0.0964
  197fsi     O4 2272   1.927   1.317   2.818 -0.0139 -0.6872 -0.0955
  197fsi     F2 2273   1.811   1.264   3.019  0.0321 -0.0989 -0.3725
  198fsi     F1 2274   0.888   0.632   3.267 -0.1257 -0.3772 -0.0580
  198fsi     S1 2275   0.925   0.783   3.295  0.4889 -0.3631  0.1614
  198fsi      N 2276   0.917   0.789   3.456  0.2454 -0.1868  0.3015
  198fsi     O1 2277   1.063   0.780   3.246 -0.4783  0.1876  0.3653
  198fsi     O2 2278   0.824   0.859   3.230 -0.6881  0.0022 -0.3061
  198fsi     S2 2279   1.014   0.759   3.577 -0.4664 -0.1100 -0.0181
  198fsi     O3 2280   0.973   0.832   3.692 -0.6521 -0.3340 -0.8773
  198fsi     O4 2281   1.153   0.754   3.541  0.6998 -0.3418  0.0300
  198fsi     F2 2282   0.977   0.616   3.612 -0.1049 -0.4485  0.5678
  199fsi     F1 2283   2.371   1.676   1.725  0.5806 -0.0789 -0.2958
  199fsi     S1 2284   2.239   1.691   1.636  0.3010  0.5798 -0.0750
  199fsi      N 2285   2.273   1.623   1.502  0.4064  0.2449  0.5979
  199fsi     O1 2286   2.136   1.623   1.711 -0.2090  0.4567 -0.0195
  199fsi     O2 2287   2.213   1.833   1.622  0.3841  0.6504  0.1004
  199fsi     S2 2288   2.322   1.682   1.356 -0.3054 -0.4206 -0.0032
  199fsi     O3 2289   2.331   1.825   1.347  0.1444  0.2013 -0.0422
  199fsi     O4 2290   2.252   1.609   1.260 -0.3676  0.1764  0.2706
  199fsi     F2 2291   2.476   1.630   1.346 -0.1808  0.0155  0.1608
  200fsi     F1 2292   2.083   0.902   2.461 -0.1484  0.1648  0.2727
  200fsi     S1 2293   2.029   0.995   2.582  0.1273  0.0886 -0.4002
  200fsi      N 2294   1.874   0.991   2.564  0.6750  0.1747  0.5512
  200fsi     O1 2295   2.063   0.927   2.701 -0.5626 -0.4986 -0.0762
  200fsi     O2 2296   2.098   1.116   2.563 -0.0724 -0.0414 -0.2558
  200fsi     S2 2297   1.774   1.100   2.509  0.0722 -0.0282 -0.3544
  200fsi     O3 2298   1.713   1.059   2.380  0.2569  0.2870 -0.3579
  200fsi     O4 2299   1.814   1.237   2.536 -0.0296 -0.2961 -0.3769
  200fsi     F2 2300   1.656   1.093   2.608  0.5122  0.0121 -0.3339
   3.45200   3.45200   3.45200
