L1P2 short trajectory practice
 2050
    1Li+     Li    1   5.085   4.750   1.748
    2Li+     Li    2   4.295   1.287   3.836
    3Li+     Li    3   1.881   2.079   4.855
    4Li+     Li    4   2.231   5.836   1.160
    5Li+     Li    5   4.612   1.450   4.312
    6Li+     Li    6   1.915   4.464   4.177
    7Li+     Li    7   4.868   2.119   3.074
    8Li+     Li    8   3.000   1.705   0.984
    9Li+     Li    9   3.365   5.893   4.544
   10Li+     Li   10   2.247   4.008   2.438
   11Li+     Li   11   6.254   0.919   0.651
   12Li+     Li   12   4.420   0.348   1.442
   13Li+     Li   13   6.165   1.127   4.506
   14Li+     Li   14   4.402   4.166   2.948
   15Li+     Li   15   2.513   1.515   2.618
   16Li+     Li   16   1.715   2.538   1.585
   17Li+     Li   17   5.373   0.861   1.630
   18Li+     Li   18   5.248   5.227   3.038
   19Li+     Li   19   0.850   4.548   5.606
   20Li+     Li   20   2.847   1.247   6.121
   21Li+     Li   21   4.959   5.964   2.953
   22Li+     Li   22   1.216   5.318   4.869
   23Li+     Li   23   5.481   5.794   4.837
   24Li+     Li   24   1.705   2.347   1.193
   25Li+     Li   25   1.759   6.086   4.637
   26c3c     N4   26   3.102   2.942   4.604
   26c3c     C1   27   3.250   2.948   4.598
   26c3c     C1   28   3.059   2.994   4.735
   26c3c     C2   29   3.302   2.971   4.740
   26c3c     C2   30   3.181   3.001   4.827
   26c3c     C1   31   3.048   3.030   4.499
   26c3c     C1   32   3.051   2.806   4.577
   26c3c     H1   33   3.286   3.030   4.536
   26c3c     H1   34   3.294   2.859   4.555
   26c3c     H1   35   3.016   3.094   4.728
   26c3c     H1   36   2.979   2.934   4.780
   26c3c     HC   37   3.372   3.055   4.742
   26c3c     HC   38   3.355   2.884   4.778
   26c3c     HC   39   3.189   3.100   4.872
   26c3c     HC   40   3.174   2.928   4.908
   26c3c     H1   41   3.079   3.000   4.399
   26c3c     H1   42   2.939   3.033   4.500
   26c3c     H1   43   3.082   3.133   4.512
   26c3c     H1   44   2.942   2.809   4.576
   26c3c     H1   45   3.080   2.776   4.477
   26c3c     C2   46   3.095   2.695   4.676
   26c3c     HC   47   3.064   2.719   4.778
   26c3c     HC   48   3.204   2.686   4.678
   26c3c     CT   49   3.036   2.559   4.638
   26c3c     HC   50   3.068   2.527   4.539
   26c3c     HC   51   2.927   2.560   4.640
   26c3c     HC   52   3.068   2.482   4.709
   27c3c     N4   53   3.106   1.437   2.297
   27c3c     C1   54   3.183   1.410   2.420
   27c3c     C1   55   3.018   1.322   2.270
   27c3c     C2   56   3.168   1.262   2.454
   27c3c     C2   57   3.063   1.206   2.359
   27c3c     C1   58   3.022   1.556   2.319
   27c3c     C1   59   3.194   1.467   2.182
   27c3c     H1   60   3.147   1.468   2.505
   27c3c     H1   61   3.288   1.437   2.410
   27c3c     H1   62   2.913   1.343   2.292
   27c3c     H1   63   3.019   1.292   2.165
   27c3c     HC   64   3.137   1.249   2.558
   27c3c     HC   65   3.263   1.209   2.441
   27c3c     HC   66   2.979   1.165   2.415
   27c3c     HC   67   3.106   1.125   2.300
   27c3c     H1   68   3.082   1.644   2.341
   27c3c     H1   69   2.961   1.578   2.231
   27c3c     H1   70   2.954   1.541   2.402
   27c3c     H1   71   3.133   1.491   2.095
   27c3c     H1   72   3.252   1.557   2.202
   27c3c     C2   73   3.292   1.355   2.140
   27c3c     HC   74   3.239   1.264   2.112
   27c3c     HC   75   3.359   1.328   2.222
   27c3c     CT   76   3.378   1.398   2.021
   27c3c     HC   77   3.438   1.487   2.044
   27c3c     HC   78   3.317   1.421   1.934
   27c3c     HC   79   3.448   1.319   1.992
   28c3c     N4   80   0.642   2.133   2.468
   28c3c     C1   81   0.759   2.221   2.452
   28c3c     C1   82   0.521   2.209   2.430
   28c3c     C2   83   0.709   2.365   2.438
   28c3c     C2   84   0.558   2.357   2.423
   28c3c     C1   85   0.656   2.020   2.375
   28c3c     C1   86   0.632   2.077   2.604
   28c3c     H1   87   0.817   2.197   2.364
   28c3c     H1   88   0.829   2.213   2.535
   28c3c     H1   89   0.482   2.180   2.332
   28c3c     H1   90   0.438   2.193   2.499
   28c3c     HC   91   0.753   2.413   2.350
   28c3c     HC   92   0.735   2.426   2.524
   28c3c     HC   93   0.526   2.400   2.328
   28c3c     HC   94   0.509   2.414   2.502
   28c3c     H1   95   0.745   1.961   2.397
   28c3c     H1   96   0.571   1.952   2.380
   28c3c     H1   97   0.664   2.053   2.272
   28c3c     H1   98   0.548   2.007   2.609
   28c3c     H1   99   0.720   2.016   2.625
   28c3c     C2  100   0.616   2.178   2.720
   28c3c     HC  101   0.526   2.239   2.706
   28c3c     HC  102   0.700   2.248   2.722
   28c3c     CT  103   0.607   2.108   2.856
   28c3c     HC  104   0.696   2.050   2.877
   28c3c     HC  105   0.521   2.041   2.861
   28c3c     HC  106   0.595   2.181   2.936
   29c3c     N4  107   4.795   3.663   5.720
   29c3c     C1  108   4.711   3.756   5.800
   29c3c     C1  109   4.720   3.537   5.703
   29c3c     C2  110   4.597   3.676   5.863
   29c3c     C2  111   4.603   3.536   5.802
   29c3c     C1  112   4.816   3.723   5.588
   29c3c     C1  113   4.927   3.641   5.782
   29c3c     H1  114   4.667   3.834   5.738
   29c3c     H1  115   4.768   3.810   5.875
   29c3c     H1  116   4.679   3.527   5.603
   29c3c     H1  117   4.783   3.449   5.717
   29c3c     HC  118   4.501   3.722   5.841
   29c3c     HC  119   4.608   3.670   5.971
   29c3c     HC  120   4.510   3.513   5.751
   29c3c     HC  121   4.618   3.462   5.880
   29c3c     H1  122   4.868   3.819   5.594
   29c3c     H1  123   4.875   3.659   5.523
   29c3c     H1  124   4.722   3.742   5.536
   29c3c     H1  125   4.987   3.578   5.716
   29c3c     H1  126   4.981   3.736   5.786
   29c3c     C2  127   4.929   3.579   5.923
   29c3c     HC  128   4.880   3.481   5.923
   29c3c     HC  129   4.873   3.641   5.994
   29c3c     CT  130   5.071   3.561   5.977
   29c3c     HC  131   5.124   3.656   5.984
   29c3c     HC  132   5.130   3.495   5.913
   29c3c     HC  133   5.070   3.517   6.077
   30c3c     N4  134   4.003   1.478   5.543
   30c3c     C1  135   3.881   1.553   5.510
   30c3c     C1  136   4.088   1.473   5.422
   30c3c     C2  137   3.871   1.566   5.358
   30c3c     C2  138   4.003   1.516   5.302
   30c3c     C1  139   4.076   1.551   5.647
   30c3c     C1  140   3.974   1.343   5.596
   30c3c     H1  141   3.881   1.654   5.552
   30c3c     H1  142   3.791   1.506   5.551
   30c3c     H1  143   4.173   1.541   5.428
   30c3c     H1  144   4.132   1.375   5.405
   30c3c     HC  145   3.855   1.670   5.329
   30c3c     HC  146   3.788   1.508   5.318
   30c3c     HC  147   4.053   1.594   5.245
   30c3c     HC  148   3.986   1.432   5.234
   30c3c     H1  149   4.018   1.561   5.739
   30c3c     H1  150   4.170   1.502   5.674
   30c3c     H1  151   4.102   1.652   5.615
   30c3c     H1  152   4.068   1.295   5.624
   30c3c     H1  153   3.918   1.352   5.689
   30c3c     C2  154   3.898   1.247   5.502
   30c3c     HC  155   3.953   1.231   5.410
   30c3c     HC  156   3.801   1.289   5.474
   30c3c     CT  157   3.873   1.111   5.568
   30c3c     HC  158   3.814   1.120   5.659
   30c3c     HC  159   3.967   1.062   5.595
   30c3c     HC  160   3.819   1.044   5.501
   31c3c     N4  161   5.247   5.384   0.652
   31c3c     C1  162   5.197   5.512   0.707
   31c3c     C1  163   5.179   5.273   0.721
   31c3c     C2  164   5.121   5.481   0.837
   31c3c     C2  165   5.110   5.330   0.846
   31c3c     C1  166   5.212   5.379   0.509
   31c3c     C1  167   5.394   5.374   0.661
   31c3c     H1  168   5.128   5.562   0.640
   31c3c     H1  169   5.276   5.584   0.725
   31c3c     H1  170   5.102   5.227   0.659
   31c3c     H1  171   5.246   5.192   0.747
   31c3c     HC  172   5.022   5.527   0.835
   31c3c     HC  173   5.174   5.520   0.924
   31c3c     HC  174   5.005   5.300   0.849
   31c3c     HC  175   5.157   5.294   0.937
   31c3c     H1  176   5.257   5.461   0.453
   31c3c     H1  177   5.244   5.286   0.462
   31c3c     H1  178   5.104   5.387   0.494
   31c3c     H1  179   5.427   5.282   0.612
   31c3c     H1  180   5.440   5.454   0.603
   31c3c     C2  181   5.455   5.377   0.803
   31c3c     HC  182   5.415   5.296   0.865
   31c3c     HC  183   5.429   5.470   0.854
   31c3c     CT  184   5.608   5.364   0.801
   31c3c     HC  185   5.654   5.446   0.745
   31c3c     HC  186   5.640   5.271   0.755
   31c3c     HC  187   5.649   5.367   0.902
   32c3c     N4  188   1.400   1.246   3.137
   32c3c     C1  189   1.443   1.105   3.141
   32c3c     C1  190   1.454   1.314   3.257
   32c3c     C2  191   1.495   1.074   3.282
   32c3c     C2  192   1.502   1.207   3.355
   32c3c     C1  193   1.459   1.309   3.018
   32c3c     C1  194   1.253   1.259   3.126
   32c3c     H1  195   1.522   1.083   3.070
   32c3c     H1  196   1.362   1.036   3.114
   32c3c     H1  197   1.538   1.379   3.234
   32c3c     H1  198   1.380   1.379   3.304
   32c3c     HC  199   1.594   1.028   3.277
   32c3c     HC  200   1.429   1.005   3.334
   32c3c     HC  201   1.604   1.227   3.387
   32c3c     HC  202   1.439   1.204   3.445
   32c3c     H1  203   1.424   1.261   2.927
   32c3c     H1  204   1.433   1.415   3.011
   32c3c     H1  205   1.567   1.303   3.019
   32c3c     H1  206   1.226   1.364   3.116
   32c3c     H1  207   1.219   1.212   3.034
   32c3c     C2  208   1.171   1.199   3.242
   32c3c     HC  209   1.198   1.244   3.338
   32c3c     HC  210   1.189   1.092   3.252
   32c3c     CT  211   1.021   1.220   3.222
   32c3c     HC  212   0.986   1.173   3.130
   32c3c     HC  213   0.995   1.326   3.216
   32c3c     HC  214   0.963   1.177   3.304
   33c3c     N4  215   5.609   3.589   4.322
   33c3c     C1  216   5.722   3.685   4.318
   33c3c     C1  217   5.484   3.664   4.303
   33c3c     C2  218   5.665   3.826   4.331
   33c3c     C2  219   5.514   3.814   4.322
   33c3c     C1  220   5.625   3.494   4.211
   33c3c     C1  221   5.608   3.509   4.446
   33c3c     H1  222   5.778   3.679   4.225
   33c3c     H1  223   5.796   3.666   4.396
   33c3c     H1  224   5.441   3.650   4.204
   33c3c     H1  225   5.405   3.632   4.372
   33c3c     HC  226   5.703   3.891   4.252
   33c3c     HC  227   5.693   3.872   4.426
   33c3c     HC  228   5.476   3.871   4.237
   33c3c     HC  229   5.467   3.853   4.412
   33c3c     H1  230   5.718   3.438   4.219
   33c3c     H1  231   5.543   3.422   4.208
   33c3c     H1  232   5.626   3.545   4.115
   33c3c     H1  233   5.527   3.436   4.442
   33c3c     H1  234   5.699   3.449   4.453
   33c3c     C2  235   5.593   3.587   4.579
   33c3c     HC  236   5.501   3.645   4.580
   33c3c     HC  237   5.674   3.659   4.591
   33c3c     CT  238   5.594   3.494   4.700
   33c3c     HC  239   5.687   3.437   4.706
   33c3c     HC  240   5.512   3.422   4.695
   33c3c     HC  241   5.583   3.550   4.793
   34c3c     N4  242   1.986   2.292   0.389
   34c3c     C1  243   2.098   2.196   0.386
   34c3c     C1  244   2.043   2.428   0.378
   34c3c     C2  245   2.228   2.273   0.410
   34c3c     C2  246   2.193   2.420   0.404
   34c3c     C1  247   1.901   2.268   0.272
   34c3c     C1  248   1.901   2.276   0.509
   34c3c     H1  249   2.106   2.145   0.291
   34c3c     H1  250   2.086   2.116   0.460
   34c3c     H1  251   2.028   2.472   0.280
   34c3c     H1  252   1.995   2.499   0.446
   34c3c     HC  253   2.302   2.248   0.333
   34c3c     HC  254   2.273   2.248   0.506
   34c3c     HC  255   2.248   2.470   0.324
   34c3c     HC  256   2.220   2.469   0.498
   34c3c     H1  257   1.858   2.168   0.272
   34c3c     H1  258   1.818   2.339   0.266
   34c3c     H1  259   1.957   2.279   0.178
   34c3c     H1  260   1.817   2.345   0.503
   34c3c     H1  261   1.856   2.177   0.508
   34c3c     C2  262   1.970   2.297   0.646
   34c3c     HC  263   2.012   2.398   0.653
   34c3c     HC  264   2.054   2.228   0.658
   34c3c     CT  265   1.873   2.278   0.763
   34c3c     HC  266   1.831   2.177   0.763
   34c3c     HC  267   1.790   2.348   0.757
   34c3c     HC  268   1.923   2.293   0.858
   35c3c     N4  269   3.012   1.945   5.487
   35c3c     C1  270   2.891   1.863   5.465
   35c3c     C1  271   3.067   1.911   5.619
   35c3c     C2  272   2.850   1.801   5.598
   35c3c     C2  273   2.962   1.831   5.697
   35c3c     C1  274   3.111   1.910   5.384
   35c3c     C1  275   2.984   2.089   5.474
   35c3c     H1  276   2.909   1.781   5.394
   35c3c     H1  277   2.809   1.919   5.421
   35c3c     H1  278   3.157   1.850   5.612
   35c3c     H1  279   3.099   1.999   5.675
   35c3c     HC  280   2.837   1.693   5.588
   35c3c     HC  281   2.756   1.842   5.634
   35c3c     HC  282   3.005   1.739   5.736
   35c3c     HC  283   2.924   1.888   5.781
   35c3c     H1  284   3.075   1.930   5.283
   35c3c     H1  285   3.204   1.966   5.397
   35c3c     H1  286   3.137   1.804   5.388
   35c3c     H1  287   3.077   2.145   5.484
   35c3c     H1  288   2.949   2.110   5.372
   35c3c     C2  289   2.880   2.149   5.573
   35c3c     HC  290   2.913   2.134   5.676
   35c3c     HC  291   2.784   2.099   5.563
   35c3c     CT  292   2.859   2.299   5.549
   35c3c     HC  293   2.822   2.319   5.449
   35c3c     HC  294   2.952   2.355   5.562
   35c3c     HC  295   2.787   2.339   5.620
   36c3c     N4  296   3.120   4.512   4.656
   36c3c     C1  297   3.102   4.366   4.664
   36c3c     C1  298   3.255   4.539   4.602
   36c3c     C2  299   3.239   4.299   4.647
   36c3c     C2  300   3.336   4.409   4.608
   36c3c     C1  301   3.021   4.567   4.563
   36c3c     C1  302   3.099   4.578   4.787
   36c3c     H1  303   3.036   4.329   4.586
   36c3c     H1  304   3.054   4.335   4.757
   36c3c     H1  305   3.252   4.572   4.498
   36c3c     H1  306   3.307   4.619   4.655
   36c3c     HC  307   3.234   4.222   4.570
   36c3c     HC  308   3.271   4.252   4.740
   36c3c     HC  309   3.381   4.387   4.511
   36c3c     HC  310   3.417   4.416   4.680
   36c3c     H1  311   2.919   4.548   4.596
   36c3c     H1  312   3.032   4.675   4.551
   36c3c     H1  313   3.030   4.523   4.463
   36c3c     H1  314   3.108   4.686   4.774
   36c3c     H1  315   2.996   4.562   4.819
   36c3c     C2  316   3.194   4.536   4.902
   36c3c     HC  317   3.298   4.555   4.876
   36c3c     HC  318   3.186   4.429   4.921
   36c3c     CT  319   3.162   4.610   5.032
   36c3c     HC  320   3.060   4.590   5.065
   36c3c     HC  321   3.173   4.718   5.020
   36c3c     HC  322   3.229   4.579   5.112
   37c3c     N4  323   2.369   1.224   1.373
   37c3c     C1  324   2.464   1.258   1.265
   37c3c     C1  325   2.442   1.225   1.501
   37c3c     C2  326   2.606   1.247   1.320
   37c3c     C2  327   2.593   1.227   1.470
   37c3c     C1  328   2.264   1.327   1.378
   37c3c     C1  329   2.302   1.095   1.348
   37c3c     H1  330   2.449   1.360   1.229
   37c3c     H1  331   2.451   1.196   1.177
   37c3c     H1  332   2.420   1.313   1.561
   37c3c     H1  333   2.417   1.141   1.565
   37c3c     HC  334   2.663   1.338   1.299
   37c3c     HC  335   2.660   1.164   1.276
   37c3c     HC  336   2.641   1.309   1.524
   37c3c     HC  337   2.641   1.135   1.501
   37c3c     H1  338   2.207   1.333   1.285
   37c3c     H1  339   2.192   1.308   1.458
   37c3c     H1  340   2.306   1.426   1.396
   37c3c     H1  341   2.229   1.077   1.427
   37c3c     H1  342   2.243   1.101   1.257
   37c3c     C2  343   2.393   0.970   1.339
   37c3c     HC  344   2.450   0.957   1.430
   37c3c     HC  345   2.466   0.981   1.258
   37c3c     CT  346   2.312   0.842   1.313
   37c3c     HC  347   2.257   0.848   1.219
   37c3c     HC  348   2.241   0.823   1.393
   37c3c     HC  349   2.378   0.755   1.306
   38c3c     N4  350   2.445   4.115   5.497
   38c3c     C1  351   2.557   4.208   5.520
   38c3c     C1  352   2.449   4.012   5.603
   38c3c     C2  353   2.654   4.144   5.620
   38c3c     C2  354   2.585   4.019   5.672
   38c3c     C1  355   2.319   4.190   5.511
   38c3c     C1  356   2.447   4.056   5.362
   38c3c     H1  357   2.525   4.303   5.562
   38c3c     H1  358   2.609   4.235   5.428
   38c3c     H1  359   2.372   4.027   5.678
   38c3c     H1  360   2.430   3.911   5.564
   38c3c     HC  361   2.676   4.212   5.701
   38c3c     HC  362   2.749   4.117   5.572
   38c3c     HC  363   2.572   4.025   5.780
   38c3c     HC  364   2.645   3.930   5.651
   38c3c     H1  365   2.312   4.271   5.437
   38c3c     H1  366   2.232   4.127   5.498
   38c3c     H1  367   2.311   4.237   5.609
   38c3c     H1  368   2.358   3.994   5.348
   38c3c     H1  369   2.437   4.136   5.288
   38c3c     C2  370   2.571   3.972   5.325
   38c3c     HC  371   2.583   3.888   5.394
   38c3c     HC  372   2.662   4.031   5.333
   38c3c     CT  373   2.563   3.916   5.182
   38c3c     HC  374   2.555   3.996   5.109
   38c3c     HC  375   2.476   3.852   5.170
   38c3c     HC  376   2.651   3.857   5.158
   39c3c     N4  377   6.001   4.159   0.345
   39c3c     C1  378   5.869   4.117   0.295
   39c3c     C1  379   6.077   4.039   0.382
   39c3c     C2  380   5.848   3.970   0.332
   39c3c     C2  381   5.980   3.920   0.387
   39c3c     C1  382   6.072   4.228   0.237
   39c3c     C1  383   5.990   4.255   0.458
   39c3c     H1  384   5.861   4.125   0.186
   39c3c     H1  385   5.787   4.179   0.333
   39c3c     H1  386   6.155   4.015   0.309
   39c3c     H1  387   6.130   4.049   0.476
   39c3c     HC  388   5.819   3.912   0.244
   39c3c     HC  389   5.769   3.958   0.406
   39c3c     HC  390   6.018   3.837   0.327
   39c3c     HC  391   5.968   3.884   0.489
   39c3c     H1  392   6.019   4.317   0.202
   39c3c     H1  393   6.172   4.259   0.267
   39c3c     H1  394   6.085   4.164   0.150
   39c3c     H1  395   6.089   4.287   0.487
   39c3c     H1  396   5.939   4.345   0.424
   39c3c     C2  397   5.917   4.203   0.584
   39c3c     HC  398   5.968   4.116   0.625
   39c3c     HC  399   5.815   4.172   0.561
   39c3c     CT  400   5.911   4.310   0.694
   39c3c     HC  401   5.857   4.399   0.661
   39c3c     HC  402   6.010   4.342   0.725
   39c3c     HC  403   5.860   4.272   0.783
   40c3c     N4  404   2.460   1.198   0.666
   40c3c     C1  405   2.464   1.248   0.528
   40c3c     C1  406   2.599   1.187   0.716
   40c3c     C2  407   2.608   1.235   0.476
   40c3c     C2  408   2.693   1.196   0.596
   40c3c     C1  409   2.389   1.297   0.749
   40c3c     C1  410   2.386   1.071   0.678
   40c3c     H1  411   2.435   1.353   0.520
   40c3c     H1  412   2.395   1.195   0.462
   40c3c     H1  413   2.625   1.266   0.785
   40c3c     H1  414   2.617   1.094   0.771
   40c3c     HC  415   2.642   1.330   0.434
   40c3c     HC  416   2.616   1.160   0.398
   40c3c     HC  417   2.771   1.271   0.613
   40c3c     HC  418   2.744   1.101   0.577
   40c3c     H1  419   2.287   1.312   0.715
   40c3c     H1  420   2.385   1.268   0.854
   40c3c     H1  421   2.438   1.395   0.746
   40c3c     H1  422   2.380   1.042   0.783
   40c3c     H1  423   2.283   1.086   0.647
   40c3c     C2  424   2.443   0.951   0.598
   40c3c     HC  425   2.545   0.929   0.629
   40c3c     HC  426   2.447   0.973   0.492
   40c3c     CT  427   2.358   0.825   0.618
   40c3c     HC  428   2.256   0.840   0.584
   40c3c     HC  429   2.355   0.795   0.723
   40c3c     HC  430   2.399   0.741   0.562
   41c3c     N4  431   5.070   5.824   4.125
   41c3c     C1  432   4.944   5.898   4.143
   41c3c     C1  433   5.183   5.917   4.145
   41c3c     C2  434   4.976   6.048   4.139
   41c3c     C2  435   5.127   6.060   4.140
   41c3c     C1  436   5.078   5.720   4.229
   41c3c     C1  437   5.077   5.756   3.994
   41c3c     H1  438   4.896   5.876   4.238
   41c3c     H1  439   4.869   5.872   4.068
   41c3c     H1  440   5.231   5.904   4.242
   41c3c     H1  441   5.262   5.904   4.072
   41c3c     HC  442   4.933   6.098   4.226
   41c3c     HC  443   4.935   6.095   4.050
   41c3c     HC  444   5.161   6.117   4.227
   41c3c     HC  445   5.162   6.113   4.051
   41c3c     H1  446   4.995   5.649   4.222
   41c3c     H1  447   5.170   5.662   4.224
   41c3c     H1  448   5.073   5.762   4.329
   41c3c     H1  449   5.168   5.696   3.989
   41c3c     H1  450   4.996   5.684   3.987
   41c3c     C2  451   5.071   5.847   3.869
   41c3c     HC  452   5.152   5.919   3.870
   41c3c     HC  453   4.978   5.904   3.868
   41c3c     CT  454   5.079   5.766   3.739
   41c3c     HC  455   4.997   5.695   3.731
   41c3c     HC  456   5.172   5.709   3.733
   41c3c     HC  457   5.074   5.831   3.652
   42c3c     N4  458   2.456   2.196   3.164
   42c3c     C1  459   2.407   2.123   3.282
   42c3c     C1  460   2.344   2.213   3.069
   42c3c     C2  461   2.270   2.064   3.248
   42c3c     C2  462   2.231   2.120   3.112
   42c3c     C1  463   2.501   2.329   3.207
   42c3c     C1  464   2.572   2.128   3.101
   42c3c     H1  465   2.393   2.188   3.369
   42c3c     H1  466   2.475   2.045   3.316
   42c3c     H1  467   2.305   2.315   3.069
   42c3c     H1  468   2.373   2.194   2.966
   42c3c     HC  469   2.196   2.090   3.323
   42c3c     HC  470   2.276   1.955   3.243
   42c3c     HC  471   2.137   2.175   3.120
   42c3c     HC  472   2.216   2.039   3.041
   42c3c     H1  473   2.582   2.324   3.280
   42c3c     H1  474   2.535   2.390   3.123
   42c3c     H1  475   2.420   2.385   3.254
   42c3c     H1  476   2.608   2.189   3.018
   42c3c     H1  477   2.654   2.124   3.173
   42c3c     C2  478   2.547   1.985   3.048
   42c3c     HC  479   2.469   1.984   2.972
   42c3c     HC  480   2.513   1.919   3.127
   42c3c     CT  481   2.674   1.924   2.986
   42c3c     HC  482   2.755   1.916   3.059
   42c3c     HC  483   2.710   1.983   2.902
   42c3c     HC  484   2.654   1.824   2.949
   43c3c     N4  485   3.129   2.786   2.937
   43c3c     C1  486   3.188   2.706   2.829
   43c3c     C1  487   3.217   2.777   3.056
   43c3c     C2  488   3.297   2.616   2.890
   43c3c     C2  489   3.314   2.661   3.034
   43c3c     C1  490   3.124   2.927   2.894
   43c3c     C1  491   2.990   2.745   2.968
   43c3c     H1  492   3.235   2.768   2.753
   43c3c     H1  493   3.114   2.647   2.775
   43c3c     H1  494   3.275   2.868   3.071
   43c3c     H1  495   3.161   2.765   3.149
   43c3c     HC  496   3.390   2.627   2.835
   43c3c     HC  497   3.268   2.511   2.886
   43c3c     HC  498   3.417   2.694   3.051
   43c3c     HC  499   3.294   2.579   3.102
   43c3c     H1  500   3.063   2.940   2.804
   43c3c     H1  501   3.083   2.992   2.971
   43c3c     H1  502   3.223   2.965   2.869
   43c3c     H1  503   2.948   2.812   3.043
   43c3c     H1  504   2.928   2.760   2.879
   43c3c     C2  505   2.970   2.599   3.016
   43c3c     HC  506   3.028   2.581   3.107
   43c3c     HC  507   3.006   2.529   2.941
   43c3c     CT  508   2.823   2.568   3.045
   43c3c     HC  509   2.761   2.581   2.956
   43c3c     HC  510   2.783   2.633   3.123
   43c3c     HC  511   2.811   2.465   3.079
   44c3c     N4  512   2.428   5.022   3.412
   44c3c     C1  513   2.532   4.929   3.459
   44c3c     C1  514   2.493   5.149   3.374
   44c3c     C2  515   2.660   5.009   3.484
   44c3c     C2  516   2.635   5.149   3.430
   44c3c     C1  517   2.365   4.965   3.292
   44c3c     C1  518   2.321   5.041   3.512
   44c3c     H1  519   2.555   4.851   3.385
   44c3c     H1  520   2.503   4.874   3.548
   44c3c     H1  521   2.499   5.163   3.266
   44c3c     H1  522   2.438   5.236   3.410
   44c3c     HC  523   2.745   4.963   3.433
   44c3c     HC  524   2.684   5.013   3.590
   44c3c     HC  525   2.708   5.173   3.352
   44c3c     HC  526   2.647   5.222   3.510
   44c3c     H1  527   2.318   4.869   3.313
   44c3c     H1  528   2.289   5.031   3.250
   44c3c     H1  529   2.438   4.947   3.212
   44c3c     H1  530   2.243   5.105   3.470
   44c3c     H1  531   2.272   4.946   3.531
   44c3c     C2  532   2.365   5.101   3.648
   44c3c     HC  533   2.411   5.199   3.635
   44c3c     HC  534   2.439   5.038   3.696
   44c3c     CT  535   2.246   5.117   3.743
   44c3c     HC  536   2.198   5.021   3.764
   44c3c     HC  537   2.170   5.183   3.702
   44c3c     HC  538   2.277   5.159   3.839
   45c3c     N4  539   5.059   3.080   3.163
   45c3c     C1  540   5.094   3.150   3.288
   45c3c     C1  541   5.059   2.935   3.188
   45c3c     C2  542   5.149   3.046   3.387
   45c3c     C2  543   5.127   2.910   3.323
   45c3c     C1  544   4.924   3.121   3.123
   45c3c     C1  545   5.150   3.117   3.052
   45c3c     H1  546   5.008   3.197   3.335
   45c3c     H1  547   5.165   3.231   3.273
   45c3c     H1  548   4.958   2.894   3.194
   45c3c     H1  549   5.108   2.878   3.109
   45c3c     HC  550   5.097   3.052   3.482
   45c3c     HC  551   5.255   3.062   3.406
   45c3c     HC  552   5.065   2.848   3.387
   45c3c     HC  553   5.223   2.859   3.310
   45c3c     H1  554   4.917   3.229   3.105
   45c3c     H1  555   4.891   3.072   3.032
   45c3c     H1  556   4.850   3.098   3.200
   45c3c     H1  557   5.117   3.069   2.960
   45c3c     H1  558   5.142   3.224   3.032
   45c3c     C2  559   5.300   3.083   3.071
   45c3c     HC  560   5.314   2.976   3.087
   45c3c     HC  561   5.340   3.133   3.160
   45c3c     CT  562   5.384   3.125   2.950
   45c3c     HC  563   5.377   3.233   2.932
   45c3c     HC  564   5.351   3.075   2.859
   45c3c     HC  565   5.489   3.101   2.965
   46c3c     N4  566   3.183   1.044   3.502
   46c3c     C1  567   3.287   1.146   3.525
   46c3c     C1  568   3.248   0.911   3.503
   46c3c     C2  569   3.424   1.081   3.506
   46c3c     C2  570   3.400   0.932   3.493
   46c3c     C1  571   3.087   1.049   3.613
   46c3c     C1  572   3.108   1.068   3.377
   46c3c     H1  573   3.283   1.188   3.626
   46c3c     H1  574   3.277   1.233   3.459
   46c3c     H1  575   3.228   0.856   3.595
   46c3c     H1  576   3.213   0.846   3.424
   46c3c     HC  577   3.488   1.102   3.592
   46c3c     HC  578   3.475   1.119   3.417
   46c3c     HC  579   3.451   0.878   3.573
   46c3c     HC  580   3.438   0.895   3.398
   46c3c     H1  581   3.037   1.146   3.619
   46c3c     H1  582   3.009   0.973   3.603
   46c3c     H1  583   3.135   1.032   3.709
   46c3c     H1  584   3.029   0.993   3.368
   46c3c     H1  585   3.057   1.164   3.383
   46c3c     C2  586   3.191   1.067   3.246
   46c3c     HC  587   3.241   0.971   3.232
   46c3c     HC  588   3.269   1.142   3.248
   46c3c     CT  589   3.103   1.093   3.123
   46c3c     HC  590   3.054   1.190   3.128
   46c3c     HC  591   3.025   1.017   3.113
   46c3c     HC  592   3.162   1.091   3.031
   47c3c     N4  593   3.147   2.111   3.292
   47c3c     C1  594   3.045   2.008   3.266
   47c3c     C1  595   3.280   2.048   3.284
   47c3c     C2  596   3.112   1.871   3.274
   47c3c     C2  597   3.262   1.896   3.285
   47c3c     C1  598   3.138   2.214   3.187
   47c3c     C1  599   3.126   2.179   3.422
   47c3c     H1  600   3.001   2.017   3.167
   47c3c     H1  601   2.961   2.014   3.335
   47c3c     H1  602   3.333   2.073   3.191
   47c3c     H1  603   3.348   2.079   3.363
   47c3c     HC  604   3.090   1.812   3.185
   47c3c     HC  605   3.077   1.814   3.360
   47c3c     HC  606   3.314   1.850   3.201
   47c3c     HC  607   3.301   1.851   3.377
   47c3c     H1  608   3.040   2.262   3.186
   47c3c     H1  609   3.213   2.291   3.199
   47c3c     H1  610   3.152   2.170   3.088
   47c3c     H1  611   3.200   2.259   3.434
   47c3c     H1  612   3.029   2.229   3.421
   47c3c     C2  613   3.132   2.090   3.548
   47c3c     HC  614   3.229   2.040   3.556
   47c3c     HC  615   3.057   2.011   3.544
   47c3c     CT  616   3.110   2.171   3.677
   47c3c     HC  617   3.012   2.219   3.677
   47c3c     HC  618   3.185   2.248   3.690
   47c3c     HC  619   3.114   2.106   3.765
   48c3c     N4  620   1.686   2.112   2.451
   48c3c     C1  621   1.791   2.013   2.419
   48c3c     C1  622   1.630   2.079   2.583
   48c3c     C2  623   1.777   1.895   2.517
   48c3c     C2  624   1.675   1.938   2.621
   48c3c     C1  625   1.749   2.245   2.458
   48c3c     C1  626   1.582   2.119   2.346
   48c3c     H1  627   1.891   2.054   2.430
   48c3c     H1  628   1.786   1.978   2.316
   48c3c     H1  629   1.665   2.147   2.661
   48c3c     H1  630   1.521   2.088   2.586
   48c3c     HC  631   1.873   1.873   2.564
   48c3c     HC  632   1.744   1.805   2.466
   48c3c     HC  633   1.719   1.937   2.720
   48c3c     HC  634   1.591   1.868   2.621
   48c3c     H1  635   1.795   2.274   2.364
   48c3c     H1  636   1.677   2.323   2.484
   48c3c     H1  637   1.827   2.249   2.534
   48c3c     H1  638   1.512   2.198   2.370
   48c3c     H1  639   1.628   2.150   2.252
   48c3c     C2  640   1.502   1.989   2.320
   48c3c     HC  641   1.451   1.956   2.410
   48c3c     HC  642   1.569   1.907   2.291
   48c3c     CT  643   1.398   2.008   2.209
   48c3c     HC  644   1.444   2.036   2.115
   48c3c     HC  645   1.326   2.085   2.235
   48c3c     HC  646   1.342   1.915   2.192
   49c3c     N4  647   2.058   3.578   1.484
   49c3c     C1  648   1.981   3.460   1.440
   49c3c     C1  649   2.194   3.567   1.428
   49c3c     C2  650   2.078   3.356   1.385
   49c3c     C2  651   2.214   3.424   1.377
   49c3c     C1  652   1.995   3.698   1.429
   49c3c     C1  653   2.059   3.593   1.631
   49c3c     H1  654   1.909   3.484   1.362
   49c3c     H1  655   1.920   3.417   1.520
   49c3c     H1  656   2.210   3.635   1.344
   49c3c     H1  657   2.272   3.594   1.500
   49c3c     HC  658   2.046   3.323   1.286
   49c3c     HC  659   2.083   3.268   1.449
   49c3c     HC  660   2.251   3.424   1.275
   49c3c     HC  661   2.287   3.370   1.438
   49c3c     H1  662   1.892   3.710   1.464
   49c3c     H1  663   2.049   3.789   1.455
   49c3c     H1  664   1.990   3.695   1.320
   49c3c     H1  665   2.111   3.685   1.658
   49c3c     H1  666   1.957   3.606   1.666
   49c3c     C2  667   2.122   3.476   1.712
   49c3c     HC  668   2.226   3.460   1.682
   49c3c     HC  669   2.070   3.383   1.692
   49c3c     CT  670   2.119   3.503   1.863
   49c3c     HC  671   2.016   3.515   1.899
   49c3c     HC  672   2.174   3.593   1.889
   49c3c     HC  673   2.163   3.420   1.918
   50c3c     N4  674   4.687   2.138   5.618
   50c3c     C1  675   4.683   2.000   5.671
   50c3c     C1  676   4.553   2.170   5.566
   50c3c     C2  677   4.556   1.932   5.621
   50c3c     C2  678   4.473   2.040   5.554
   50c3c     C1  679   4.718   2.230   5.729
   50c3c     C1  680   4.792   2.156   5.516
   50c3c     H1  681   4.682   1.998   5.780
   50c3c     H1  682   4.772   1.943   5.644
   50c3c     H1  683   4.498   2.237   5.633
   50c3c     H1  684   4.557   2.224   5.471
   50c3c     HC  685   4.501   1.888   5.704
   50c3c     HC  686   4.579   1.852   5.550
   50c3c     HC  687   4.376   2.050   5.603
   50c3c     HC  688   4.455   2.015   5.449
   50c3c     H1  689   4.816   2.209   5.773
   50c3c     H1  690   4.720   2.334   5.696
   50c3c     H1  691   4.645   2.223   5.810
   50c3c     H1  692   4.796   2.260   5.486
   50c3c     H1  693   4.890   2.138   5.561
   50c3c     C2  694   4.780   2.069   5.389
   50c3c     HC  695   4.686   2.087   5.338
   50c3c     HC  696   4.782   1.963   5.415
   50c3c     CT  697   4.894   2.096   5.291
   50c3c     HC  698   4.992   2.075   5.335
   50c3c     HC  699   4.896   2.200   5.258
   50c3c     HC  700   4.885   2.034   5.202
   51c3c     N4  701   4.389   2.542   2.679
   51c3c     C1  702   4.432   2.579   2.815
   51c3c     C1  703   4.406   2.660   2.592
   51c3c     C2  704   4.443   2.732   2.822
   51c3c     C2  705   4.427   2.783   2.680
   51c3c     C1  706   4.476   2.435   2.630
   51c3c     C1  707   4.251   2.490   2.676
   51c3c     H1  708   4.530   2.538   2.840
   51c3c     H1  709   4.365   2.541   2.892
   51c3c     H1  710   4.493   2.651   2.526
   51c3c     H1  711   4.323   2.674   2.523
   51c3c     HC  712   4.540   2.761   2.862
   51c3c     HC  713   4.366   2.775   2.887
   51c3c     HC  714   4.516   2.837   2.649
   51c3c     HC  715   4.343   2.851   2.674
   51c3c     H1  716   4.471   2.345   2.691
   51c3c     H1  717   4.452   2.405   2.528
   51c3c     H1  718   4.581   2.465   2.628
   51c3c     H1  719   4.226   2.459   2.575
   51c3c     H1  720   4.245   2.399   2.736
   51c3c     C2  721   4.140   2.587   2.724
   51c3c     HC  722   4.139   2.678   2.663
   51c3c     HC  723   4.158   2.619   2.827
   51c3c     CT  724   4.001   2.523   2.718
   51c3c     HC  725   3.995   2.434   2.781
   51c3c     HC  726   3.976   2.493   2.616
   51c3c     HC  727   3.924   2.593   2.751
   52c3c     N4  728   3.162   3.766   3.813
   52c3c     C1  729   3.040   3.769   3.896
   52c3c     C1  730   3.163   3.639   3.738
   52c3c     C2  731   2.980   3.628   3.900
   52c3c     C2  732   3.060   3.545   3.800
   52c3c     C1  733   3.155   3.877   3.718
   52c3c     C1  734   3.285   3.785   3.894
   52c3c     H1  735   2.964   3.836   3.856
   52c3c     H1  736   3.058   3.807   3.997
   52c3c     H1  737   3.137   3.653   3.633
   52c3c     H1  738   3.262   3.593   3.736
   52c3c     HC  739   2.875   3.631   3.873
   52c3c     HC  740   2.988   3.584   4.000
   52c3c     HC  741   2.993   3.505   3.723
   52c3c     HC  742   3.107   3.461   3.850
   52c3c     H1  743   3.151   3.974   3.768
   52c3c     H1  744   3.242   3.879   3.651
   52c3c     H1  745   3.067   3.871   3.654
   52c3c     H1  746   3.371   3.789   3.828
   52c3c     H1  747   3.281   3.882   3.942
   52c3c     C2  748   3.313   3.678   4.003
   52c3c     HC  749   3.320   3.579   3.959
   52c3c     HC  750   3.231   3.674   4.075
   52c3c     CT  751   3.443   3.707   4.079
   52c3c     HC  752   3.439   3.804   4.129
   52c3c     HC  753   3.529   3.708   4.013
   52c3c     HC  754   3.461   3.632   4.156
   53c3c     N4  755   3.512   5.108   1.057
   53c3c     C1  756   3.500   5.255   1.046
   53c3c     C1  757   3.377   5.049   1.047
   53c3c     C2  758   3.353   5.292   1.063
   53c3c     C2  759   3.274   5.162   1.064
   53c3c     C1  760   3.592   5.059   0.945
   53c3c     C1  761   3.581   5.067   1.182
   53c3c     H1  762   3.533   5.292   0.949
   53c3c     H1  763   3.562   5.308   1.119
   53c3c     H1  764   3.359   5.003   0.950
   53c3c     H1  765   3.359   4.970   1.119
   53c3c     HC  766   3.320   5.356   0.980
   53c3c     HC  767   3.336   5.347   1.155
   53c3c     HC  768   3.202   5.160   0.982
   53c3c     HC  769   3.219   5.152   1.157
   53c3c     H1  770   3.693   5.101   0.945
   53c3c     H1  771   3.602   4.951   0.945
   53c3c     H1  772   3.547   5.086   0.849
   53c3c     H1  773   3.593   4.958   1.182
   53c3c     H1  774   3.682   5.107   1.181
   53c3c     C2  775   3.513   5.108   1.315
   53c3c     HC  776   3.413   5.066   1.322
   53c3c     HC  777   3.503   5.216   1.321
   53c3c     CT  778   3.593   5.060   1.437
   53c3c     HC  779   3.694   5.102   1.437
   53c3c     HC  780   3.603   4.951   1.438
   53c3c     HC  781   3.544   5.090   1.529
   54c3c     N4  782   0.499   1.941   3.779
   54c3c     C1  783   0.505   1.825   3.870
   54c3c     C1  784   0.358   1.983   3.768
   54c3c     C2  785   0.363   1.771   3.889
   54c3c     C2  786   0.270   1.871   3.824
   54c3c     C1  787   0.576   2.052   3.839
   54c3c     C1  788   0.559   1.911   3.647
   54c3c     H1  789   0.544   1.852   3.969
   54c3c     H1  790   0.572   1.747   3.835
   54c3c     H1  791   0.337   2.074   3.824
   54c3c     H1  792   0.330   2.008   3.665
   54c3c     HC  793   0.340   1.760   3.995
   54c3c     HC  794   0.352   1.673   3.843
   54c3c     HC  795   0.199   1.911   3.897
   54c3c     HC  796   0.212   1.823   3.745
   54c3c     H1  797   0.681   2.026   3.853
   54c3c     H1  798   0.573   2.142   3.777
   54c3c     H1  799   0.537   2.080   3.937
   54c3c     H1  800   0.558   2.002   3.586
   54c3c     H1  801   0.664   1.887   3.661
   54c3c     C2  802   0.493   1.797   3.566
   54c3c     HC  803   0.388   1.818   3.546
   54c3c     HC  804   0.496   1.703   3.621
   54c3c     CT  805   0.564   1.775   3.431
   54c3c     HC  806   0.669   1.749   3.445
   54c3c     HC  807   0.560   1.865   3.369
   54c3c     HC  808   0.517   1.694   3.375
   55c3c     N4  809   3.553   2.574   2.409
   55c3c     C1  810   3.694   2.530   2.400
   55c3c     C1  811   3.467   2.455   2.418
   55c3c     C2  812   3.695   2.380   2.369
   55c3c     C2  813   3.551   2.332   2.380
   55c3c     C1  814   3.537   2.653   2.532
   55c3c     C1  815   3.515   2.662   2.297
   55c3c     H1  816   3.749   2.546   2.493
   55c3c     H1  817   3.750   2.585   2.324
   55c3c     H1  818   3.427   2.439   2.518
   55c3c     H1  819   3.380   2.462   2.354
   55c3c     HC  820   3.758   2.327   2.440
   55c3c     HC  821   3.734   2.360   2.270
   55c3c     HC  822   3.543   2.255   2.456
   55c3c     HC  823   3.519   2.289   2.286
   55c3c     H1  824   3.601   2.741   2.532
   55c3c     H1  825   3.434   2.686   2.545
   55c3c     H1  826   3.564   2.594   2.621
   55c3c     H1  827   3.413   2.698   2.311
   55c3c     H1  828   3.577   2.752   2.298
   55c3c     C2  829   3.525   2.601   2.155
   55c3c     HC  830   3.461   2.513   2.146
   55c3c     HC  831   3.626   2.568   2.133
   55c3c     CT  832   3.483   2.701   2.047
   55c3c     HC  833   3.546   2.790   2.048
   55c3c     HC  834   3.380   2.734   2.061
   55c3c     HC  835   3.490   2.657   1.948
   56c3c     N4  836   4.226   1.081   3.097
   56c3c     C1  837   4.105   1.166   3.093
   56c3c     C1  838   4.275   1.076   3.236
   56c3c     C2  839   4.097   1.243   3.225
   56c3c     C2  840   4.205   1.186   3.316
   56c3c     C1  841   4.190   0.945   3.055
   56c3c     C1  842   4.330   1.129   3.003
   56c3c     H1  843   4.014   1.107   3.082
   56c3c     H1  844   4.104   1.234   3.008
   56c3c     H1  845   4.254   0.980   3.284
   56c3c     H1  846   4.383   1.086   3.242
   56c3c     HC  847   3.998   1.230   3.270
   56c3c     HC  848   4.112   1.350   3.209
   56c3c     HC  849   4.161   1.145   3.407
   56c3c     HC  850   4.275   1.265   3.345
   56c3c     H1  851   4.150   0.943   2.954
   56c3c     H1  852   4.275   0.877   3.058
   56c3c     H1  853   4.113   0.902   3.120
   56c3c     H1  854   4.414   1.060   3.004
   56c3c     H1  855   4.291   1.126   2.901
   56c3c     C2  856   4.384   1.272   3.028
   56c3c     HC  857   4.426   1.281   3.128
   56c3c     HC  858   4.303   1.346   3.022
   56c3c     CT  859   4.492   1.310   2.926
   56c3c     HC  860   4.453   1.307   2.824
   56c3c     HC  861   4.577   1.242   2.931
   56c3c     HC  862   4.529   1.411   2.944
   57c3c     N4  863   6.006   0.612   3.352
   57c3c     C1  864   6.119   0.655   3.436
   57c3c     C1  865   5.966   0.725   3.266
   57c3c     C2  866   6.130   0.808   3.428
   57c3c     C2  867   6.032   0.852   3.320
   57c3c     C1  868   6.051   0.502   3.266
   57c3c     C1  869   5.893   0.561   3.434
   57c3c     H1  870   6.214   0.614   3.402
   57c3c     H1  871   6.111   0.622   3.540
   57c3c     H1  872   5.999   0.712   3.163
   57c3c     H1  873   5.858   0.737   3.259
   57c3c     HC  874   6.231   0.837   3.401
   57c3c     HC  875   6.105   0.855   3.523
   57c3c     HC  876   6.085   0.904   3.240
   57c3c     HC  877   5.958   0.921   3.362
   57c3c     H1  878   6.085   0.416   3.324
   57c3c     H1  879   5.972   0.467   3.199
   57c3c     H1  880   6.134   0.532   3.203
   57c3c     H1  881   5.815   0.524   3.367
   57c3c     H1  882   5.926   0.474   3.490
   57c3c     C2  883   5.828   0.661   3.533
   57c3c     HC  884   5.790   0.748   3.480
   57c3c     HC  885   5.902   0.698   3.604
   57c3c     CT  886   5.713   0.598   3.611
   57c3c     HC  887   5.746   0.512   3.670
   57c3c     HC  888   5.633   0.564   3.545
   57c3c     HC  889   5.669   0.670   3.681
   58c3c     N4  890   3.581   2.484   3.713
   58c3c     C1  891   3.660   2.362   3.687
   58c3c     C1  892   3.674   2.593   3.746
   58c3c     C2  893   3.802   2.385   3.738
   58c3c     C2  894   3.811   2.532   3.776
   58c3c     C1  895   3.509   2.520   3.589
   58c3c     C1  896   3.478   2.463   3.818
   58c3c     H1  897   3.666   2.338   3.581
   58c3c     H1  898   3.617   2.273   3.733
   58c3c     H1  899   3.685   2.665   3.665
   58c3c     H1  900   3.639   2.653   3.830
   58c3c     HC  901   3.875   2.362   3.661
   58c3c     HC  902   3.824   2.323   3.825
   58c3c     HC  903   3.888   2.582   3.717
   58c3c     HC  904   3.838   2.543   3.881
   58c3c     H1  905   3.441   2.441   3.557
   58c3c     H1  906   3.452   2.611   3.601
   58c3c     H1  907   3.579   2.537   3.507
   58c3c     H1  908   3.419   2.554   3.828
   58c3c     H1  909   3.408   2.386   3.785
   58c3c     C2  910   3.531   2.424   3.958
   58c3c     HC  911   3.598   2.500   3.997
   58c3c     HC  912   3.588   2.331   3.954
   58c3c     CT  913   3.416   2.405   4.058
   58c3c     HC  914   3.348   2.326   4.027
   58c3c     HC  915   3.358   2.496   4.070
   58c3c     HC  916   3.455   2.378   4.156
   59c3c     N4  917   0.660   1.196   5.528
   59c3c     C1  918   0.741   1.310   5.484
   59c3c     C1  919   0.742   1.074   5.516
   59c3c     C2  920   0.864   1.257   5.410
   59c3c     C2  921   0.864   1.106   5.431
   59c3c     C1  922   0.625   1.215   5.670
   59c3c     C1  923   0.533   1.185   5.453
   59c3c     H1  924   0.775   1.371   5.567
   59c3c     H1  925   0.685   1.380   5.421
   59c3c     H1  926   0.777   1.038   5.613
   59c3c     H1  927   0.687   0.989   5.475
   59c3c     HC  928   0.955   1.301   5.451
   59c3c     HC  929   0.860   1.281   5.304
   59c3c     HC  930   0.956   1.075   5.481
   59c3c     HC  931   0.861   1.055   5.335
   59c3c     H1  932   0.567   1.305   5.686
   59c3c     H1  933   0.568   1.131   5.710
   59c3c     H1  934   0.714   1.224   5.732
   59c3c     H1  935   0.474   1.103   5.494
   59c3c     H1  936   0.473   1.274   5.471
   59c3c     C2  937   0.544   1.164   5.301
   59c3c     HC  938   0.600   1.073   5.278
   59c3c     HC  939   0.599   1.246   5.254
   59c3c     CT  940   0.407   1.153   5.234
   59c3c     HC  941   0.348   1.244   5.249
   59c3c     HC  942   0.349   1.070   5.273
   59c3c     HC  943   0.417   1.139   5.126
   60c3c     N4  944   4.633   5.212   6.053
   60c3c     C1  945   4.623   5.238   5.908
   60c3c     C1  946   4.715   5.090   6.073
   60c3c     C2  947   4.670   5.113   5.833
   60c3c     C2  948   4.728   5.019   5.938
   60c3c     C1  949   4.702   5.325   6.116
   60c3c     C1  950   4.500   5.201   6.118
   60c3c     H1  951   4.685   5.321   5.876
   60c3c     H1  952   4.522   5.265   5.877
   60c3c     H1  953   4.815   5.113   6.108
   60c3c     H1  954   4.673   5.023   6.148
   60c3c     HC  955   4.746   5.139   5.759
   60c3c     HC  956   4.588   5.064   5.780
   60c3c     HC  957   4.832   4.998   5.916
   60c3c     HC  958   4.674   4.924   5.937
   60c3c     H1  959   4.648   5.419   6.101
   60c3c     H1  960   4.716   5.311   6.223
   60c3c     H1  961   4.801   5.340   6.073
   60c3c     H1  962   4.513   5.189   6.225
   60c3c     H1  963   4.447   5.295   6.105
   60c3c     C2  964   4.408   5.087   6.068
   60c3c     HC  965   4.456   4.990   6.081
   60c3c     HC  966   4.388   5.097   5.961
   60c3c     CT  967   4.274   5.085   6.142
   60c3c     HC  968   4.220   5.178   6.128
   60c3c     HC  969   4.288   5.070   6.249
   60c3c     HC  970   4.211   5.005   6.105
   61c3c     N4  971   2.215   1.593   3.991
   61c3c     C1  972   2.317   1.488   4.005
   61c3c     C1  973   2.208   1.631   3.848
   61c3c     C2  974   2.400   1.483   3.877
   61c3c     C2  975   2.331   1.575   3.777
   61c3c     C1  976   2.085   1.538   4.031
   61c3c     C1  977   2.241   1.709   4.078
   61c3c     H1  978   2.273   1.389   4.020
   61c3c     H1  979   2.380   1.502   4.093
   61c3c     H1  980   2.119   1.590   3.799
   61c3c     H1  981   2.199   1.739   3.834
   61c3c     HC  982   2.405   1.382   3.838
   61c3c     HC  983   2.502   1.517   3.895
   61c3c     HC  984   2.302   1.519   3.688
   61c3c     HC  985   2.399   1.654   3.746
   61c3c     H1  986   2.084   1.505   4.135
   61c3c     H1  987   2.004   1.610   4.020
   61c3c     H1  988   2.057   1.451   3.971
   61c3c     H1  989   2.159   1.781   4.069
   61c3c     H1  990   2.238   1.677   4.182
   61c3c     C2  991   2.374   1.784   4.054
   61c3c     HC  992   2.379   1.822   3.952
   61c3c     HC  993   2.459   1.718   4.067
   61c3c     CT  994   2.391   1.903   4.150
   61c3c     HC  995   2.391   1.871   4.254
   61c3c     HC  996   2.311   1.976   4.138
   61c3c     HC  997   2.486   1.955   4.132
   62c3c     N4  998   0.912   1.863   1.682
   62c3c     C1  999   0.908   1.717   1.697
   62c3c     C1 1000   0.774   1.914   1.675
   62c3c     C2 1001   0.765   1.669   1.666
   62c3c     C2 1002   0.680   1.795   1.652
   62c3c     C1 1003   0.976   1.920   1.801
   62c3c     C1 1004   0.992   1.905   1.565
   62c3c     H1 1005   0.932   1.684   1.798
   62c3c     H1 1006   0.980   1.665   1.633
   62c3c     H1 1007   0.743   1.963   1.767
   62c3c     H1 1008   0.760   1.989   1.597
   62c3c     HC 1009   0.727   1.606   1.746
   62c3c     HC 1010   0.762   1.611   1.573
   62c3c     HC 1011   0.600   1.794   1.725
   62c3c     HC 1012   0.634   1.798   1.553
   62c3c     H1 1013   1.079   1.884   1.813
   62c3c     H1 1014   0.980   2.029   1.797
   62c3c     H1 1015   0.923   1.894   1.892
   62c3c     H1 1016   0.998   2.014   1.561
   62c3c     H1 1017   1.095   1.871   1.577
   62c3c     C2 1018   0.943   1.856   1.426
   62c3c     HC 1019   0.841   1.891   1.406
   62c3c     HC 1020   0.939   1.747   1.423
   62c3c     CT 1021   1.034   1.905   1.313
   62c3c     HC 1022   1.136   1.868   1.325
   62c3c     HC 1023   1.038   2.013   1.309
   62c3c     HC 1024   0.998   1.870   1.216
   63c3c     N4 1025   2.933   0.471   1.478
   63c3c     C1 1026   3.039   0.375   1.515
   63c3c     C1 1027   2.829   0.468   1.582
   63c3c     C2 1028   2.984   0.285   1.626
   63c3c     C2 1029   2.850   0.343   1.668
   63c3c     C1 1030   2.993   0.606   1.475
   63c3c     C1 1031   2.878   0.444   1.343
   63c3c     H1 1032   3.128   0.424   1.553
   63c3c     H1 1033   3.074   0.316   1.431
   63c3c     H1 1034   2.834   0.555   1.648
   63c3c     H1 1035   2.728   0.470   1.541
   63c3c     HC 1036   3.053   0.282   1.711
   63c3c     HC 1037   2.971   0.182   1.591
   63c3c     HC 1038   2.852   0.370   1.774
   63c3c     HC 1039   2.771   0.270   1.654
   63c3c     H1 1040   3.073   0.613   1.401
   63c3c     H1 1041   2.919   0.683   1.451
   63c3c     H1 1042   3.037   0.633   1.570
   63c3c     H1 1043   2.807   0.522   1.316
   63c3c     H1 1044   2.959   0.451   1.270
   63c3c     C2 1045   2.810   0.306   1.323
   63c3c     HC 1046   2.727   0.293   1.393
   63c3c     HC 1047   2.880   0.225   1.343
   63c3c     CT 1048   2.756   0.290   1.180
   63c3c     HC 1049   2.836   0.298   1.107
   63c3c     HC 1050   2.681   0.366   1.157
   63c3c     HC 1051   2.709   0.192   1.167
   64c3c     N4 1052   2.554   0.491   3.090
   64c3c     C1 1053   2.667   0.586   3.093
   64c3c     C1 1054   2.564   0.412   2.966
   64c3c     C2 1055   2.729   0.592   2.953
   64c3c     C2 1056   2.663   0.481   2.873
   64c3c     C1 1057   2.568   0.400   3.205
   64c3c     C1 1058   2.424   0.559   3.104
   64c3c     H1 1059   2.745   0.556   3.162
   64c3c     H1 1060   2.637   0.686   3.126
   64c3c     H1 1061   2.600   0.310   2.984
   64c3c     H1 1062   2.467   0.398   2.917
   64c3c     HC 1063   2.836   0.577   2.958
   64c3c     HC 1064   2.711   0.688   2.905
   64c3c     HC 1065   2.738   0.410   2.838
   64c3c     HC 1066   2.614   0.522   2.785
   64c3c     H1 1067   2.565   0.452   3.300
   64c3c     H1 1068   2.489   0.324   3.206
   64c3c     H1 1069   2.662   0.345   3.202
   64c3c     H1 1070   2.345   0.484   3.107
   64c3c     H1 1071   2.419   0.610   3.200
   64c3c     C2 1072   2.387   0.661   2.993
   64c3c     HC 1073   2.385   0.613   2.895
   64c3c     HC 1074   2.462   0.740   2.987
   64c3c     CT 1075   2.250   0.725   3.018
   64c3c     HC 1076   2.248   0.779   3.113
   64c3c     HC 1077   2.171   0.651   3.020
   64c3c     HC 1078   2.226   0.797   2.939
   65c3c     N4 1079   5.347   1.155   3.728
   65c3c     C1 1080   5.484   1.210   3.726
   65c3c     C1 1081   5.252   1.266   3.707
   65c3c     C2 1082   5.475   1.363   3.739
   65c3c     C2 1083   5.327   1.398   3.727
   65c3c     C1 1084   5.333   1.061   3.617
   65c3c     C1 1085   5.319   1.081   3.853
   65c3c     H1 1086   5.536   1.188   3.633
   65c3c     H1 1087   5.547   1.169   3.804
   65c3c     H1 1088   5.211   1.267   3.606
   65c3c     H1 1089   5.165   1.261   3.773
   65c3c     HC 1090   5.532   1.411   3.660
   65c3c     HC 1091   5.514   1.397   3.835
   65c3c     HC 1092   5.311   1.464   3.641
   65c3c     HC 1093   5.294   1.451   3.816
   65c3c     H1 1094   5.403   0.977   3.624
   65c3c     H1 1095   5.233   1.019   3.610
   65c3c     H1 1096   5.352   1.109   3.521
   65c3c     H1 1097   5.219   1.036   3.847
   65c3c     H1 1098   5.387   0.996   3.860
   65c3c     C2 1099   5.327   1.161   3.985
   65c3c     HC 1100   5.258   1.245   3.984
   65c3c     HC 1101   5.427   1.204   3.998
   65c3c     CT 1102   5.296   1.074   4.107
   65c3c     HC 1103   5.366   0.991   4.116
   65c3c     HC 1104   5.195   1.032   4.102
   65c3c     HC 1105   5.302   1.132   4.199
   66c3c     N4 1106   5.258   4.787   4.839
   66c3c     C1 1107   5.310   4.711   4.954
   66c3c     C1 1108   5.231   4.691   4.730
   66c3c     C2 1109   5.352   4.572   4.906
   66c3c     C2 1110   5.301   4.559   4.763
   66c3c     C1 1111   5.131   4.851   4.878
   66c3c     C1 1112   5.350   4.895   4.797
   66c3c     H1 1113   5.234   4.698   5.031
   66c3c     H1 1114   5.392   4.762   5.004
   66c3c     H1 1115   5.124   4.670   4.720
   66c3c     H1 1116   5.261   4.729   4.632
   66c3c     HC 1117   5.307   4.495   4.969
   66c3c     HC 1118   5.460   4.559   4.909
   66c3c     HC 1119   5.232   4.476   4.755
   66c3c     HC 1120   5.384   4.540   4.695
   66c3c     H1 1121   5.144   4.920   4.961
   66c3c     H1 1122   5.085   4.907   4.797
   66c3c     H1 1123   5.057   4.778   4.911
   66c3c     H1 1124   5.303   4.952   4.716
   66c3c     H1 1125   5.361   4.966   4.878
   66c3c     C2 1126   5.491   4.852   4.750
   66c3c     HC 1127   5.485   4.783   4.665
   66c3c     HC 1128   5.543   4.798   4.829
   66c3c     CT 1129   5.578   4.971   4.708
   66c3c     HC 1130   5.592   5.041   4.791
   66c3c     HC 1131   5.532   5.026   4.625
   66c3c     HC 1132   5.677   4.939   4.676
   67c3c     N4 1133   2.780   3.488   2.915
   67c3c     C1 1134   2.744   3.584   3.021
   67c3c     C1 1135   2.766   3.352   2.971
   67c3c     C2 1136   2.742   3.511   3.155
   67c3c     C2 1137   2.756   3.363   3.124
   67c3c     C1 1138   2.684   3.502   2.805
   67c3c     C1 1139   2.915   3.512   2.861
   67c3c     H1 1140   2.645   3.627   3.005
   67c3c     H1 1141   2.811   3.670   3.024
   67c3c     H1 1142   2.676   3.302   2.936
   67c3c     H1 1143   2.848   3.286   2.941
   67c3c     HC 1144   2.648   3.530   3.207
   67c3c     HC 1145   2.823   3.544   3.220
   67c3c     HC 1146   2.670   3.308   3.160
   67c3c     HC 1147   2.845   3.322   3.173
   67c3c     H1 1148   2.687   3.602   2.761
   67c3c     H1 1149   2.703   3.431   2.724
   67c3c     H1 1150   2.582   3.485   2.837
   67c3c     H1 1151   2.934   3.443   2.778
   67c3c     H1 1152   2.918   3.611   2.815
   67c3c     C2 1153   3.033   3.502   2.961
   67c3c     HC 1154   3.037   3.404   3.006
   67c3c     HC 1155   3.021   3.574   3.042
   67c3c     CT 1156   3.169   3.529   2.893
   67c3c     HC 1157   3.172   3.629   2.850
   67c3c     HC 1158   3.189   3.458   2.813
   67c3c     HC 1159   3.251   3.522   2.965
   68c3c     N4 1160   4.082   1.803   4.187
   68c3c     C1 1161   4.037   1.684   4.263
   68c3c     C1 1162   4.055   1.923   4.269
   68c3c     C2 1163   3.949   1.732   4.378
   68c3c     C2 1164   3.961   1.883   4.383
   68c3c     C1 1165   4.228   1.793   4.168
   68c3c     C1 1166   4.021   1.811   4.053
   68c3c     H1 1167   4.120   1.628   4.306
   68c3c     H1 1168   3.983   1.612   4.201
   68c3c     H1 1169   4.145   1.964   4.314
   68c3c     H1 1170   4.013   2.005   4.211
   68c3c     HC 1171   3.982   1.688   4.473
   68c3c     HC 1172   3.845   1.703   4.364
   68c3c     HC 1173   4.001   1.915   4.479
   68c3c     HC 1174   3.862   1.929   4.372
   68c3c     H1 1175   4.255   1.705   4.110
   68c3c     H1 1176   4.268   1.880   4.116
   68c3c     H1 1177   4.280   1.787   4.263
   68c3c     H1 1178   4.063   1.896   3.999
   68c3c     H1 1179   4.050   1.723   3.995
   68c3c     C2 1180   3.867   1.822   4.048
   68c3c     HC 1181   3.833   1.911   4.102
   68c3c     HC 1182   3.820   1.737   4.098
   68c3c     CT 1183   3.814   1.829   3.904
   68c3c     HC 1184   3.841   1.740   3.848
   68c3c     HC 1185   3.855   1.915   3.851
   68c3c     HC 1186   3.706   1.837   3.903
   69c3c     N4 1187   1.843   1.017   5.021
   69c3c     C1 1188   1.979   1.022   4.966
   69c3c     C1 1189   1.755   0.951   4.923
   69c3c     C2 1190   1.972   0.991   4.817
   69c3c     C2 1191   1.830   0.945   4.789
   69c3c     C1 1192   1.844   0.936   5.144
   69c3c     C1 1193   1.793   1.152   5.059
   69c3c     H1 1194   2.045   0.948   5.012
   69c3c     H1 1195   2.028   1.118   4.983
   69c3c     H1 1196   1.730   0.849   4.951
   69c3c     H1 1197   1.659   1.002   4.911
   69c3c     HC 1198   2.043   0.912   4.791
   69c3c     HC 1199   1.996   1.078   4.756
   69c3c     HC 1200   1.829   0.843   4.750
   69c3c     HC 1201   1.783   1.010   4.714
   69c3c     H1 1202   1.910   0.977   5.220
   69c3c     H1 1203   1.745   0.926   5.188
   69c3c     H1 1204   1.880   0.834   5.124
   69c3c     H1 1205   1.695   1.142   5.105
   69c3c     H1 1206   1.857   1.193   5.137
   69c3c     C2 1207   1.783   1.256   4.945
   69c3c     HC 1208   1.716   1.220   4.866
   69c3c     HC 1209   1.880   1.272   4.898
   69c3c     CT 1210   1.731   1.391   4.995
   69c3c     HC 1211   1.796   1.433   5.071
   69c3c     HC 1212   1.631   1.381   5.039
   69c3c     HC 1213   1.724   1.463   4.913
   70c3c     N4 1214   4.236   0.938   2.089
   70c3c     C1 1215   4.158   0.823   2.040
   70c3c     C1 1216   4.143   1.050   2.114
   70c3c     C2 1217   4.018   0.873   2.002
   70c3c     C2 1218   4.009   1.017   2.048
   70c3c     C1 1219   4.299   0.900   2.217
   70c3c     C1 1220   4.345   0.975   1.996
   70c3c     H1 1221   4.146   0.745   2.116
   70c3c     H1 1222   4.205   0.772   1.957
   70c3c     H1 1223   4.126   1.067   2.221
   70c3c     H1 1224   4.182   1.146   2.078
   70c3c     HC 1225   3.941   0.812   2.050
   70c3c     HC 1226   4.002   0.866   1.894
   70c3c     HC 1227   3.928   1.029   2.120
   70c3c     HC 1228   3.989   1.083   1.964
   70c3c     H1 1229   4.366   0.815   2.205
   70c3c     H1 1230   4.357   0.982   2.259
   70c3c     H1 1231   4.225   0.872   2.291
   70c3c     H1 1232   4.404   1.055   2.040
   70c3c     H1 1233   4.413   0.891   1.986
   70c3c     C2 1234   4.302   1.019   1.854
   70c3c     HC 1235   4.235   1.105   1.858
   70c3c     HC 1236   4.246   0.939   1.804
   70c3c     CT 1237   4.422   1.055   1.767
   70c3c     HC 1238   4.490   0.970   1.755
   70c3c     HC 1239   4.479   1.138   1.809
   70c3c     HC 1240   4.390   1.085   1.667
   71c3c     N4 1241   5.373   4.717   0.869
   71c3c     C1 1242   5.467   4.603   0.874
   71c3c     C1 1243   5.452   4.841   0.852
   71c3c     C2 1244   5.608   4.658   0.895
   71c3c     C2 1245   5.599   4.809   0.881
   71c3c     C1 1246   5.286   4.700   0.751
   71c3c     C1 1247   5.286   4.722   0.988
   71c3c     H1 1248   5.467   4.545   0.781
   71c3c     H1 1249   5.442   4.531   0.951
   71c3c     H1 1250   5.446   4.880   0.750
   71c3c     H1 1251   5.417   4.922   0.915
   71c3c     HC 1252   5.677   4.617   0.820
   71c3c     HC 1253   5.647   4.631   0.993
   71c3c     HC 1254   5.662   4.843   0.799
   71c3c     HC 1255   5.633   4.857   0.972
   71c3c     H1 1256   5.228   4.608   0.756
   71c3c     H1 1257   5.216   4.783   0.740
   71c3c     H1 1258   5.344   4.695   0.659
   71c3c     H1 1259   5.214   4.803   0.976
   71c3c     H1 1260   5.226   4.631   0.992
   71c3c     C2 1261   5.356   4.739   1.124
   71c3c     HC 1262   5.415   4.831   1.126
   71c3c     HC 1263   5.426   4.657   1.143
   71c3c     CT 1264   5.256   4.744   1.240
   71c3c     HC 1265   5.197   4.652   1.245
   71c3c     HC 1266   5.186   4.827   1.229
   71c3c     HC 1267   5.307   4.756   1.335
   72c3c     N4 1268   2.510   5.386   2.729
   72c3c     C1 1269   2.497   5.404   2.875
   72c3c     C1 1270   2.649   5.347   2.700
   72c3c     C2 1271   2.637   5.410   2.936
   72c3c     C2 1272   2.734   5.373   2.825
   72c3c     C1 1273   2.421   5.277   2.687
   72c3c     C1 1274   2.470   5.507   2.654
   72c3c     H1 1275   2.442   5.322   2.922
   72c3c     H1 1276   2.439   5.493   2.901
   72c3c     H1 1277   2.659   5.241   2.675
   72c3c     H1 1278   2.691   5.399   2.614
   72c3c     HC 1279   2.646   5.340   3.019
   72c3c     HC 1280   2.659   5.510   2.975
   72c3c     HC 1281   2.791   5.285   2.852
   72c3c     HC 1282   2.805   5.454   2.809
   72c3c     H1 1283   2.316   5.299   2.709
   72c3c     H1 1284   2.429   5.257   2.581
   72c3c     H1 1285   2.445   5.184   2.739
   72c3c     H1 1286   2.475   5.486   2.547
   72c3c     H1 1287   2.364   5.528   2.674
   72c3c     C2 1288   2.550   5.636   2.682
   72c3c     HC 1289   2.656   5.621   2.660
   72c3c     HC 1290   2.545   5.663   2.788
   72c3c     CT 1291   2.499   5.754   2.600
   72c3c     HC 1292   2.395   5.776   2.622
   72c3c     HC 1293   2.507   5.734   2.493
   72c3c     HC 1294   2.557   5.844   2.620
   73c3c     N4 1295   5.518   3.811   3.588
   73c3c     C1 1296   5.403   3.755   3.662
   73c3c     C1 1297   5.642   3.765   3.653
   73c3c     C2 1298   5.454   3.702   3.796
   73c3c     C2 1299   5.606   3.708   3.790
   73c3c     C1 1300   5.516   3.757   3.451
   73c3c     C1 1301   5.512   3.958   3.577
   73c3c     H1 1302   5.356   3.673   3.609
   73c3c     H1 1303   5.324   3.828   3.677
   73c3c     H1 1304   5.693   3.686   3.597
   73c3c     H1 1305   5.717   3.844   3.662
   73c3c     HC 1306   5.421   3.599   3.811
   73c3c     HC 1307   5.417   3.761   3.879
   73c3c     HC 1308   5.648   3.608   3.803
   73c3c     HC 1309   5.644   3.770   3.871
   73c3c     H1 1310   5.425   3.786   3.397
   73c3c     H1 1311   5.600   3.793   3.392
   73c3c     H1 1312   5.521   3.648   3.450
   73c3c     H1 1313   5.595   3.993   3.516
   73c3c     H1 1314   5.422   3.987   3.522
   73c3c     C2 1315   5.513   4.036   3.711
   73c3c     HC 1316   5.604   4.015   3.767
   73c3c     HC 1317   5.429   4.008   3.774
   73c3c     CT 1318   5.506   4.188   3.687
   73c3c     HC 1319   5.415   4.216   3.635
   73c3c     HC 1320   5.590   4.223   3.628
   73c3c     HC 1321   5.507   4.242   3.782
   74c3c     N4 1322   6.085   2.909   5.112
   74c3c     C1 1323   6.183   2.802   5.137
   74c3c     C1 1324   5.951   2.848   5.101
   74c3c     C2 1325   6.115   2.668   5.109
   74c3c     C2 1326   5.968   2.697   5.087
   74c3c     C1 1327   6.085   3.000   5.227
   74c3c     C1 1328   6.119   2.990   4.992
   74c3c     H1 1329   6.217   2.801   5.240
   74c3c     H1 1330   6.274   2.813   5.078
   74c3c     H1 1331   5.890   2.866   5.189
   74c3c     H1 1332   5.892   2.889   5.018
   74c3c     HC 1333   6.128   2.600   5.194
   74c3c     HC 1334   6.157   2.619   5.021
   74c3c     HC 1335   5.908   2.645   5.162
   74c3c     HC 1336   5.936   2.662   4.989
   74c3c     H1 1337   6.183   3.047   5.243
   74c3c     H1 1338   6.012   3.080   5.216
   74c3c     H1 1339   6.060   2.948   5.319
   74c3c     H1 1340   6.047   3.070   4.981
   74c3c     H1 1341   6.215   3.039   5.008
   74c3c     C2 1342   6.127   2.913   4.858
   74c3c     HC 1343   6.031   2.866   4.835
   74c3c     HC 1344   6.201   2.833   4.862
   74c3c     CT 1345   6.163   3.006   4.741
   74c3c     HC 1346   6.261   3.051   4.754
   74c3c     HC 1347   6.091   3.087   4.730
   74c3c     HC 1348   6.164   2.952   4.647
   75c3c     N4 1349   4.990   1.882   1.187
   75c3c     C1 1350   4.960   2.020   1.232
   75c3c     C1 1351   5.134   1.875   1.156
   75c3c     C2 1352   5.079   2.109   1.197
   75c3c     C2 1353   5.190   2.017   1.149
   75c3c     C1 1354   4.960   1.789   1.297
   75c3c     C1 1355   4.906   1.842   1.072
   75c3c     H1 1356   4.944   2.025   1.339
   75c3c     H1 1357   4.868   2.059   1.188
   75c3c     H1 1358   5.190   1.821   1.234
   75c3c     H1 1359   5.155   1.820   1.064
   75c3c     HC 1360   5.112   2.165   1.284
   75c3c     HC 1361   5.054   2.181   1.119
   75c3c     HC 1362   5.278   2.027   1.213
   75c3c     HC 1363   5.220   2.043   1.048
   75c3c     H1 1364   4.855   1.793   1.326
   75c3c     H1 1365   4.983   1.686   1.271
   75c3c     H1 1366   5.019   1.813   1.386
   75c3c     H1 1367   4.928   1.738   1.047
   75c3c     H1 1368   4.802   1.843   1.101
   75c3c     C2 1369   4.921   1.926   0.943
   75c3c     HC 1370   5.024   1.925   0.907
   75c3c     HC 1371   4.896   2.031   0.962
   75c3c     CT 1372   4.830   1.875   0.830
   75c3c     HC 1373   4.725   1.879   0.859
   75c3c     HC 1374   4.853   1.772   0.804
   75c3c     HC 1375   4.841   1.935   0.740
   76fsi    FSI 1376   3.049   0.973   1.861
   76fsi    SBT 1377   3.047   1.041   1.719
   76fsi    NBT 1378   2.914   1.126   1.723
   76fsi    OBT 1379   3.167   1.119   1.715
   76fsi    OBT 1380   3.035   0.930   1.628
   76fsi    SBT 1381   2.892   1.272   1.775
   76fsi    OBT 1382   2.978   1.313   1.884
   76fsi    OBT 1383   2.753   1.304   1.788
   76fsi    FSI 1384   2.938   1.361   1.653
   77fsi    FSI 1385   1.881   3.171   2.201
   77fsi    SBT 1386   1.925   3.301   2.278
   77fsi    NBT 1387   1.793   3.385   2.281
   77fsi    OBT 1388   1.971   3.252   2.405
   77fsi    OBT 1389   2.024   3.358   2.190
   77fsi    SBT 1390   1.670   3.374   2.379
   77fsi    OBT 1391   1.661   3.249   2.451
   77fsi    OBT 1392   1.549   3.424   2.320
   77fsi    FSI 1393   1.703   3.480   2.490
   78fsi    FSI 1394   5.505   1.128   2.160
   78fsi    SBT 1395   5.363   1.191   2.137
   78fsi    NBT 1396   5.279   1.134   2.257
   78fsi    OBT 1397   5.386   1.333   2.141
   78fsi    OBT 1398   5.323   1.135   2.011
   78fsi    SBT 1399   5.274   1.183   2.407
   78fsi    OBT 1400   5.385   1.265   2.448
   78fsi    OBT 1401   5.235   1.077   2.496
   78fsi    FSI 1402   5.151   1.281   2.409
   79fsi    FSI 1403   3.170   3.196   2.080
   79fsi    SBT 1404   3.013   3.195   2.080
   79fsi    NBT 1405   2.980   3.041   2.090
   79fsi    OBT 1406   2.978   3.271   2.197
   79fsi    OBT 1407   2.980   3.251   1.952
   79fsi    SBT 1408   2.957   2.952   2.217
   79fsi    OBT 1409   3.020   2.998   2.338
   79fsi    OBT 1410   2.970   2.811   2.189
   79fsi    FSI 1411   2.803   2.969   2.244
   80fsi    FSI 1412   3.852   2.441   1.405
   80fsi    SBT 1413   3.861   2.599   1.407
   80fsi    NBT 1414   3.713   2.641   1.440
   80fsi    OBT 1415   3.957   2.628   1.510
   80fsi    OBT 1416   3.898   2.631   1.271
   80fsi    SBT 1417   3.645   2.663   1.580
   80fsi    OBT 1418   3.705   2.592   1.690
   80fsi    OBT 1419   3.501   2.660   1.571
   80fsi    FSI 1420   3.676   2.814   1.611
   81fsi    FSI 1421   0.774   0.963   3.008
   81fsi    SBT 1422   0.791   0.828   2.930
   81fsi    NBT 1423   0.928   0.848   2.855
   81fsi    OBT 1424   0.794   0.728   3.033
   81fsi    OBT 1425   0.679   0.827   2.839
   81fsi    SBT 1426   1.074   0.819   2.906
   81fsi    OBT 1427   1.093   0.831   3.048
   81fsi    OBT 1428   1.175   0.879   2.823
   81fsi    FSI 1429   1.091   0.665   2.878
   82fsi    FSI 1430   4.543   1.287   3.547
   82fsi    SBT 1431   4.481   1.367   3.668
   82fsi    NBT 1432   4.548   1.508   3.662
   82fsi    OBT 1433   4.339   1.367   3.645
   82fsi    OBT 1434   4.520   1.293   3.785
   82fsi    SBT 1435   4.504   1.634   3.579
   82fsi    OBT 1436   4.420   1.604   3.466
   82fsi    OBT 1437   4.610   1.729   3.562
   82fsi    FSI 1438   4.406   1.706   3.680
   83fsi    FSI 1439   4.885   0.929   1.393
   83fsi    SBT 1440   4.746   1.001   1.413
   83fsi    NBT 1441   4.788   1.150   1.440
   83fsi    OBT 1442   4.676   0.977   1.290
   83fsi    OBT 1443   4.694   0.937   1.531
   83fsi    SBT 1444   4.815   1.265   1.336
   83fsi    OBT 1445   4.857   1.220   1.206
   83fsi    OBT 1446   4.888   1.375   1.393
   83fsi    FSI 1447   4.672   1.326   1.312
   84fsi    FSI 1448   2.412   5.425   5.526
   84fsi    SBT 1449   2.295   5.332   5.576
   84fsi    NBT 1450   2.351   5.187   5.549
   84fsi    OBT 1451   2.279   5.366   5.715
   84fsi    OBT 1452   2.186   5.365   5.488
   84fsi    SBT 1453   2.444   5.099   5.640
   84fsi    OBT 1454   2.527   5.171   5.732
   84fsi    OBT 1455   2.506   4.992   5.566
   84fsi    FSI 1456   2.341   5.023   5.732
   85fsi    FSI 1457   4.631   4.313   5.420
   85fsi    SBT 1458   4.735   4.226   5.499
   85fsi    NBT 1459   4.864   4.315   5.503
   85fsi    OBT 1460   4.675   4.204   5.628
   85fsi    OBT 1461   4.753   4.109   5.417
   85fsi    SBT 1462   4.902   4.431   5.603
   85fsi    OBT 1463   4.792   4.495   5.669
   85fsi    OBT 1464   5.008   4.515   5.553
   85fsi    FSI 1465   4.974   4.352   5.719
   86fsi    FSI 1466   1.367   2.689   1.671
   86fsi    SBT 1467   1.503   2.682   1.594
   86fsi    NBT 1468   1.500   2.545   1.518
   86fsi    OBT 1469   1.507   2.796   1.508
   86fsi    OBT 1470   1.602   2.673   1.698
   86fsi    SBT 1471   1.413   2.508   1.391
   86fsi    OBT 1472   1.296   2.587   1.372
   86fsi    OBT 1473   1.403   2.365   1.378
   86fsi    FSI 1474   1.510   2.548   1.274
   87fsi    FSI 1475   1.827   2.883   1.638
   87fsi    SBT 1476   1.925   2.851   1.519
   87fsi    NBT 1477   1.834   2.863   1.392
   87fsi    OBT 1478   2.029   2.950   1.530
   87fsi    OBT 1479   1.961   2.714   1.544
   87fsi    SBT 1480   1.783   2.994   1.321
   87fsi    OBT 1481   1.783   3.112   1.402
   87fsi    OBT 1482   1.668   2.968   1.239
   87fsi    FSI 1483   1.896   3.022   1.215
   88fsi    FSI 1484   3.593   1.972   5.028
   88fsi    SBT 1485   3.697   1.895   4.939
   88fsi    NBT 1486   3.709   1.987   4.811
   88fsi    OBT 1487   3.815   1.887   5.020
   88fsi    OBT 1488   3.630   1.771   4.909
   88fsi    SBT 1489   3.796   2.116   4.791
   88fsi    OBT 1490   3.831   2.186   4.912
   88fsi    OBT 1491   3.749   2.195   4.680
   88fsi    FSI 1492   3.933   2.059   4.738
   89fsi    FSI 1493   4.860   4.150   2.513
   89fsi    SBT 1494   4.915   4.029   2.598
   89fsi    NBT 1495   4.792   3.931   2.604
   89fsi    OBT 1496   5.028   3.980   2.523
   89fsi    OBT 1497   4.942   4.087   2.726
   89fsi    SBT 1498   4.746   3.824   2.497
   89fsi    OBT 1499   4.785   3.852   2.362
   89fsi    OBT 1500   4.611   3.782   2.520
   89fsi    FSI 1501   4.831   3.697   2.537
   90fsi    FSI 1502   3.515   0.498   1.165
   90fsi    SBT 1503   3.426   0.400   1.080
   90fsi    NBT 1504   3.280   0.454   1.105
   90fsi    OBT 1505   3.474   0.416   0.946
   90fsi    OBT 1506   3.448   0.272   1.143
   90fsi    SBT 1507   3.201   0.564   1.026
   90fsi    OBT 1508   3.281   0.664   0.962
   90fsi    OBT 1509   3.085   0.609   1.098
   90fsi    FSI 1510   3.139   0.483   0.906
   91fsi    FSI 1511   0.880   4.162   3.299
   91fsi    SBT 1512   0.849   4.100   3.441
   91fsi    NBT 1513   0.740   4.197   3.499
   91fsi    OBT 1514   0.802   3.967   3.411
   91fsi    OBT 1515   0.975   4.111   3.510
   91fsi    SBT 1516   0.584   4.194   3.480
   91fsi    OBT 1517   0.538   4.129   3.361
   91fsi    OBT 1518   0.522   4.319   3.515
   91fsi    FSI 1519   0.538   4.098   3.596
   92fsi    FSI 1520   1.975   2.934   5.372
   92fsi    SBT 1521   2.043   3.052   5.453
   92fsi    NBT 1522   1.958   3.057   5.585
   92fsi    OBT 1523   2.179   3.009   5.469
   92fsi    OBT 1524   2.021   3.166   5.369
   92fsi    SBT 1525   1.973   2.972   5.717
   92fsi    OBT 1526   2.049   2.850   5.702
   92fsi    OBT 1527   1.851   2.965   5.792
   92fsi    FSI 1528   2.065   3.063   5.806
   93fsi    FSI 1529   2.902   5.812   4.216
   93fsi    SBT 1530   3.004   5.807   4.096
   93fsi    NBT 1531   3.137   5.861   4.162
   93fsi    OBT 1532   3.007   5.669   4.057
   93fsi    OBT 1533   2.949   5.901   4.002
   93fsi    SBT 1534   3.243   5.783   4.249
   93fsi    OBT 1535   3.194   5.662   4.309
   93fsi    OBT 1536   3.317   5.872   4.335
   93fsi    FSI 1537   3.349   5.736   4.143
   94fsi    FSI 1538   4.680   1.026   2.766
   94fsi    SBT 1539   4.796   1.116   2.709
   94fsi    NBT 1540   4.899   1.118   2.828
   94fsi    OBT 1541   4.840   1.046   2.591
   94fsi    OBT 1542   4.732   1.243   2.690
   94fsi    SBT 1543   5.011   1.015   2.865
   94fsi    OBT 1544   4.990   0.882   2.817
   94fsi    OBT 1545   5.052   1.028   3.002
   94fsi    FSI 1546   5.136   1.067   2.785
   95fsi    FSI 1547   2.103   3.223   2.942
   95fsi    SBT 1548   2.021   3.088   2.950
   95fsi    NBT 1549   2.134   2.978   2.952
   95fsi    OBT 1550   1.947   3.100   3.073
   95fsi    OBT 1551   1.946   3.086   2.828
   95fsi    SBT 1552   2.200   2.907   3.075
   95fsi    OBT 1553   2.216   2.988   3.193
   95fsi    OBT 1554   2.314   2.827   3.037
   95fsi    FSI 1555   2.093   2.799   3.116
   96fsi    FSI 1556   1.931   3.764   3.845
   96fsi    SBT 1557   1.980   3.912   3.826
   96fsi    NBT 1558   1.846   3.995   3.837
   96fsi    OBT 1559   2.073   3.931   3.933
   96fsi    OBT 1560   2.033   3.911   3.693
   96fsi    SBT 1561   1.769   4.039   3.967
   96fsi    OBT 1562   1.796   3.959   4.083
   96fsi    OBT 1563   1.631   4.072   3.940
   96fsi    FSI 1564   1.833   4.179   3.999
   97fsi    FSI 1565   4.786   4.469   4.934
   97fsi    SBT 1566   4.804   4.529   5.078
   97fsi    NBT 1567   4.676   4.620   5.093
   97fsi    OBT 1568   4.807   4.413   5.163
   97fsi    OBT 1569   4.925   4.605   5.066
   97fsi    SBT 1570   4.528   4.578   5.129
   97fsi    OBT 1571   4.499   4.438   5.111
   97fsi    OBT 1572   4.432   4.672   5.079
   97fsi    FSI 1573   4.522   4.599   5.285
   98fsi    FSI 1574   0.787   5.604   5.739
   98fsi    SBT 1575   0.918   5.543   5.801
   98fsi    NBT 1576   0.945   5.418   5.709
   98fsi    OBT 1577   1.015   5.649   5.790
   98fsi    OBT 1578   0.877   5.505   5.934
   98fsi    SBT 1579   1.017   5.411   5.570
   98fsi    OBT 1580   1.012   5.532   5.493
   98fsi    OBT 1581   0.989   5.288   5.500
   98fsi    FSI 1582   1.169   5.396   5.609
   99fsi    FSI 1583   3.568   1.902   2.007
   99fsi    SBT 1584   3.711   1.909   1.942
   99fsi    NBT 1585   3.790   1.799   2.023
   99fsi    OBT 1586   3.689   1.878   1.804
   99fsi    OBT 1587   3.755   2.042   1.975
   99fsi    SBT 1588   3.792   1.643   2.003
   99fsi    OBT 1589   3.675   1.591   1.937
   99fsi    OBT 1590   3.836   1.575   2.121
   99fsi    FSI 1591   3.909   1.621   1.901
  100fsi    FSI 1592   3.759   1.246   0.834
  100fsi    SBT 1593   3.754   1.396   0.785
  100fsi    NBT 1594   3.668   1.387   0.654
  100fsi    OBT 1595   3.691   1.467   0.893
  100fsi    OBT 1596   3.892   1.426   0.757
  100fsi    SBT 1597   3.512   1.401   0.636
  100fsi    OBT 1598   3.432   1.366   0.750
  100fsi    OBT 1599   3.467   1.353   0.508
  100fsi    FSI 1600   3.493   1.556   0.623
  101fsi    FSI 1601   4.224   0.622   6.016
  101fsi    SBT 1602   4.343   0.718   5.976
  101fsi    NBT 1603   4.367   0.683   5.825
  101fsi    OBT 1604   4.291   0.850   6.000
  101fsi    OBT 1605   4.451   0.674   6.060
  101fsi    SBT 1606   4.301   0.747   5.697
  101fsi    OBT 1607   4.173   0.808   5.717
  101fsi    OBT 1608   4.317   0.664   5.580
  101fsi    FSI 1609   4.396   0.869   5.666
  102fsi    FSI 1610   2.231   1.773   2.513
  102fsi    SBT 1611   2.357   1.685   2.549
  102fsi    NBT 1612   2.303   1.542   2.582
  102fsi    OBT 1613   2.443   1.686   2.434
  102fsi    OBT 1614   2.413   1.744   2.667
  102fsi    SBT 1615   2.239   1.435   2.485
  102fsi    OBT 1616   2.218   1.481   2.351
  102fsi    OBT 1617   2.137   1.356   2.548
  102fsi    FSI 1618   2.359   1.333   2.471
  103fsi    FSI 1619   3.209   5.881   6.255
  103fsi    SBT 1620   3.285   5.837   6.124
  103fsi    NBT 1621   3.272   5.680   6.129
  103fsi    OBT 1622   3.212   5.901   6.018
  103fsi    OBT 1623   3.419   5.882   6.148
  103fsi    SBT 1624   3.153   5.589   6.083
  103fsi    OBT 1625   3.025   5.655   6.077
  103fsi    OBT 1626   3.157   5.459   6.146
  103fsi    FSI 1627   3.188   5.558   5.933
  104fsi    FSI 1628   3.303   6.260   1.330
  104fsi    SBT 1629   3.248   6.133   1.255
  104fsi    NBT 1630   3.335   6.129   1.124
  104fsi    OBT 1631   3.271   6.024   1.346
  104fsi    OBT 1632   3.110   6.167   1.228
  104fsi    SBT 1633   3.478   6.068   1.102
  104fsi    OBT 1634   3.557   6.053   1.221
  104fsi    OBT 1635   3.544   6.122   0.986
  104fsi    FSI 1636   3.447   5.920   1.059
  105fsi    FSI 1637   2.057   4.405   4.542
  105fsi    SBT 1638   2.170   4.341   4.452
  105fsi    NBT 1639   2.111   4.199   4.420
  105fsi    OBT 1640   2.177   4.430   4.339
  105fsi    OBT 1641   2.283   4.335   4.540
  105fsi    SBT 1642   1.998   4.162   4.318
  105fsi    OBT 1643   1.921   4.276   4.272
  105fsi    OBT 1644   1.926   4.045   4.359
  105fsi    FSI 1645   2.079   4.116   4.191
  106fsi    FSI 1646   5.825   3.194   4.586
  106fsi    SBT 1647   5.760   3.051   4.595
  106fsi    NBT 1648   5.609   3.085   4.622
  106fsi    OBT 1649   5.788   2.992   4.467
  106fsi    OBT 1650   5.825   2.994   4.710
  106fsi    SBT 1651   5.493   3.110   4.518
  106fsi    OBT 1652   5.537   3.158   4.389
  106fsi    OBT 1653   5.381   3.179   4.576
  106fsi    FSI 1654   5.438   2.965   4.490
  107fsi    FSI 1655   5.267   2.535   5.676
  107fsi    SBT 1656   5.196   2.402   5.630
  107fsi    NBT 1657   5.316   2.305   5.599
  107fsi    OBT 1658   5.116   2.363   5.743
  107fsi    OBT 1659   5.123   2.441   5.512
  107fsi    SBT 1660   5.399   2.214   5.696
  107fsi    OBT 1661   5.392   2.249   5.835
  107fsi    OBT 1662   5.528   2.177   5.644
  107fsi    FSI 1663   5.319   2.078   5.688
  108fsi    FSI 1664   1.918   5.767   3.634
  108fsi    SBT 1665   1.833   5.890   3.681
  108fsi    NBT 1666   1.738   5.916   3.558
  108fsi    OBT 1667   1.766   5.845   3.800
  108fsi    OBT 1668   1.931   5.994   3.696
  108fsi    SBT 1669   1.602   5.847   3.522
  108fsi    OBT 1670   1.584   5.716   3.578
  108fsi    OBT 1671   1.567   5.865   3.384
  108fsi    FSI 1672   1.496   5.936   3.598
  109fsi    FSI 1673   3.949   1.651   2.806
  109fsi    SBT 1674   4.083   1.567   2.804
  109fsi    NBT 1675   4.032   1.420   2.784
  109fsi    OBT 1676   4.158   1.622   2.695
  109fsi    OBT 1677   4.136   1.588   2.937
  109fsi    SBT 1678   3.984   1.350   2.651
  109fsi    OBT 1679   3.942   1.440   2.547
  109fsi    OBT 1680   3.901   1.235   2.678
  109fsi    FSI 1681   4.117   1.286   2.595
  110fsi    FSI 1682   2.001   5.621   4.311
  110fsi    SBT 1683   1.862   5.572   4.367
  110fsi    NBT 1684   1.834   5.673   4.484
  110fsi    OBT 1685   1.772   5.583   4.256
  110fsi    OBT 1686   1.890   5.439   4.416
  110fsi    SBT 1687   1.755   5.808   4.481
  110fsi    OBT 1688   1.762   5.882   4.358
  110fsi    OBT 1689   1.775   5.885   4.600
  110fsi    FSI 1690   1.605   5.764   4.492
  111fsi    FSI 1691   3.869   5.386   4.348
  111fsi    SBT 1692   3.831   5.458   4.483
  111fsi    NBT 1693   3.851   5.611   4.448
  111fsi    OBT 1694   3.695   5.419   4.506
  111fsi    OBT 1695   3.930   5.410   4.575
  111fsi    SBT 1696   3.748   5.713   4.389
  111fsi    OBT 1697   3.643   5.657   4.309
  111fsi    OBT 1698   3.812   5.832   4.339
  111fsi    FSI 1699   3.673   5.765   4.518
  112fsi    FSI 1700   1.051   1.944   4.498
  112fsi    SBT 1701   0.919   1.978   4.419
  112fsi    NBT 1702   0.974   2.034   4.283
  112fsi    OBT 1703   0.849   1.853   4.410
  112fsi    OBT 1704   0.858   2.081   4.500
  112fsi    SBT 1705   1.016   1.955   4.153
  112fsi    OBT 1706   1.048   1.816   4.174
  112fsi    OBT 1707   1.105   2.030   4.069
  112fsi    FSI 1708   0.882   1.951   4.070
  113fsi    FSI 1709   4.949   5.456   4.709
  113fsi    SBT 1710   5.072   5.361   4.735
  113fsi    NBT 1711   5.193   5.462   4.747
  113fsi    OBT 1712   5.041   5.291   4.856
  113fsi    OBT 1713   5.082   5.284   4.614
  113fsi    SBT 1714   5.242   5.540   4.874
  113fsi    OBT 1715   5.139   5.582   4.964
  113fsi    OBT 1716   5.342   5.638   4.839
  113fsi    FSI 1717   5.324   5.431   4.954
  114fsi    FSI 1718   0.633   3.841   1.857
  114fsi    SBT 1719   0.721   3.824   1.727
  114fsi    NBT 1720   0.760   3.672   1.731
  114fsi    OBT 1721   0.633   3.861   1.620
  114fsi    OBT 1722   0.834   3.908   1.754
  114fsi    SBT 1723   0.681   3.548   1.676
  114fsi    OBT 1724   0.538   3.565   1.668
  114fsi    OBT 1725   0.729   3.424   1.730
  114fsi    FSI 1726   0.727   3.541   1.525
  115fsi    FSI 1727   5.417   2.318   1.410
  115fsi    SBT 1728   5.534   2.250   1.330
  115fsi    NBT 1729   5.510   2.302   1.184
  115fsi    OBT 1730   5.653   2.299   1.394
  115fsi    OBT 1731   5.505   2.110   1.343
  115fsi    SBT 1732   5.554   2.438   1.119
  115fsi    OBT 1733   5.575   2.546   1.212
  115fsi    OBT 1734   5.478   2.468   1.000
  115fsi    FSI 1735   5.698   2.407   1.063
  116fsi    FSI 1736   1.527   1.701   1.019
  116fsi    SBT 1737   1.643   1.596   1.006
  116fsi    NBT 1738   1.691   1.577   1.155
  116fsi    OBT 1739   1.582   1.480   0.948
  116fsi    OBT 1740   1.742   1.664   0.927
  116fsi    SBT 1741   1.631   1.484   1.267
  116fsi    OBT 1742   1.491   1.452   1.252
  116fsi    OBT 1743   1.676   1.522   1.398
  116fsi    FSI 1744   1.704   1.347   1.242
  117fsi    FSI 1745   5.657   5.665   4.923
  117fsi    SBT 1746   5.703   5.807   4.972
  117fsi    NBT 1747   5.837   5.776   5.048
  117fsi    OBT 1748   5.713   5.882   4.849
  117fsi    OBT 1749   5.595   5.846   5.057
  117fsi    SBT 1750   5.981   5.751   4.989
  117fsi    OBT 1751   5.987   5.742   4.846
  117fsi    OBT 1752   6.054   5.652   5.064
  117fsi    FSI 1753   6.055   5.885   5.023
  118fsi    FSI 1754   3.623   1.636   2.929
  118fsi    SBT 1755   3.620   1.480   2.949
  118fsi    NBT 1756   3.733   1.458   3.057
  118fsi    OBT 1757   3.487   1.453   2.995
  118fsi    OBT 1758   3.656   1.430   2.819
  118fsi    SBT 1759   3.721   1.456   3.214
  118fsi    OBT 1760   3.608   1.527   3.268
  118fsi    OBT 1761   3.847   1.475   3.280
  118fsi    FSI 1762   3.688   1.304   3.244
  119fsi    FSI 1763   4.801   5.266   5.176
  119fsi    SBT 1764   4.929   5.178   5.202
  119fsi    NBT 1765   5.045   5.284   5.207
  119fsi    OBT 1766   4.902   5.114   5.328
  119fsi    OBT 1767   4.937   5.093   5.086
  119fsi    SBT 1768   5.107   5.359   5.330
  119fsi    OBT 1769   5.023   5.369   5.446
  119fsi    OBT 1770   5.180   5.477   5.293
  119fsi    FSI 1771   5.221   5.260   5.375
  120fsi    FSI 1772   2.101   4.586   3.823
  120fsi    SBT 1773   2.100   4.435   3.865
  120fsi    NBT 1774   2.254   4.400   3.866
  120fsi    OBT 1775   2.035   4.436   3.994
  120fsi    OBT 1776   2.031   4.372   3.756
  120fsi    SBT 1777   2.360   4.423   3.979
  120fsi    OBT 1778   2.327   4.530   4.070
  120fsi    OBT 1779   2.495   4.420   3.929
  120fsi    FSI 1780   2.350   4.292   4.066
  121fsi    FSI 1781   4.569   0.518   1.793
  121fsi    SBT 1782   4.432   0.444   1.774
  121fsi    NBT 1783   4.431   0.341   1.893
  121fsi    OBT 1784   4.334   0.549   1.782
  121fsi    OBT 1785   4.446   0.379   1.646
  121fsi    SBT 1786   4.386   0.363   2.042
  121fsi    OBT 1787   4.379   0.501   2.084
  121fsi    OBT 1788   4.449   0.270   2.132
  121fsi    FSI 1789   4.236   0.317   2.040
  122fsi    FSI 1790   4.196   5.866   2.778
  122fsi    SBT 1791   4.351   5.835   2.780
  122fsi    NBT 1792   4.357   5.681   2.751
  122fsi    OBT 1793   4.406   5.918   2.676
  122fsi    OBT 1794   4.390   5.867   2.915
  122fsi    SBT 1795   4.356   5.606   2.613
  122fsi    OBT 1796   4.297   5.679   2.504
  122fsi    OBT 1797   4.320   5.467   2.626
  122fsi    FSI 1798   4.509   5.600   2.576
  123fsi    FSI 1799   1.329   3.225   0.289
  123fsi    SBT 1800   1.292   3.077   0.327
  123fsi    NBT 1801   1.149   3.092   0.391
  123fsi    OBT 1802   1.295   3.007   0.201
  123fsi    OBT 1803   1.392   3.041   0.423
  123fsi    SBT 1804   1.009   3.099   0.320
  123fsi    OBT 1805   1.012   3.140   0.182
  123fsi    OBT 1806   0.908   3.159   0.404
  123fsi    FSI 1807   0.965   2.948   0.314
  124fsi    FSI 1808   2.197   1.672   4.585
  124fsi    SBT 1809   2.056   1.650   4.519
  124fsi    NBT 1810   2.078   1.519   4.435
  124fsi    OBT 1811   1.966   1.637   4.631
  124fsi    OBT 1812   2.041   1.766   4.436
  124fsi    SBT 1813   2.072   1.369   4.481
  124fsi    OBT 1814   2.090   1.347   4.622
  124fsi    OBT 1815   2.146   1.284   4.391
  124fsi    FSI 1816   1.922   1.329   4.455
  125fsi    FSI 1817   5.400   3.012   5.120
  125fsi    SBT 1818   5.319   2.891   5.179
  125fsi    NBT 1819   5.226   2.961   5.285
  125fsi    OBT 1820   5.250   2.836   5.065
  125fsi    OBT 1821   5.422   2.811   5.240
  125fsi    SBT 1822   5.084   3.026   5.265
  125fsi    OBT 1823   5.057   3.073   5.132
  125fsi    OBT 1824   5.049   3.115   5.373
  125fsi    FSI 1825   4.986   2.905   5.284
  126fsi    FSI 1826   1.339   2.056   1.261
  126fsi    SBT 1827   1.361   2.043   1.105
  126fsi    NBT 1828   1.320   2.186   1.053
  126fsi    OBT 1829   1.502   2.013   1.094
  126fsi    OBT 1830   1.268   1.941   1.067
  126fsi    SBT 1831   1.409   2.312   1.026
  126fsi    OBT 1832   1.540   2.307   1.086
  126fsi    OBT 1833   1.338   2.435   1.037
  126fsi    FSI 1834   1.441   2.301   0.872
  127fsi    FSI 1835   0.616   2.579   3.757
  127fsi    SBT 1836   0.731   2.486   3.703
  127fsi    NBT 1837   0.844   2.589   3.664
  127fsi    OBT 1838   0.762   2.399   3.813
  127fsi    OBT 1839   0.671   2.424   3.587
  127fsi    SBT 1840   0.950   2.659   3.757
  127fsi    OBT 1841   0.918   2.659   3.897
  127fsi    OBT 1842   0.999   2.782   3.700
  127fsi    FSI 1843   1.074   2.563   3.746
  128fsi    FSI 1844   1.571   5.654   5.486
  128fsi    SBT 1845   1.470   5.744   5.405
  128fsi    NBT 1846   1.459   5.873   5.495
  128fsi    OBT 1847   1.534   5.765   5.278
  128fsi    OBT 1848   1.349   5.667   5.405
  128fsi    SBT 1849   1.550   6.002   5.496
  128fsi    OBT 1850   1.683   5.984   5.444
  128fsi    OBT 1851   1.537   6.077   5.618
  128fsi    FSI 1852   1.480   6.094   5.390
  129fsi    FSI 1853   5.584   4.233   1.610
  129fsi    SBT 1854   5.734   4.241   1.564
  129fsi    NBT 1855   5.767   4.090   1.531
  129fsi    OBT 1856   5.731   4.329   1.450
  129fsi    OBT 1857   5.801   4.288   1.682
  129fsi    SBT 1858   5.742   4.010   1.399
  129fsi    OBT 1859   5.645   4.068   1.310
  129fsi    OBT 1860   5.733   3.868   1.422
  129fsi    FSI 1861   5.879   4.026   1.322
  130fsi    FSI 1862   5.258   2.241   5.314
  130fsi    SBT 1863   5.296   2.277   5.166
  130fsi    NBT 1864   5.341   2.137   5.108
  130fsi    OBT 1865   5.173   2.327   5.109
  130fsi    OBT 1866   5.406   2.368   5.178
  130fsi    SBT 1867   5.259   2.032   5.026
  130fsi    OBT 1868   5.116   2.032   5.049
  130fsi    OBT 1869   5.323   1.904   5.019
  130fsi    FSI 1870   5.273   2.086   4.879
  131fsi    FSI 1871   1.836   5.900   2.018
  131fsi    SBT 1872   1.883   6.039   2.074
  131fsi    NBT 1873   2.034   6.045   2.032
  131fsi    OBT 1874   1.798   6.135   2.007
  131fsi    OBT 1875   1.867   6.026   2.216
  131fsi    SBT 1876   2.098   6.095   1.898
  131fsi    OBT 1877   2.013   6.088   1.782
  131fsi    OBT 1878   2.234   6.050   1.882
  131fsi    FSI 1879   2.115   6.250   1.923
  132fsi    FSI 1880   0.807   5.314   1.641
  132fsi    SBT 1881   0.913   5.225   1.565
  132fsi    NBT 1882   1.049   5.296   1.601
  132fsi    OBT 1883   0.894   5.094   1.620
  132fsi    OBT 1884   0.876   5.245   1.427
  132fsi    SBT 1885   1.139   5.277   1.729
  132fsi    OBT 1886   1.070   5.229   1.845
  132fsi    OBT 1887   1.229   5.388   1.747
  132fsi    FSI 1888   1.235   5.159   1.688
  133fsi    FSI 1889   1.592   2.717   5.725
  133fsi    SBT 1890   1.602   2.570   5.668
  133fsi    NBT 1891   1.584   2.480   5.795
  133fsi    OBT 1892   1.495   2.561   5.572
  133fsi    OBT 1893   1.736   2.563   5.616
  133fsi    SBT 1894   1.451   2.430   5.863
  133fsi    OBT 1895   1.335   2.510   5.837
  133fsi    OBT 1896   1.473   2.385   5.998
  133fsi    FSI 1897   1.422   2.296   5.785
  134fsi    FSI 1898   0.252   1.255   0.703
  134fsi    SBT 1899   0.353   1.360   0.763
  134fsi    NBT 1900   0.484   1.275   0.780
  134fsi    OBT 1901   0.359   1.463   0.662
  134fsi    OBT 1902   0.294   1.395   0.889
  134fsi    SBT 1903   0.595   1.243   0.673
  134fsi    OBT 1904   0.552   1.250   0.536
  134fsi    OBT 1905   0.674   1.128   0.710
  134fsi    FSI 1906   0.696   1.362   0.689
  135fsi    FSI 1907   3.231   5.888   5.105
  135fsi    SBT 1908   3.333   5.774   5.069
  135fsi    NBT 1909   3.243   5.674   4.988
  135fsi    OBT 1910   3.434   5.841   4.991
  135fsi    OBT 1911   3.371   5.722   5.197
  135fsi    SBT 1912   3.214   5.667   4.833
  135fsi    OBT 1913   3.241   5.788   4.759
  135fsi    OBT 1914   3.090   5.599   4.805
  135fsi    FSI 1915   3.323   5.566   4.782
  136fsi    FSI 1916   5.901   2.682   5.563
  136fsi    SBT 1917   5.893   2.525   5.556
  136fsi    NBT 1918   5.738   2.499   5.549
  136fsi    OBT 1919   5.967   2.492   5.437
  136fsi    OBT 1920   5.950   2.484   5.681
  136fsi    SBT 1921   5.643   2.500   5.424
  136fsi    OBT 1922   5.699   2.561   5.306
  136fsi    OBT 1923   5.508   2.536   5.460
  136fsi    FSI 1924   5.633   2.347   5.388
  137fsi    FSI 1925   0.751   1.158   2.789
  137fsi    SBT 1926   0.879   1.241   2.749
  137fsi    NBT 1927   0.829   1.390   2.759
  137fsi    OBT 1928   0.979   1.205   2.846
  137fsi    OBT 1929   0.903   1.203   2.612
  137fsi    SBT 1930   0.828   1.486   2.884
  137fsi    OBT 1931   0.827   1.421   3.012
  137fsi    OBT 1932   0.742   1.599   2.865
  137fsi    FSI 1933   0.972   1.550   2.877
  138fsi    FSI 1934   3.333   5.503   2.357
  138fsi    SBT 1935   3.237   5.379   2.359
  138fsi    NBT 1936   3.094   5.445   2.364
  138fsi    OBT 1937   3.267   5.309   2.237
  138fsi    OBT 1938   3.270   5.313   2.482
  138fsi    SBT 1939   3.006   5.501   2.246
  138fsi    OBT 1940   3.080   5.539   2.129
  138fsi    OBT 1941   2.904   5.590   2.293
  138fsi    FSI 1942   2.925   5.374   2.201
  139fsi    FSI 1943   4.108   4.193   3.737
  139fsi    SBT 1944   4.189   4.074   3.801
  139fsi    NBT 1945   4.305   4.148   3.877
  139fsi    OBT 1946   4.094   4.007   3.885
  139fsi    OBT 1947   4.237   4.002   3.687
  139fsi    SBT 1948   4.301   4.222   4.016
  139fsi    OBT 1949   4.169   4.256   4.062
  139fsi    OBT 1950   4.404   4.322   4.027
  139fsi    FSI 1951   4.349   4.110   4.117
  140fsi    FSI 1952   4.575   6.175   1.028
  140fsi    SBT 1953   4.627   6.041   0.963
  140fsi    NBT 1954   4.780   6.042   0.998
  140fsi    OBT 1955   4.551   5.938   1.028
  140fsi    OBT 1956   4.604   6.062   0.822
  140fsi    SBT 1957   4.852   5.989   1.128
  140fsi    OBT 1958   4.771   5.988   1.246
  140fsi    OBT 1959   4.986   6.040   1.140
  140fsi    FSI 1960   4.875   5.837   1.095
  141fsi    FSI 1961   0.311   0.980   3.321
  141fsi    SBT 1962   0.461   0.953   3.279
  141fsi    NBT 1963   0.494   1.080   3.193
  141fsi    OBT 1964   0.529   0.945   3.406
  141fsi    OBT 1965   0.451   0.833   3.202
  141fsi    SBT 1966   0.543   1.222   3.239
  141fsi    OBT 1967   0.516   1.254   3.377
  141fsi    OBT 1968   0.513   1.324   3.142
  141fsi    FSI 1969   0.700   1.209   3.233
  142fsi    FSI 1970   2.071   1.794   2.888
  142fsi    SBT 1971   2.076   1.640   2.923
  142fsi    NBT 1972   2.217   1.626   2.992
  142fsi    OBT 1973   1.964   1.619   3.009
  142fsi    OBT 1974   2.073   1.578   2.793
  142fsi    SBT 1975   2.253   1.642   3.144
  142fsi    OBT 1976   2.164   1.725   3.221
  142fsi    OBT 1977   2.394   1.664   3.164
  142fsi    FSI 1978   2.230   1.497   3.202
  143fsi    FSI 1979   4.323   5.006   4.350
  143fsi    SBT 1980   4.301   5.136   4.436
  143fsi    NBT 1981   4.448   5.187   4.458
  143fsi    OBT 1982   4.220   5.219   4.352
  143fsi    OBT 1983   4.241   5.085   4.556
  143fsi    SBT 1984   4.535   5.283   4.368
  143fsi    OBT 1985   4.498   5.286   4.229
  143fsi    OBT 1986   4.675   5.274   4.398
  143fsi    FSI 1987   4.496   5.426   4.422
  144fsi    FSI 1988   4.719   5.826   3.472
  144fsi    SBT 1989   4.589   5.738   3.464
  144fsi    NBT 1990   4.645   5.593   3.483
  144fsi    OBT 1991   4.507   5.788   3.571
  144fsi    OBT 1992   4.544   5.762   3.329
  144fsi    SBT 1993   4.682   5.518   3.617
  144fsi    OBT 1994   4.715   5.605   3.726
  144fsi    OBT 1995   4.772   5.408   3.592
  144fsi    FSI 1996   4.547   5.449   3.659
  145fsi    FSI 1997   4.119   4.543   5.490
  145fsi    SBT 1998   4.143   4.421   5.587
  145fsi    NBT 1999   3.999   4.361   5.605
  145fsi    OBT 2000   4.235   4.336   5.517
  145fsi    OBT 2001   4.190   4.484   5.708
  145fsi    SBT 2002   3.925   4.254   5.516
  145fsi    OBT 2003   3.964   4.250   5.378
  145fsi    OBT 2004   3.784   4.247   5.544
  145fsi    FSI 2005   3.979   4.117   5.574
  146fsi    FSI 2006   3.431   0.798   1.811
  146fsi    SBT 2007   3.456   0.649   1.853
  146fsi    NBT 2008   3.543   0.593   1.734
  146fsi    OBT 2009   3.524   0.658   1.979
  146fsi    OBT 2010   3.323   0.593   1.854
  146fsi    SBT 2011   3.698   0.602   1.712
  146fsi    OBT 2012   3.765   0.705   1.787
  146fsi    OBT 2013   3.734   0.589   1.573
  146fsi    FSI 2014   3.751   0.468   1.775
  147fsi    FSI 2015   5.728   2.169   2.515
  147fsi    SBT 2016   5.805   2.301   2.553
  147fsi    NBT 2017   5.924   2.248   2.641
  147fsi    OBT 2018   5.843   2.358   2.427
  147fsi    OBT 2019   5.708   2.373   2.631
  147fsi    SBT 2020   6.063   2.189   2.595
  147fsi    OBT 2021   6.064   2.133   2.462
  147fsi    OBT 2022   6.125   2.112   2.699
  147fsi    FSI 2023   6.154   2.317   2.584
  148fsi    FSI 2024   1.028   4.356   1.502
  148fsi    SBT 2025   1.063   4.258   1.620
  148fsi    NBT 2026   1.172   4.164   1.557
  148fsi    OBT 2027   1.110   4.344   1.725
  148fsi    OBT 2028   0.938   4.190   1.643
  148fsi    SBT 2029   1.327   4.186   1.546
  148fsi    OBT 2030   1.371   4.322   1.549
  148fsi    OBT 2031   1.388   4.099   1.448
  148fsi    FSI 2032   1.380   4.127   1.682
  149fsi    FSI 2033   1.150   4.710   1.219
  149fsi    SBT 2034   1.282   4.633   1.256
  149fsi    NBT 2035   1.343   4.721   1.371
  149fsi    OBT 2036   1.237   4.502   1.295
  149fsi    OBT 2037   1.360   4.641   1.135
  149fsi    SBT 2038   1.306   4.725   1.524
  149fsi    OBT 2039   1.176   4.673   1.556
  149fsi    OBT 2040   1.344   4.850   1.584
  149fsi    FSI 2041   1.406   4.623   1.588
  150fsi    FSI 2042   1.970   3.766   2.330
  150fsi    SBT 2043   2.084   3.807   2.431
  150fsi    NBT 2044   2.089   3.691   2.536
  150fsi    OBT 2045   2.203   3.820   2.351
  150fsi    OBT 2046   2.040   3.931   2.488
  150fsi    SBT 2047   2.178   3.561   2.535
  150fsi    OBT 2048   2.231   3.524   2.407
  150fsi    OBT 2049   2.128   3.457   2.621
  150fsi    FSI 2050   2.305   3.610   2.613
   6.41140   6.41140   6.41140
