L1P2 short trajectory practice
 2050
    1Li+     Li    1   6.000   1.022   2.091 -0.7590  0.0594  1.2151
    2Li+     Li    2   3.589   0.964   3.261  0.1241  0.5172 -0.2269
    3Li+     Li    3   0.010   0.923   3.253 -0.1742  0.0929  1.1844
    4Li+     Li    4   0.611   0.920   3.419  0.3528 -0.3129  0.0697
    5Li+     Li    5   2.650   0.295   2.998 -0.4341  0.2118 -0.0455
    6Li+     Li    6   0.183   0.465   3.782  0.0142 -0.1836  0.7001
    7Li+     Li    7   4.819   0.653   3.804 -0.3845 -0.1903  0.2533
    8Li+     Li    8   4.012   0.569   4.782 -0.6599  0.1724 -0.2865
    9Li+     Li    9   4.322   0.759   4.271  0.2707  0.1875  0.1187
   10Li+     Li   10   2.248   0.469   3.543 -0.9971 -0.5204  0.6286
   11Li+     Li   11   5.502   1.018   1.851  0.0343 -0.5372  0.4425
   12Li+     Li   12   3.610   0.718   1.856 -0.5652  1.2162  0.6286
   13Li+     Li   13   3.071   1.121   3.188  0.2857 -0.1371 -0.2854
   14Li+     Li   14   4.031   0.866   2.862 -0.8426  1.4444  0.4221
   15Li+     Li   15   3.125   0.542   3.370 -0.6907 -0.3896 -0.3363
   16Li+     Li   16   5.743   0.979   2.888  0.4080  0.1266  1.4891
   17Li+     Li   17   4.221   0.849   1.499  0.4263 -0.7533 -0.1316
   18Li+     Li   18   3.777   0.344   4.216 -0.5079 -0.5883  1.0561
   19Li+     Li   19   4.911   0.866   4.371 -0.3855  0.6140 -0.7502
   20Li+     Li   20   3.491   0.707   1.125  0.2067  0.4651  0.2870
   21Li+     Li   21   4.745   0.239   4.222  0.1131 -0.5465 -0.2695
   22Li+     Li   22   3.331   0.694   3.886 -0.2600  0.5674  0.8739
   23Li+     Li   23   4.312   6.077   3.744  0.3053 -0.1450 -0.2591
   24Li+     Li   24   5.535   0.738   2.427  0.3037  1.4185  0.7200
   25Li+     Li   25   3.459   0.082   3.917 -0.8135  0.3353 -0.0327
   26c3c     N4   26   5.856   1.334   3.515  0.1189 -0.2558  0.5029
   26c3c     C1   27   5.805   1.445   3.434 -0.4434  0.2379 -0.8471
   26c3c     C1   28   5.795   1.365   3.642 -0.1136  0.4590  0.3393
   26c3c     C2   29   5.655   1.464   3.470  0.1400  0.5659  0.8004
   26c3c     C2   30   5.648   1.409   3.614  0.2665  0.3147  0.1936
   26c3c     C1   31   5.816   1.198   3.477 -0.3311  0.0598  0.3019
   26c3c     C1   32   6.004   1.324   3.509  0.1488  0.0598  0.0869
   26c3c     H1   33   5.818   1.430   3.326  0.0972 -0.1087 -0.7318
   26c3c     H1   34   5.866   1.531   3.461  1.1996 -0.6432 -1.6747
   26c3c     H1   35   5.790   1.290   3.721  0.4243 -1.3606 -1.3093
   26c3c     H1   36   5.845   1.452   3.684 -0.9505  2.0613 -1.8883
   26c3c     HC   37   5.595   1.392   3.414  0.9907  0.7975 -0.4324
   26c3c     HC   38   5.610   1.562   3.454  0.3672  0.8367  1.7733
   26c3c     HC   39   5.590   1.317   3.617  1.3483 -0.3511  0.8937
   26c3c     HC   40   5.613   1.481   3.688 -0.0725  0.0909  0.2493
   26c3c     H1   41   5.850   1.169   3.377 -0.5214  0.7623  0.0241
   26c3c     H1   42   5.843   1.121   3.549  0.1030 -1.1961 -1.1835
   26c3c     H1   43   5.709   1.182   3.460  0.1533 -3.5029  0.2262
   26c3c     H1   44   6.030   1.234   3.564  0.3498  0.0532 -0.0192
   26c3c     H1   45   6.043   1.303   3.410  0.4641  0.8381  0.0417
   26c3c     C2   46   6.085   1.444   3.564  0.6056 -1.1682 -0.3223
   26c3c     HC   47   6.047   1.490   3.655  0.7365  0.3679 -1.0328
   26c3c     HC   48   6.067   1.523   3.491 -1.3848  0.2822  1.6769
   26c3c     CT   49   6.229   1.412   3.576  0.3504 -0.3415 -0.5962
   26c3c     HC   50   6.259   1.350   3.661 -0.7525 -0.5517 -0.3549
   26c3c     HC   51   6.289   1.502   3.586  0.4056 -0.3534 -0.8126
   26c3c     HC   52   6.266   1.359   3.488  2.4190 -1.6667  1.0044
   27c3c     N4   53   3.358   1.280   2.383  0.1644 -0.4937 -0.5348
   27c3c     C1   54   3.410   1.168   2.471  0.4587 -0.3148 -0.0887
   27c3c     C1   55   3.441   1.386   2.434 -0.2204 -1.5957 -0.0816
   27c3c     C2   56   3.566   1.179   2.487  0.5570 -0.2908 -0.0384
   27c3c     C2   57   3.582   1.329   2.477 -0.1105 -0.2712  0.2486
   27c3c     C1   58   3.395   1.247   2.245  0.5303 -0.5061 -0.2185
   27c3c     C1   59   3.212   1.297   2.399  0.0179 -0.6320  0.4755
   27c3c     H1   60   3.373   1.070   2.444 -0.3631 -0.0667  0.1337
   27c3c     H1   61   3.382   1.180   2.576  0.5171  0.7485 -0.1823
   27c3c     H1   62   3.453   1.459   2.355 -0.1749 -1.8288 -0.2918
   27c3c     H1   63   3.402   1.426   2.528  1.9591 -0.8810  0.5603
   27c3c     HC   64   3.611   1.128   2.402  0.8753 -0.6912  0.3704
   27c3c     HC   65   3.622   1.145   2.574  0.6421 -0.1818 -0.0497
   27c3c     HC   66   3.667   1.348   2.411 -0.6016 -0.8137 -0.5373
   27c3c     HC   67   3.619   1.379   2.567 -0.0852 -1.4770  0.9254
   27c3c     H1   68   3.345   1.155   2.216  2.0489 -0.0444 -4.6866
   27c3c     H1   69   3.366   1.322   2.172 -0.9269 -0.0142  0.8597
   27c3c     H1   70   3.499   1.218   2.225  0.3116 -0.8958 -0.8067
   27c3c     H1   71   3.188   1.381   2.333  0.6895 -0.2124  0.7557
   27c3c     H1   72   3.156   1.215   2.354  0.6733 -0.8592  0.0629
   27c3c     C2   73   3.157   1.319   2.542  0.1200 -0.4603 -0.3357
   27c3c     HC   74   3.204   1.403   2.594 -2.1710 -0.8468  2.4502
   27c3c     HC   75   3.170   1.226   2.597 -0.3011 -1.5495 -2.0502
   27c3c     CT   76   3.014   1.352   2.555  0.3155 -0.7381 -0.4865
   27c3c     HC   77   2.948   1.267   2.532 -0.5819 -0.4202  0.8662
   27c3c     HC   78   2.994   1.440   2.495  2.6232  0.9373  1.1679
   27c3c     HC   79   3.002   1.381   2.659 -0.6423  0.6721 -0.9766
   28c3c     N4   80   4.439   1.200   2.867 -0.3617  0.0446 -0.3764
   28c3c     C1   81   4.528   1.252   2.762  0.6337 -0.2458 -0.0575
   28c3c     C1   82   4.408   1.321   2.954  0.1715 -0.5102  0.1088
   28c3c     C2   83   4.471   1.393   2.723 -0.8227  0.2299 -0.7005
   28c3c     C2   84   4.392   1.433   2.854  0.6715  0.6880  0.2365
   28c3c     C1   85   4.316   1.151   2.802 -0.1045 -0.1548 -0.1041
   28c3c     C1   86   4.497   1.077   2.931  0.2733 -0.2810 -0.0084
   28c3c     H1   87   4.523   1.188   2.674 -0.5084  0.1888 -0.3143
   28c3c     H1   88   4.629   1.260   2.802 -0.8426  0.0859  3.8424
   28c3c     H1   89   4.319   1.308   3.016 -1.0854  0.9370 -1.3286
   28c3c     H1   90   4.488   1.335   3.026 -0.2465  1.5763  0.1907
   28c3c     HC   91   4.401   1.395   2.639  0.8739  0.7050 -2.1436
   28c3c     HC   92   4.548   1.465   2.693 -2.0409  0.9258 -2.2293
   28c3c     HC   93   4.287   1.456   2.834  0.0209  0.5324  3.2662
   28c3c     HC   94   4.434   1.527   2.888  0.6180 -0.1856  2.7812
   28c3c     H1   95   4.319   1.050   2.762  1.8294 -1.3254  2.7767
   28c3c     H1   96   4.241   1.150   2.882  0.0964  2.6211  0.1955
   28c3c     H1   97   4.284   1.222   2.726 -0.0753 -0.5810 -0.5107
   28c3c     H1   98   4.428   1.043   3.008 -0.2798  1.2913  0.2261
   28c3c     H1   99   4.502   1.001   2.854  2.7981 -0.5741  0.3983
   28c3c     C2  100   4.643   1.087   2.987  0.7678  0.1277 -0.6480
   28c3c     HC  101   4.634   1.154   3.073 -0.8787 -0.1416 -0.5988
   28c3c     HC  102   4.718   1.122   2.917 -1.1763  1.1529 -2.2613
   28c3c     CT  103   4.704   0.963   3.044 -0.6051 -0.4069  0.7372
   28c3c     HC  104   4.719   0.884   2.970  0.2368  0.9032 -0.5070
   28c3c     HC  105   4.636   0.932   3.124 -2.0751  0.2078 -0.2544
   28c3c     HC  106   4.807   0.984   3.071 -0.2132 -2.2026  0.7024
   29c3c     N4  107   5.216   1.300   3.863  0.1784  0.1860 -0.3041
   29c3c     C1  108   5.237   1.242   3.732 -0.5339  0.6361 -0.5838
   29c3c     C1  109   5.180   1.186   3.945  0.4351 -0.1412 -0.1687
   29c3c     C2  110   5.299   1.108   3.753 -0.2648  0.3271 -0.7427
   29c3c     C2  111   5.227   1.055   3.879 -0.2421 -0.1823 -0.5045
   29c3c     C1  112   5.343   1.358   3.911  0.5101 -0.1968 -0.0491
   29c3c     C1  113   5.119   1.412   3.868  0.4299  0.0032 -0.8794
   29c3c     H1  114   5.293   1.292   3.653 -2.0435 -0.5847 -2.4772
   29c3c     H1  115   5.145   1.231   3.675 -1.5958  0.3081  1.1749
   29c3c     H1  116   5.215   1.199   4.047  0.7998 -3.1656  0.1209
   29c3c     H1  117   5.073   1.179   3.965  0.3523 -0.4524 -0.7176
   29c3c     HC  118   5.407   1.104   3.767 -0.1481 -1.4223 -2.0066
   29c3c     HC  119   5.284   1.045   3.666  2.7364  1.6106 -2.2336
   29c3c     HC  120   5.301   1.004   3.942 -1.9165 -1.1228  0.7717
   29c3c     HC  121   5.152   0.989   3.835  1.2191 -1.7637 -0.6972
   29c3c     H1  122   5.378   1.439   3.847 -0.8556  1.0955  0.7851
   29c3c     H1  123   5.332   1.391   4.015 -0.1772 -1.0063  0.1448
   29c3c     H1  124   5.419   1.281   3.914 -0.1704 -0.8482  1.7908
   29c3c     H1  125   5.120   1.441   3.973 -2.9137 -2.3761 -0.1073
   29c3c     H1  126   5.169   1.501   3.830  0.5282  0.8080  1.0741
   29c3c     C2  127   4.981   1.394   3.792 -0.3495 -0.4740 -0.7914
   29c3c     HC  128   4.946   1.296   3.824  2.1819 -1.3766 -0.6056
   29c3c     HC  129   4.982   1.382   3.683 -3.9482 -1.2015 -0.7820
   29c3c     CT  130   4.872   1.507   3.827 -0.0736  0.3803 -0.4811
   29c3c     HC  131   4.792   1.478   3.759 -0.1332 -1.1308  0.2157
   29c3c     HC  132   4.904   1.610   3.810 -0.9597  0.8584  0.7530
   29c3c     HC  133   4.832   1.502   3.928 -1.0233  1.9917 -0.7669
   30c3c     N4  134   3.844   0.649   5.586 -0.4398  0.3321  0.0824
   30c3c     C1  135   3.899   0.511   5.563 -0.3375  0.3152  0.2536
   30c3c     C1  136   3.938   0.716   5.677 -0.2847 -0.1797  0.0564
   30c3c     C2  137   4.049   0.525   5.564  0.2320  0.4544 -0.5114
   30c3c     C2  138   4.075   0.655   5.639 -0.2520 -0.1150  0.0246
   30c3c     C1  139   3.847   0.722   5.459 -0.0689 -0.7908  0.2772
   30c3c     C1  140   3.703   0.651   5.636 -0.0770 -0.7613 -0.0560
   30c3c     H1  141   3.859   0.446   5.485  2.0122 -0.3565 -0.4358
   30c3c     H1  142   3.873   0.451   5.651 -0.0760 -1.5929 -0.9461
   30c3c     H1  143   3.931   0.824   5.666  2.4438  0.0824  0.5760
   30c3c     H1  144   3.925   0.685   5.780  1.6508 -1.7845 -0.1501
   30c3c     HC  145   4.071   0.526   5.457 -1.9359  0.0597 -0.9894
   30c3c     HC  146   4.096   0.438   5.611 -1.0034 -0.7242 -1.4108
   30c3c     HC  147   4.149   0.718   5.589 -0.0765 -0.5623 -0.2858
   30c3c     HC  148   4.133   0.626   5.727  0.6302  1.3426 -0.0646
   30c3c     H1  149   3.778   0.669   5.393  1.9299 -2.7041 -0.3226
   30c3c     H1  150   3.818   0.827   5.464 -2.0136 -1.1745 -1.8776
   30c3c     H1  151   3.947   0.709   5.417  0.6661  0.5310  1.5767
   30c3c     H1  152   3.675   0.756   5.626  1.1575 -0.2494  1.5478
   30c3c     H1  153   3.636   0.604   5.565 -1.5223  0.3295  0.5564
   30c3c     C2  154   3.672   0.587   5.764  0.1230 -0.0315  0.1453
   30c3c     HC  155   3.730   0.611   5.853  0.3715  1.2046 -0.3458
   30c3c     HC  156   3.694   0.481   5.753 -0.3334 -0.1228  0.1012
   30c3c     CT  157   3.520   0.604   5.815 -0.1328  0.0505  0.0482
   30c3c     HC  158   3.507   0.695   5.874  1.9084 -0.5541  1.4456
   30c3c     HC  159   3.499   0.527   5.889 -1.4013 -2.3603 -2.7171
   30c3c     HC  160   3.447   0.596   5.734  0.3468 -3.3463 -0.1012
   31c3c     N4  161   3.857   0.575   0.357  0.3710 -0.1505 -0.5617
   31c3c     C1  162   3.723   0.592   0.400  0.5347 -0.0385  0.6381
   31c3c     C1  163   3.852   0.573   0.214  0.0501 -0.3187 -0.6323
   31c3c     C2  164   3.668   0.690   0.299  0.6260 -0.2631 -0.0847
   31c3c     C2  165   3.749   0.679   0.172  0.0437 -0.0242  0.4365
   31c3c     C1  166   3.927   0.700   0.402  0.6113  0.8339 -0.2726
   31c3c     C1  167   3.939   0.465   0.420 -0.0102  0.3341  0.1106
   31c3c     H1  168   3.704   0.622   0.503 -2.5170 -1.6824  0.6204
   31c3c     H1  169   3.673   0.495   0.404 -1.1370  0.7394 -0.7593
   31c3c     H1  170   3.948   0.586   0.164  0.6340  2.4525  1.1269
   31c3c     H1  171   3.820   0.475   0.177 -0.2975 -0.5170  0.1695
   31c3c     HC  172   3.669   0.793   0.335  0.1774 -0.1934 -0.2661
   31c3c     HC  173   3.565   0.670   0.269  0.0015 -1.4370  2.7155
   31c3c     HC  174   3.786   0.775   0.136 -1.0206  0.4642  0.6356
   31c3c     HC  175   3.688   0.639   0.092 -0.0274  1.0929 -0.0685
   31c3c     H1  176   3.938   0.694   0.510  2.1309  1.1159 -0.3980
   31c3c     H1  177   4.029   0.692   0.362  1.1209  2.2637  0.6949
   31c3c     H1  178   3.886   0.797   0.377  0.7633  0.8237 -0.5676
   31c3c     H1  179   4.047   0.479   0.411 -0.0097 -0.6379 -1.8427
   31c3c     H1  180   3.909   0.454   0.524 -0.8531  0.7170 -0.0884
   31c3c     C2  181   3.904   0.319   0.369  0.3135 -0.6235  0.7184
   31c3c     HC  182   3.925   0.310   0.263 -0.1739 -0.5214  0.6101
   31c3c     HC  183   3.797   0.296   0.373  0.3003 -0.4089  1.8911
   31c3c     CT  184   4.000   0.216   0.431  0.1701  0.0320 -0.1141
   31c3c     HC  185   3.993   0.231   0.539 -0.8576  0.4949 -0.2417
   31c3c     HC  186   4.102   0.241   0.404 -0.5268  0.4079 -2.4547
   31c3c     HC  187   3.979   0.112   0.406 -2.7143  0.7931 -1.0226
   32c3c     N4  188   4.757   1.197   1.945 -0.5413 -0.2483 -0.1221
   32c3c     C1  189   4.835   1.151   1.832 -0.0272  0.1944  0.2078
   32c3c     C1  190   4.672   1.075   1.957 -0.0667  0.1692  0.3082
   32c3c     C2  191   4.868   1.005   1.847  0.6209 -0.2868 -0.5161
   32c3c     C2  192   4.767   0.956   1.955 -0.0320  0.2807 -0.1320
   32c3c     C1  193   4.844   1.207   2.062  0.7159 -0.2359  0.1537
   32c3c     C1  194   4.686   1.327   1.932  0.4031 -0.0283  0.4087
   32c3c     H1  195   4.925   1.210   1.813 -0.2869  0.4472 -0.2410
   32c3c     H1  196   4.785   1.166   1.736  1.3318 -0.3862 -0.6118
   32c3c     H1  197   4.598   1.057   2.036  0.2027 -3.4089 -0.2162
   32c3c     H1  198   4.605   1.060   1.873  2.3075 -0.9322 -1.4296
   32c3c     HC  199   4.972   0.994   1.880  0.2021 -0.1343  0.8888
   32c3c     HC  200   4.861   0.939   1.761 -1.3067  0.3692 -0.8722
   32c3c     HC  201   4.821   0.923   2.044 -0.7336  0.0361  0.2060
   32c3c     HC  202   4.705   0.872   1.924 -0.7181  0.9917 -0.6969
   32c3c     H1  203   4.891   1.305   2.067 -0.0272  0.0899  0.9418
   32c3c     H1  204   4.781   1.213   2.151 -0.0914 -1.6010 -0.3151
   32c3c     H1  205   4.919   1.128   2.068  1.8418  0.6441 -1.7004
   32c3c     H1  206   4.629   1.322   2.025  0.5005  0.4612  0.4965
   32c3c     H1  207   4.754   1.412   1.939  0.2435  0.2066 -0.7520
   32c3c     C2  208   4.595   1.343   1.806  0.0724  0.5046  0.3446
   32c3c     HC  209   4.531   1.256   1.792  0.6852 -0.5466  3.7897
   32c3c     HC  210   4.665   1.348   1.722  1.5139 -0.9491  1.4174
   32c3c     CT  211   4.499   1.466   1.805  0.5311 -0.3342 -0.2004
   32c3c     HC  212   4.450   1.484   1.710 -1.3877  1.3062  1.0530
   32c3c     HC  213   4.564   1.545   1.843  0.0521  0.2425 -0.5860
   32c3c     HC  214   4.421   1.464   1.881 -0.3500  1.1894 -1.0439
   33c3c     N4  215   3.708   0.298   2.516  0.7463  0.1115 -0.3417
   33c3c     C1  216   3.823   0.199   2.485  0.4294 -0.2574 -0.5356
   33c3c     C1  217   3.631   0.299   2.392  0.5374  0.2919  0.5574
   33c3c     C2  218   3.750   0.087   2.408  0.0485 -0.0772  0.0275
   33c3c     C2  219   3.625   0.155   2.347  0.0733  0.3822  0.0002
   33c3c     C1  220   3.620   0.250   2.620  0.2386  0.2745  0.1095
   33c3c     C1  221   3.762   0.426   2.560 -0.3827 -0.0544  0.6986
   33c3c     H1  222   3.868   0.166   2.579 -0.2934  0.7702  0.1781
   33c3c     H1  223   3.895   0.246   2.418 -0.2007  0.8104 -0.4732
   33c3c     H1  224   3.541   0.357   2.415  1.7261  1.4833  2.3523
   33c3c     H1  225   3.689   0.356   2.320 -0.7869  0.5131 -0.3517
   33c3c     HC  226   3.716   0.011   2.478  0.4950  0.2120  0.5681
   33c3c     HC  227   3.812   0.031   2.338  0.0091  1.1440 -1.0027
   33c3c     HC  228   3.533   0.108   2.384 -0.3305  1.3840  0.2721
   33c3c     HC  229   3.617   0.149   2.238 -0.2938  3.7871 -0.2123
   33c3c     H1  230   3.673   0.248   2.716  0.2748  0.4239  0.0937
   33c3c     H1  231   3.543   0.327   2.626  0.4724  0.6063 -1.0655
   33c3c     H1  232   3.566   0.159   2.596 -0.7812  0.1693  2.6023
   33c3c     H1  233   3.684   0.489   2.602  1.1207  1.7647  0.7918
   33c3c     H1  234   3.829   0.414   2.644 -1.0784 -0.2270  1.2314
   33c3c     C2  235   3.831   0.523   2.465  0.2284 -0.2829 -0.0814
   33c3c     HC  236   3.770   0.530   2.374  1.4842 -0.4128 -0.9432
   33c3c     HC  237   3.919   0.477   2.421  1.5816  1.6840  0.4794
   33c3c     CT  238   3.883   0.657   2.525  0.5023 -0.1694 -0.6546
   33c3c     HC  239   3.956   0.628   2.600  1.4957  1.9304 -0.8078
   33c3c     HC  240   3.802   0.711   2.574  0.1174 -0.5899 -0.8202
   33c3c     HC  241   3.928   0.734   2.463  0.0789  0.9392  0.4010
   34c3c     N4  242   5.285   1.449   2.363 -0.6882 -0.0748 -0.1277
   34c3c     C1  243   5.313   1.478   2.507  0.2202  0.1955  0.3772
   34c3c     C1  244   5.355   1.561   2.289  0.0603 -0.0829  1.0614
   34c3c     C2  245   5.460   1.533   2.511 -0.1294  0.3278  0.4947
   34c3c     C2  246   5.479   1.591   2.371  0.2997  0.4098 -0.0203
   34c3c     C1  247   5.346   1.315   2.332 -0.2373  0.5321  0.2861
   34c3c     C1  248   5.143   1.440   2.323  0.0083 -0.1197  0.3336
   34c3c     H1  249   5.316   1.390   2.571  2.3089 -1.5037 -1.9881
   34c3c     H1  250   5.249   1.558   2.545  1.3317 -0.0315  2.8270
   34c3c     H1  251   5.386   1.528   2.190  1.9320 -1.2502  2.0095
   34c3c     H1  252   5.305   1.656   2.274  1.9831  0.8320  0.2824
   34c3c     HC  253   5.541   1.462   2.529 -0.7120  0.2341  2.8995
   34c3c     HC  254   5.481   1.615   2.580  0.0211 -0.1006  0.9609
   34c3c     HC  255   5.572   1.552   2.330 -1.5993 -3.8333 -0.5467
   34c3c     HC  256   5.501   1.698   2.383  0.2208  0.3714  0.4917
   34c3c     H1  257   5.304   1.235   2.393  2.7282 -1.7742 -0.6161
   34c3c     H1  258   5.331   1.274   2.231 -3.1950 -1.4611  1.4633
   34c3c     H1  259   5.453   1.314   2.347 -0.3027  0.9355  0.7829
   34c3c     H1  260   5.131   1.389   2.228  2.4510  2.3857 -1.3684
   34c3c     H1  261   5.105   1.365   2.393  0.6008 -1.5435 -0.8507
   34c3c     C2  262   5.064   1.565   2.338 -0.3325 -0.9497 -0.4990
   34c3c     HC  263   5.099   1.647   2.276 -0.2662 -1.1880 -0.7783
   34c3c     HC  264   5.062   1.602   2.441 -2.0818 -2.5685  0.0792
   34c3c     CT  265   4.918   1.548   2.307  0.0309  0.0299  0.0786
   34c3c     HC  266   4.884   1.651   2.293  1.9101  0.3605 -2.5443
   34c3c     HC  267   4.866   1.508   2.394 -0.5053 -1.8580 -1.0797
   34c3c     HC  268   4.890   1.479   2.227  1.0787  1.0621 -1.2025
   35c3c     N4  269   5.176   6.079   3.737  0.4312 -0.3325  0.2065
   35c3c     C1  270   5.132   6.105   3.872  0.6215 -0.0415 -0.7395
   35c3c     C1  271   5.272   5.975   3.753  0.2773  0.8734  0.4819
   35c3c     C2  272   5.141   5.966   3.939  0.2522  0.0221  0.0901
   35c3c     C2  273   5.204   5.870   3.843 -0.3122 -0.0455  0.0634
   35c3c     C1  274   5.054   6.031   3.669 -0.3658 -0.4649  0.2589
   35c3c     C1  275   5.217   6.202   3.661 -0.3898  0.3285  0.3363
   35c3c     H1  276   5.043   6.167   3.875  0.6823  0.0138  0.0409
   35c3c     H1  277   5.215   6.158   3.919  0.8804  0.3071 -1.5790
   35c3c     H1  278   5.299   5.927   3.659 -1.6943 -0.5366  0.5817
   35c3c     H1  279   5.373   6.001   3.786  0.2737  1.1077  0.3087
   35c3c     HC  280   5.038   5.931   3.938  0.5797 -0.9779  0.8081
   35c3c     HC  281   5.174   5.966   4.043  2.1064 -0.0458 -0.4740
   35c3c     HC  282   5.138   5.799   3.793  1.9630 -0.1943 -2.8769
   35c3c     HC  283   5.281   5.814   3.896  0.7080  1.5297  0.2927
   35c3c     H1  284   4.975   6.106   3.661 -1.0033 -0.9911  1.5927
   35c3c     H1  285   5.079   5.990   3.570 -0.8497 -1.0579  0.3804
   35c3c     H1  286   5.001   5.950   3.719  1.5150 -0.2225  2.7350
   35c3c     H1  287   5.217   6.184   3.553  2.1737  1.4486  0.1155
   35c3c     H1  288   5.151   6.288   3.673 -2.8929 -1.4288 -0.2192
   35c3c     C2  289   5.360   6.248   3.690 -0.3376  0.2127  0.0130
   35c3c     HC  290   5.439   6.176   3.667  0.8264  0.5047  2.9830
   35c3c     HC  291   5.361   6.254   3.799 -0.2569  2.4036 -0.0954
   35c3c     CT  292   5.389   6.384   3.626 -0.1053 -0.4357  1.0447
   35c3c     HC  293   5.491   6.418   3.649 -0.4166  0.9226  0.4354
   35c3c     HC  294   5.313   6.458   3.650 -0.1120 -0.1773  0.2289
   35c3c     HC  295   5.375   6.375   3.519  1.1286 -0.7534  0.8934
   36c3c     N4  296   4.253   6.128   4.379  0.0507  0.5120  0.5364
   36c3c     C1  297   4.211   6.162   4.239 -0.2530 -0.5187 -0.4852
   36c3c     C1  298   4.283   6.258   4.438 -0.5844  0.7087  0.0907
   36c3c     C2  299   4.128   6.290   4.256 -0.1531 -0.1638 -0.0889
   36c3c     C2  300   4.190   6.365   4.371  0.4920  0.0778  0.5521
   36c3c     C1  301   4.137   6.076   4.452 -0.2803 -0.7307 -0.0409
   36c3c     C1  302   4.361   6.030   4.401 -0.2241  0.2109 -0.0577
   36c3c     H1  303   4.160   6.083   4.184 -1.2164  0.8954 -1.6545
   36c3c     H1  304   4.298   6.189   4.179 -0.6653  1.0680 -0.3812
   36c3c     H1  305   4.286   6.261   4.547 -0.9968 -1.1427  0.1765
   36c3c     H1  306   4.388   6.285   4.423 -0.7614  0.7916 -1.0528
   36c3c     HC  307   4.028   6.255   4.281 -0.8607  0.9990 -1.1963
   36c3c     HC  308   4.116   6.348   4.164  0.4390  1.5392  0.8814
   36c3c     HC  309   4.118   6.416   4.436  0.7454  4.0415 -2.0816
   36c3c     HC  310   4.242   6.448   4.324  0.1140  0.5823  1.0168
   36c3c     H1  311   4.111   5.977   4.414  1.0850 -1.1929  0.2242
   36c3c     H1  312   4.159   6.059   4.557  0.4666  0.5372  0.0126
   36c3c     H1  313   4.045   6.135   4.450  1.5245  2.2112  1.1571
   36c3c     H1  314   4.390   6.029   4.506  1.7284 -2.7843 -0.5508
   36c3c     H1  315   4.316   5.933   4.376 -3.3411  1.0095  2.1679
   36c3c     C2  316   4.478   6.052   4.306 -0.3209  0.2652  0.1434
   36c3c     HC  317   4.523   6.151   4.313 -0.4804  0.2347  1.7161
   36c3c     HC  318   4.465   6.040   4.198  0.7832 -0.3046  0.0635
   36c3c     CT  319   4.570   5.928   4.331 -0.1385 -0.3927  1.0086
   36c3c     HC  320   4.526   5.829   4.337  1.3202 -1.0029  1.8562
   36c3c     HC  321   4.622   5.946   4.425  0.8249 -1.0776  0.6082
   36c3c     HC  322   4.644   5.917   4.252 -2.0195  2.4497 -1.2926
   37c3c     N4  323   3.220   0.715   2.824 -0.1241 -0.0040 -0.5116
   37c3c     C1  324   3.307   0.790   2.731 -0.3810 -0.2548 -0.1573
   37c3c     C1  325   3.229   0.794   2.947  0.6948  0.5575  0.7225
   37c3c     C2  326   3.273   0.931   2.744 -0.0601 -0.3647  0.0357
   37c3c     C2  327   3.239   0.942   2.892 -0.7692 -0.4090  0.7020
   37c3c     C1  328   3.083   0.716   2.765 -0.0251  0.1054  0.0337
   37c3c     C1  329   3.254   0.571   2.844 -0.2195 -0.3036  0.4148
   37c3c     H1  330   3.315   0.752   2.629 -1.6409 -0.6797 -0.1045
   37c3c     H1  331   3.411   0.781   2.764 -0.3395 -2.7708 -0.8238
   37c3c     H1  332   3.136   0.775   3.002  0.6498 -1.4843 -0.0177
   37c3c     H1  333   3.316   0.771   3.008  3.0983  0.6047 -2.5566
   37c3c     HC  334   3.179   0.946   2.692  0.6079 -3.4887 -2.2418
   37c3c     HC  335   3.350   0.997   2.704 -1.1155  0.2840 -0.9222
   37c3c     HC  336   3.154   1.006   2.912 -0.3837  0.5703 -0.7020
   37c3c     HC  337   3.331   0.991   2.926 -0.5688 -1.5973  1.9545
   37c3c     H1  338   3.089   0.663   2.669 -0.0065  1.1508 -0.5565
   37c3c     H1  339   3.029   0.635   2.814  0.4675 -0.7470 -0.7977
   37c3c     H1  340   3.023   0.804   2.745 -2.4500 -1.1043  1.8149
   37c3c     H1  341   3.193   0.518   2.917  1.1454 -1.2960  0.8775
   37c3c     H1  342   3.215   0.518   2.758 -1.1622  1.7519 -0.4695
   37c3c     C2  343   3.402   0.534   2.882 -0.2798 -0.5371 -0.1162
   37c3c     HC  344   3.446   0.587   2.966 -0.8915  0.8765 -0.6816
   37c3c     HC  345   3.472   0.556   2.801  0.4341 -0.1847  0.5935
   37c3c     CT  346   3.411   0.382   2.907  0.1765  0.1767  0.2355
   37c3c     HC  347   3.346   0.341   2.984 -0.9601 -0.3757 -0.9969
   37c3c     HC  348   3.518   0.365   2.924  0.1833 -1.0955 -0.9353
   37c3c     HC  349   3.395   0.318   2.820 -2.3184  0.8062  0.2175
   38c3c     N4  350   5.912   0.323   3.339  0.5006 -0.8874  0.1827
   38c3c     C1  351   5.800   0.301   3.430 -0.2706 -0.0955  0.4491
   38c3c     C1  352   5.862   0.270   3.211  0.8555 -0.4240  0.5542
   38c3c     C2  353   5.680   0.329   3.349 -0.6775  0.4030 -0.5351
   38c3c     C2  354   5.705   0.295   3.205 -0.0998 -0.2599  0.5052
   38c3c     C1  355   5.938   0.469   3.325  0.6733 -0.0254 -0.5310
   38c3c     C1  356   6.035   0.261   3.385 -0.2110  0.3636  0.8058
   38c3c     H1  357   5.798   0.362   3.520  0.4219  1.8572 -0.8287
   38c3c     H1  358   5.808   0.194   3.447  1.9344 -0.2156 -1.1746
   38c3c     H1  359   5.919   0.304   3.124 -0.9458 -0.1065 -0.5288
   38c3c     H1  360   5.874   0.162   3.218  1.0203 -0.5636 -1.5885
   38c3c     HC  361   5.663   0.437   3.350 -1.7801  0.2613 -1.9041
   38c3c     HC  362   5.587   0.282   3.381  0.3478 -2.0260 -1.0296
   38c3c     HC  363   5.669   0.383   3.152  1.0359 -0.2656 -0.3016
   38c3c     HC  364   5.651   0.207   3.171  0.9103 -0.5403 -0.4138
   38c3c     H1  365   6.029   0.509   3.282  1.1005  2.0614  2.1711
   38c3c     H1  366   5.857   0.524   3.277  2.7130  1.4343 -2.3791
   38c3c     H1  367   5.959   0.517   3.421  0.2771 -3.2150  1.2481
   38c3c     H1  368   6.111   0.308   3.322  0.6139 -0.1185  1.4250
   38c3c     H1  369   6.054   0.290   3.489 -0.3229 -1.9657  1.4925
   38c3c     C2  370   6.058   0.110   3.376  0.2487  0.3992 -0.7268
   38c3c     HC  371   6.058   0.080   3.271 -1.3876 -2.7262  0.1222
   38c3c     HC  372   5.977   0.052   3.418  0.7445  1.3882  1.6876
   38c3c     CT  373   6.189   0.065   3.440  0.4442  0.4307 -0.2962
   38c3c     HC  374   6.262   0.093   3.364 -0.2213  2.4377 -0.2391
   38c3c     HC  375   6.201  -0.042   3.456 -1.7479  0.2493  0.2811
   38c3c     HC  376   6.198   0.121   3.533  1.0538  1.2917 -0.8612
   39c3c     N4  377   3.995   1.232   2.051 -0.4601  0.3669  0.5870
   39c3c     C1  378   4.121   1.157   2.075  0.6326  0.0645 -0.1338
   39c3c     C1  379   3.960   1.178   1.919 -0.0747  0.2503  0.0793
   39c3c     C2  380   4.099   1.017   2.026 -0.3784  0.1207 -0.1384
   39c3c     C2  381   3.990   1.035   1.920 -0.1101  0.5889  0.2201
   39c3c     C1  382   3.897   1.199   2.154 -0.1815  0.2064 -0.0535
   39c3c     C1  383   4.010   1.378   2.056  0.5202  0.7387  0.3145
   39c3c     H1  384   4.155   1.162   2.178  0.4806  0.9695 -0.1275
   39c3c     H1  385   4.208   1.199   2.024  0.3491  1.2426  0.3342
   39c3c     H1  386   3.855   1.202   1.901  0.8191  2.4323 -2.4100
   39c3c     H1  387   4.014   1.225   1.837  0.2688 -0.9904 -0.4113
   39c3c     HC  388   4.063   0.948   2.103  0.8932  0.7109  1.0063
   39c3c     HC  389   4.189   0.973   1.982 -1.2501 -0.4141 -1.4155
   39c3c     HC  390   3.899   0.976   1.939 -0.2970  1.3037  1.6367
   39c3c     HC  391   4.036   1.012   1.824  0.6832 -0.0369  0.7447
   39c3c     H1  392   3.937   1.232   2.250  1.6726 -2.1616  0.0400
   39c3c     H1  393   3.804   1.255   2.144  0.7508  1.4465 -1.9847
   39c3c     H1  394   3.871   1.094   2.167 -0.1869  0.2742  0.5000
   39c3c     H1  395   3.911   1.424   2.059  0.7002  1.1836 -0.4402
   39c3c     H1  396   4.052   1.384   2.156  0.9170 -2.4041  0.3830
   39c3c     C2  397   4.112   1.452   1.959  0.9001 -0.0700  0.0264
   39c3c     HC  398   4.100   1.432   1.852  0.5116 -0.3276  0.1204
   39c3c     HC  399   4.212   1.411   1.976  0.7444 -0.9063 -1.0082
   39c3c     CT  400   4.095   1.600   1.972 -0.0136 -0.0642 -0.2709
   39c3c     HC  401   4.075   1.633   2.074 -0.1452  1.1922 -0.7042
   39c3c     HC  402   4.012   1.634   1.910 -0.4191 -1.5346 -0.5587
   39c3c     HC  403   4.188   1.651   1.946 -0.2774  0.1294 -0.8344
   40c3c     N4  404   3.020   0.018   2.647  0.6419  0.1888 -0.2122
   40c3c     C1  405   3.099   0.125   2.708 -0.2615  0.5964 -0.0128
   40c3c     C1  406   3.044  -0.092   2.744  0.0216  0.0969 -0.1158
   40c3c     C2  407   3.078   0.122   2.856  0.0710  0.4562 -0.2260
   40c3c     C2  408   3.045  -0.027   2.890 -0.2326  0.5627 -1.3723
   40c3c     C1  409   2.876   0.067   2.650 -0.1080  0.0197 -0.5697
   40c3c     C1  410   3.052  -0.013   2.505  0.1245 -0.8731  0.8313
   40c3c     H1  411   3.078   0.228   2.682 -0.5177  0.4672 -0.3105
   40c3c     H1  412   3.205   0.122   2.683 -0.3265 -1.7915 -0.1265
   40c3c     H1  413   2.976  -0.178   2.745 -0.5161  0.5117 -0.7116
   40c3c     H1  414   3.140  -0.131   2.709 -1.0967 -1.2403 -1.8351
   40c3c     HC  415   2.985   0.174   2.880  0.1848  0.2281  0.7227
   40c3c     HC  416   3.159   0.152   2.923  0.8895  1.6819 -1.7149
   40c3c     HC  417   2.945  -0.043   2.930 -0.1885  2.4480 -0.4753
   40c3c     HC  418   3.122  -0.075   2.950  0.9518  1.7399 -1.9305
   40c3c     H1  419   2.860   0.153   2.585  0.8515  2.4042  2.2516
   40c3c     H1  420   2.809  -0.013   2.616  1.4988 -1.2156 -0.9008
   40c3c     H1  421   2.848   0.096   2.751  0.9604  0.9745 -0.5492
   40c3c     H1  422   2.982  -0.088   2.470 -2.5368  1.0591  1.8244
   40c3c     H1  423   3.045   0.075   2.442 -0.0331 -1.7263 -0.3453
   40c3c     C2  424   3.183  -0.073   2.468  0.0315  0.0686  0.1297
   40c3c     HC  425   3.189  -0.174   2.506  0.8603 -0.2165 -0.7608
   40c3c     HC  426   3.261  -0.012   2.513  0.8069  1.0453 -2.4321
   40c3c     CT  427   3.195  -0.085   2.317  0.3263  0.5560 -0.0662
   40c3c     HC  428   3.102  -0.116   2.269  0.3472 -0.7637  0.7295
   40c3c     HC  429   3.263  -0.167   2.297 -0.7718 -0.4157  0.1732
   40c3c     HC  430   3.222   0.007   2.263 -0.7165  0.8776 -0.0563
   41c3c     N4  431   4.196   0.295   2.997 -0.2687 -0.4787 -0.4689
   41c3c     C1  432   4.087   0.272   3.088  0.3926 -0.5242  0.1286
   41c3c     C1  433   4.138   0.267   2.866 -0.3824 -0.1197  0.0714
   41c3c     C2  434   3.973   0.336   3.014  0.7304  0.0782  0.1123
   41c3c     C2  435   3.991   0.308   2.865 -0.5308  0.0034  0.0761
   41c3c     C1  436   4.233   0.438   3.000 -0.7211 -0.0169 -0.0862
   41c3c     C1  437   4.317   0.212   3.016  0.5301  0.3263 -0.2939
   41c3c     H1  438   4.114   0.302   3.189 -0.8803  0.1955  0.2599
   41c3c     H1  439   4.056   0.167   3.090  1.4532 -0.8358  0.7963
   41c3c     H1  440   4.194   0.313   2.785 -1.7979 -0.1272 -0.9272
   41c3c     H1  441   4.133   0.162   2.835  0.2044 -0.4633  1.1069
   41c3c     HC  442   3.960   0.442   3.034  0.2034  0.0430 -0.0410
   41c3c     HC  443   3.888   0.284   3.057  0.5923  0.5814  0.4511
   41c3c     HC  444   3.974   0.398   2.806  0.0248  1.3382  1.9200
   41c3c     HC  445   3.921   0.236   2.823 -2.8193  1.7248  0.8421
   41c3c     H1  446   4.280   0.463   3.095  3.2161  1.1241 -2.2045
   41c3c     H1  447   4.306   0.464   2.923 -1.2112  0.4115 -0.4103
   41c3c     H1  448   4.154   0.505   2.967 -2.4791 -0.1044  3.6784
   41c3c     H1  449   4.388   0.239   2.939 -0.4138  1.6576 -0.7180
   41c3c     H1  450   4.363   0.246   3.109 -0.1253  1.0980 -0.2351
   41c3c     C2  451   4.303   0.056   3.018  0.2611  0.0033  0.2044
   41c3c     HC  452   4.292   0.009   2.920  0.5696 -0.9784  0.6298
   41c3c     HC  453   4.219   0.014   3.072 -0.4824  0.6885 -0.4142
   41c3c     CT  454   4.422  -0.018   3.078 -0.3164 -0.2113 -0.3722
   41c3c     HC  455   4.494  -0.035   2.999 -0.3145  1.9670 -0.8869
   41c3c     HC  456   4.393  -0.116   3.116  1.5844 -0.2177  1.1469
   41c3c     HC  457   4.463   0.028   3.169 -0.2300 -0.5001 -0.2667
   42c3c     N4  458   3.786   1.474   3.106 -0.2045  0.2864 -0.0278
   42c3c     C1  459   3.914   1.534   3.068 -0.0229  0.2303 -0.7407
   42c3c     C1  460   3.771   1.366   3.011  0.0662 -0.3429  0.2275
   42c3c     C2  461   4.008   1.420   3.011  0.0261 -0.7523 -1.1660
   42c3c     C2  462   3.915   1.305   2.993 -0.2195  0.0398  0.0867
   42c3c     C1  463   3.802   1.416   3.238  0.6925 -0.2745  0.6279
   42c3c     C1  464   3.674   1.568   3.096  0.3586  0.6261 -0.5926
   42c3c     H1  465   3.962   1.584   3.153 -1.6240  1.9440 -0.8017
   42c3c     H1  466   3.895   1.615   2.998 -1.7839  0.1268 -0.3968
   42c3c     H1  467   3.689   1.301   3.041 -0.7245  0.3218 -0.4707
   42c3c     H1  468   3.746   1.406   2.913  0.7115 -1.3115 -0.3293
   42c3c     HC  469   4.102   1.410   3.065  0.2371 -0.9295 -1.5607
   42c3c     HC  470   4.028   1.451   2.908 -0.7700 -0.8470 -1.3538
   42c3c     HC  471   3.927   1.242   3.081  1.4257  0.2258  0.0109
   42c3c     HC  472   3.930   1.253   2.899 -3.1664 -0.7552  0.0004
   42c3c     H1  473   3.804   1.482   3.324 -2.1516 -0.5309  0.9120
   42c3c     H1  474   3.721   1.349   3.266  0.1587  0.1904  0.2164
   42c3c     H1  475   3.892   1.358   3.260 -0.9453 -3.1829 -0.0798
   42c3c     H1  476   3.588   1.512   3.131  0.9058 -0.8272 -1.4980
   42c3c     H1  477   3.694   1.652   3.161  0.7919 -0.0249  0.1255
   42c3c     C2  478   3.639   1.616   2.951 -0.3341  0.1126 -0.0006
   42c3c     HC  479   3.596   1.538   2.888  0.4937  0.6775 -1.2809
   42c3c     HC  480   3.724   1.642   2.888 -0.0758 -1.1956 -0.2172
   42c3c     CT  481   3.533   1.725   2.959 -0.4587 -0.6438  0.7773
   42c3c     HC  482   3.518   1.767   2.859 -0.0794 -2.0447  0.1239
   42c3c     HC  483   3.568   1.810   3.016  0.0781 -1.6510  1.9664
   42c3c     HC  484   3.435   1.705   3.002 -0.7174 -1.0875 -0.0025
   43c3c     N4  485   2.830   0.753   2.293 -0.1115  0.2775 -0.1075
   43c3c     C1  486   2.912   0.722   2.410  0.6508  0.4419  0.7418
   43c3c     C1  487   2.788   0.892   2.306 -0.8973  0.4266  0.0108
   43c3c     C2  488   2.998   0.841   2.426  0.8413  0.3493 -0.0240
   43c3c     C2  489   2.906   0.960   2.379 -0.0612  0.2264 -0.2493
   43c3c     C1  490   2.908   0.738   2.169  0.3793 -0.1169 -0.5787
   43c3c     C1  491   2.723   0.653   2.275 -0.6271 -0.6385 -0.3636
   43c3c     H1  492   2.962   0.626   2.394 -1.0061 -0.1203 -1.1837
   43c3c     H1  493   2.851   0.709   2.500  0.9418 -3.5835  0.4598
   43c3c     H1  494   2.757   0.949   2.219 -1.1904  1.9485  1.0859
   43c3c     H1  495   2.699   0.910   2.367  0.7366  0.0988  2.5791
   43c3c     HC  496   3.090   0.829   2.369  0.8587  0.9761 -0.1259
   43c3c     HC  497   3.016   0.852   2.533 -5.3858  1.4287  1.0720
   43c3c     HC  498   2.955   1.019   2.301  0.5717 -1.0948 -0.8693
   43c3c     HC  499   2.876   1.024   2.461  2.7776 -1.6486  2.3177
   43c3c     H1  500   2.953   0.641   2.149  2.2280  0.3234  1.2957
   43c3c     H1  501   2.834   0.768   2.095  0.3820  1.3822  0.0112
   43c3c     H1  502   2.989   0.809   2.148  0.2047 -0.1183 -1.2723
   43c3c     H1  503   2.666   0.676   2.185  0.3922  1.3076 -0.5297
   43c3c     H1  504   2.761   0.551   2.261  2.0640  0.4255 -1.2257
   43c3c     C2  505   2.614   0.650   2.382  0.1802 -0.2600  0.0003
   43c3c     HC  506   2.567   0.743   2.414 -0.9670 -1.1352  0.8962
   43c3c     HC  507   2.651   0.615   2.479 -0.4303 -1.1954 -0.0935
   43c3c     CT  508   2.513   0.545   2.336 -0.4233  0.4806 -0.3760
   43c3c     HC  509   2.557   0.446   2.327  1.6055  1.2681  0.4498
   43c3c     HC  510   2.448   0.575   2.254 -0.6497  0.8367 -0.0752
   43c3c     HC  511   2.447   0.535   2.423  0.5562 -0.5867  0.2563
   44c3c     N4  512   5.531   0.615   3.887  0.6823  0.1882  0.6885
   44c3c     C1  513   5.474   0.751   3.876 -0.4088  0.2114 -0.2601
   44c3c     C1  514   5.413   0.526   3.919  0.2998 -0.5764 -0.0813
   44c3c     C2  515   5.338   0.734   3.808  0.3012  0.4333  0.0155
   44c3c     C2  516   5.297   0.585   3.842  0.5057  0.2072 -0.2876
   44c3c     C1  517   5.578   0.584   3.751 -0.2044 -0.1552 -0.6941
   44c3c     C1  518   5.636   0.602   3.994 -0.3397 -0.0577 -0.3023
   44c3c     H1  519   5.537   0.836   3.848 -0.3768  0.6594  1.1460
   44c3c     H1  520   5.443   0.772   3.978 -0.1656  1.0085 -0.3450
   44c3c     H1  521   5.427   0.419   3.902  1.0395 -0.5204  0.1458
   44c3c     H1  522   5.376   0.526   4.022  2.4337  0.9155  0.7193
   44c3c     HC  523   5.327   0.754   3.701  2.9402  1.9892 -0.0076
   44c3c     HC  524   5.275   0.802   3.864 -0.5244 -0.7736  0.5703
   44c3c     HC  525   5.279   0.520   3.756  0.7985 -1.2255  0.7086
   44c3c     HC  526   5.202   0.589   3.896 -0.4513  0.3382 -1.9571
   44c3c     H1  527   5.652   0.662   3.733 -1.3186  1.5840  2.0430
   44c3c     H1  528   5.635   0.492   3.763 -3.0850 -1.9483 -0.5029
   44c3c     H1  529   5.504   0.569   3.672 -1.4492 -0.0061  0.4313
   44c3c     H1  530   5.679   0.502   3.993 -1.0819 -0.3692 -0.5298
   44c3c     H1  531   5.714   0.671   3.960  0.9078 -0.4198  1.6934
   44c3c     C2  532   5.590   0.628   4.146 -0.3078 -0.0540  0.0344
   44c3c     HC  533   5.504   0.569   4.177  0.0137 -0.5733 -0.0575
   44c3c     HC  534   5.565   0.733   4.160 -1.3927 -0.0403 -1.7894
   44c3c     CT  535   5.697   0.581   4.246 -0.2332  0.1941 -0.5370
   44c3c     HC  536   5.702   0.476   4.273  0.9848  0.8450  1.8578
   44c3c     HC  537   5.692   0.635   4.340  0.3226 -0.8001  0.0687
   44c3c     HC  538   5.799   0.601   4.212 -0.5784 -0.5805 -2.1058
   45c3c     N4  539   5.113   0.162   2.582  0.2039 -0.0369  0.1025
   45c3c     C1  540   5.011   0.246   2.515 -0.2539  0.4031  0.1221
   45c3c     C1  541   5.193   0.268   2.639  0.0072 -0.3730 -0.0767
   45c3c     C2  542   4.977   0.358   2.618 -0.1239 -0.5538  0.7938
   45c3c     C2  543   5.105   0.377   2.701  0.1746 -0.3247 -0.3585
   45c3c     C1  544   5.063   0.072   2.688  0.1627 -0.3033 -0.3326
   45c3c     C1  545   5.181   0.077   2.489 -0.3097  0.3915  0.2291
   45c3c     H1  546   4.922   0.184   2.501  0.5693 -0.3838 -1.8355
   45c3c     H1  547   5.041   0.300   2.425  1.9320  0.6717  0.9703
   45c3c     H1  548   5.274   0.237   2.705  0.4269  2.6546  0.9047
   45c3c     H1  549   5.242   0.326   2.561 -0.8183 -1.8010 -1.6799
   45c3c     HC  550   4.895   0.355   2.690  0.0999  1.7873  1.1966
   45c3c     HC  551   4.953   0.450   2.564 -0.8977 -1.2080  0.0088
   45c3c     HC  552   5.078   0.357   2.805 -0.1020 -0.2978 -0.4241
   45c3c     HC  553   5.148   0.477   2.689  0.8384 -0.7137 -1.2326
   45c3c     H1  554   5.031  -0.023   2.646 -0.2873 -0.0799 -0.4907
   45c3c     H1  555   5.145   0.047   2.755  0.9988 -0.6979 -1.4804
   45c3c     H1  556   4.974   0.100   2.743 -0.4126  0.5128 -1.6396
   45c3c     H1  557   5.222  -0.012   2.537 -0.4639 -0.0570 -0.4648
   45c3c     H1  558   5.103   0.048   2.420  0.7678 -1.6666 -0.1562
   45c3c     C2  559   5.286   0.143   2.389  0.5574 -0.2141  0.4499
   45c3c     HC  560   5.376   0.170   2.443 -0.8109  0.6752  2.3776
   45c3c     HC  561   5.237   0.226   2.340  1.1033  0.9536  1.8381
   45c3c     CT  562   5.335   0.032   2.281  0.5960  0.2972  0.1267
   45c3c     HC  563   5.265   0.003   2.203 -2.1593  2.4872  1.6612
   45c3c     HC  564   5.372  -0.059   2.327  0.4191  0.4050  0.4891
   45c3c     HC  565   5.419   0.073   2.224  0.6848  0.9182  0.6778
   46c3c     N4  566   3.944   0.438   3.705  0.3629  0.0078  0.0387
   46c3c     C1  567   3.960   0.575   3.753 -0.2409  0.2936  0.0373
   46c3c     C1  568   4.081   0.390   3.730 -0.2380  0.5378  0.5891
   46c3c     C2  569   4.038   0.564   3.886 -0.3039  0.2812  0.6661
   46c3c     C2  570   4.126   0.441   3.866 -0.2342 -0.2900  0.1807
   46c3c     C1  571   3.840   0.374   3.791  0.2835 -1.1220  0.1306
   46c3c     C1  572   3.893   0.437   3.566 -0.2061  0.3163  0.1210
   46c3c     H1  573   3.865   0.627   3.766 -0.9365 -0.9528 -0.0259
   46c3c     H1  574   4.016   0.640   3.686 -0.5473  1.0081  0.4630
   46c3c     H1  575   4.090   0.282   3.718 -0.3742  0.8582 -2.8058
   46c3c     H1  576   4.147   0.440   3.659  2.0557 -1.3719  1.3033
   46c3c     HC  577   3.978   0.543   3.974 -1.9519  2.4354  0.1068
   46c3c     HC  578   4.090   0.655   3.916 -0.0102  0.4475 -0.3000
   46c3c     HC  579   4.098   0.365   3.939  0.7185 -0.1672  0.6788
   46c3c     HC  580   4.231   0.461   3.884 -0.5231  1.5656 -0.0893
   46c3c     H1  581   3.751   0.436   3.794 -0.3809 -2.0315 -0.2908
   46c3c     H1  582   3.810   0.277   3.750  0.5330 -1.0028 -0.3327
   46c3c     H1  583   3.874   0.368   3.894  1.4901 -0.0024 -0.1926
   46c3c     H1  584   3.888   0.336   3.527  0.8481  0.5037 -0.5228
   46c3c     H1  585   3.790   0.474   3.567 -0.2060  0.3332 -0.3941
   46c3c     C2  586   3.972   0.510   3.454 -0.5408  0.0460 -0.2445
   46c3c     HC  587   4.077   0.479   3.451 -0.3368  0.5227  1.3376
   46c3c     HC  588   3.978   0.617   3.474  0.3879 -0.0537  0.0321
   46c3c     CT  589   3.900   0.515   3.318 -0.3220 -0.7889  0.1104
   46c3c     HC  590   3.812   0.579   3.315  0.6679  0.6981  2.1269
   46c3c     HC  591   3.867   0.416   3.287 -0.3816 -0.2072 -1.7768
   46c3c     HC  592   3.973   0.552   3.246  1.5840 -1.2371  1.7662
   47c3c     N4  593   3.708   6.026   3.480 -0.8637 -0.5730 -0.1592
   47c3c     C1  594   3.650   5.957   3.363 -0.1445  0.9437 -0.3780
   47c3c     C1  595   3.832   6.093   3.431 -0.0455 -0.6805  0.1289
   47c3c     C2  596   3.677   6.049   3.237 -0.1901  0.2530 -0.1586
   47c3c     C2  597   3.812   6.120   3.280  0.8202  0.6491 -0.2416
   47c3c     C1  598   3.614   6.141   3.510 -0.1672 -0.5964  0.1353
   47c3c     C1  599   3.722   5.937   3.602  0.1891  0.1225  0.0388
   47c3c     H1  600   3.545   5.933   3.379 -0.2146  1.4518 -0.0370
   47c3c     H1  601   3.700   5.862   3.349 -1.6094  0.4709 -2.6847
   47c3c     H1  602   3.852   6.185   3.487  2.3848 -0.6841 -0.6802
   47c3c     H1  603   3.922   6.034   3.447  0.5865  0.5914  1.4158
   47c3c     HC  604   3.597   6.122   3.224 -1.0609 -0.6762 -0.1612
   47c3c     HC  605   3.698   5.988   3.150  3.8741  1.9182 -0.4358
   47c3c     HC  606   3.797   6.227   3.263 -0.5072  0.5744  0.3999
   47c3c     HC  607   3.898   6.094   3.218  1.3662  0.7029  0.4832
   47c3c     H1  608   3.511   6.114   3.532 -0.4659 -0.0309 -0.5490
   47c3c     H1  609   3.638   6.212   3.589 -1.3948 -0.5752  0.4954
   47c3c     H1  610   3.599   6.198   3.418  1.7016  1.3641  1.0167
   47c3c     H1  611   3.782   5.993   3.673 -0.2087 -1.1919  1.4315
   47c3c     H1  612   3.620   5.929   3.641 -0.1909 -3.1803 -1.5047
   47c3c     C2  613   3.781   5.792   3.599  0.2560  0.1380  0.2903
   47c3c     HC  614   3.886   5.792   3.569  0.0276  0.2141 -0.5126
   47c3c     HC  615   3.732   5.729   3.525  0.9725 -0.5038  0.3542
   47c3c     CT  616   3.757   5.724   3.739  0.8674 -0.5823 -0.4308
   47c3c     HC  617   3.804   5.792   3.810  0.0317 -0.5988  0.1513
   47c3c     HC  618   3.789   5.620   3.748  1.0399 -0.5033 -0.1244
   47c3c     HC  619   3.650   5.714   3.760  0.9246  0.1300  0.2253
   48c3c     N4  620   5.246   1.146   3.091  0.5878 -0.1384 -0.2068
   48c3c     C1  621   5.268   1.071   3.217 -0.4144 -0.1507 -0.2227
   48c3c     C1  622   5.250   1.031   3.000  0.4045  0.5351  0.2102
   48c3c     C2  623   5.194   0.938   3.211  0.3397 -0.0007  0.4098
   48c3c     C2  624   5.177   0.909   3.061 -0.0267 -0.7430  0.3082
   48c3c     C1  625   5.109   1.215   3.100 -0.2295  1.4123 -0.1420
   48c3c     C1  626   5.350   1.252   3.058 -0.2415 -0.3210  0.0818
   48c3c     H1  627   5.240   1.139   3.298 -2.6969 -0.9740 -0.2864
   48c3c     H1  628   5.373   1.044   3.220  0.0200  1.5634  1.0163
   48c3c     H1  629   5.202   1.060   2.906  0.2199  0.1074  0.1709
   48c3c     H1  630   5.350   1.009   2.962  0.0100 -0.1607 -0.4486
   48c3c     HC  631   5.100   0.949   3.266  0.0267  0.8489 -0.2838
   48c3c     HC  632   5.247   0.853   3.253  1.7524  0.5536 -0.2230
   48c3c     HC  633   5.075   0.912   3.024  0.7047 -3.3313 -2.1240
   48c3c     HC  634   5.213   0.815   3.019  0.5956 -0.7483  0.8359
   48c3c     H1  635   5.103   1.276   3.190 -1.4085 -0.2725  0.9648
   48c3c     H1  636   5.085   1.271   3.010  1.1039  0.2307 -1.2489
   48c3c     H1  637   5.023   1.147   3.104  1.6911 -0.9912  1.0985
   48c3c     H1  638   5.386   1.315   3.139  1.6377  0.1538 -1.0869
   48c3c     H1  639   5.437   1.188   3.041  0.0151 -0.1686  0.8202
   48c3c     C2  640   5.328   1.341   2.942  0.0466  0.2742  0.4050
   48c3c     HC  641   5.259   1.413   2.984  0.5722  0.7771  0.4129
   48c3c     HC  642   5.280   1.291   2.858 -1.5702  1.4354  0.6255
   48c3c     CT  643   5.445   1.434   2.906 -0.5533  0.0864  0.2247
   48c3c     HC  644   5.412   1.527   2.861  1.6470  0.4971 -0.6201
   48c3c     HC  645   5.515   1.385   2.838 -0.6803  0.2882 -0.0512
   48c3c     HC  646   5.492   1.454   3.003 -1.9243 -0.7740  1.0825
   49c3c     N4  647   0.480   0.477   3.217 -0.3325 -0.4555 -0.2526
   49c3c     C1  648   0.456   0.334   3.183 -0.0503 -0.3005 -0.4007
   49c3c     C1  649   0.348   0.527   3.252  0.2073  0.1009 -0.2037
   49c3c     C2  650   0.350   0.290   3.283 -0.5856 -0.0071  0.0588
   49c3c     C2  651   0.284   0.415   3.336 -0.1221  0.0273  0.1180
   49c3c     C1  652   0.559   0.495   3.341 -0.5585 -0.0228  0.0193
   49c3c     C1  653   0.542   0.555   3.106  0.2514 -0.7336 -0.2699
   49c3c     H1  654   0.543   0.269   3.191  0.3762  0.6321  2.9694
   49c3c     H1  655   0.414   0.329   3.082 -1.6102 -0.7560  0.2617
   49c3c     H1  656   0.340   0.628   3.292  0.2234  0.4110 -0.9703
   49c3c     H1  657   0.277   0.534   3.170  0.3450  0.3980 -0.2969
   49c3c     HC  658   0.390   0.227   3.363 -0.1925  2.4606  1.8755
   49c3c     HC  659   0.273   0.229   3.235 -2.3395  1.6895  0.6595
   49c3c     HC  660   0.292   0.430   3.443 -0.1121 -2.2266  0.4438
   49c3c     HC  661   0.175   0.421   3.328 -0.1788 -0.7187  0.3453
   49c3c     H1  662   0.651   0.436   3.338 -0.5109  0.0620 -0.1809
   49c3c     H1  663   0.585   0.601   3.342 -0.7717  0.1111 -3.8202
   49c3c     H1  664   0.516   0.471   3.438  2.0998 -0.2416  1.2122
   49c3c     H1  665   0.548   0.658   3.140 -1.6589 -1.6276  2.9377
   49c3c     H1  666   0.643   0.519   3.089  0.6113  0.2801 -0.3057
   49c3c     C2  667   0.470   0.562   2.969 -0.2239  0.0909 -0.0365
   49c3c     HC  668   0.369   0.602   2.969 -0.5301 -0.6775 -0.5246
   49c3c     HC  669   0.459   0.463   2.926 -0.5165  0.9080 -1.8779
   49c3c     CT  670   0.538   0.648   2.862 -0.3391  0.3340 -0.6557
   49c3c     HC  671   0.483   0.630   2.770  0.3400  2.5924 -1.5451
   49c3c     HC  672   0.641   0.618   2.844 -0.1883  1.1959 -1.2339
   49c3c     HC  673   0.532   0.754   2.890  4.4953  0.0148  2.2748
   50c3c     N4  674   4.747   1.595   3.317  0.3676 -0.1235 -0.0941
   50c3c     C1  675   4.738   1.636   3.456  0.0598  0.5025 -0.2084
   50c3c     C1  676   4.606   1.609   3.265  0.6873  0.4784 -0.1005
   50c3c     C2  677   4.659   1.768   3.442 -0.2689  0.5058 -0.7417
   50c3c     C2  678   4.560   1.747   3.323 -0.0244  0.3286 -0.1210
   50c3c     C1  679   4.847   1.681   3.251  0.1993 -0.4692 -0.2341
   50c3c     C1  680   4.806   1.450   3.314  0.4289  0.0768 -0.2286
   50c3c     H1  681   4.832   1.640   3.511  0.0764  0.4607 -0.2333
   50c3c     H1  682   4.682   1.570   3.523  1.1890 -0.4927 -0.2186
   50c3c     H1  683   4.597   1.603   3.157 -0.2486 -1.7368  0.0761
   50c3c     H1  684   4.549   1.527   3.308 -0.8113  1.2357 -0.6013
   50c3c     HC  685   4.728   1.851   3.425 -0.5245  0.7150 -0.7603
   50c3c     HC  686   4.605   1.797   3.532  0.0853  1.8199 -0.9497
   50c3c     HC  687   4.564   1.830   3.253 -0.3987  0.0592 -0.4663
   50c3c     HC  688   4.458   1.750   3.362 -0.0816 -1.3798 -0.1192
   50c3c     H1  689   4.812   1.784   3.238  1.5456 -0.0220 -0.4265
   50c3c     H1  690   4.937   1.693   3.311 -0.2090 -0.2721  0.3454
   50c3c     H1  691   4.877   1.637   3.157 -0.8257 -0.2762 -0.6591
   50c3c     H1  692   4.860   1.433   3.221 -0.6880  1.1553 -1.0785
   50c3c     H1  693   4.877   1.452   3.397  1.1059  2.2006 -0.8452
   50c3c     C2  694   4.699   1.341   3.339  0.6170 -0.6476 -0.5233
   50c3c     HC  695   4.629   1.341   3.255 -0.6486 -0.9143  0.5122
   50c3c     HC  696   4.643   1.353   3.432  3.3580  1.2548  0.9441
   50c3c     CT  697   4.772   1.207   3.349  0.9274 -0.0017  0.0905
   50c3c     HC  698   4.843   1.197   3.267 -1.7733  2.3730 -2.6639
   50c3c     HC  699   4.701   1.125   3.337  0.6933  0.2183 -0.0493
   50c3c     HC  700   4.814   1.189   3.448  1.6877 -3.4456 -0.8111
   51c3c     N4  701   3.853   1.251   1.431  0.0708  0.0477  0.0820
   51c3c     C1  702   3.934   1.135   1.378  0.2188  0.1840 -0.5684
   51c3c     C1  703   3.793   1.301   1.310 -0.2754 -0.3266  0.1027
   51c3c     C2  704   3.846   1.077   1.268 -0.2200 -0.3682  0.4369
   51c3c     C2  705   3.749   1.186   1.221  0.7228  0.0711 -0.6088
   51c3c     C1  706   3.757   1.211   1.530  0.5583 -0.0733 -0.3951
   51c3c     C1  707   3.938   1.354   1.499 -0.0624  0.7324  0.6698
   51c3c     H1  708   3.934   1.056   1.453 -1.4060  0.2792 -0.4603
   51c3c     H1  709   4.032   1.163   1.339  1.3502 -1.6801  0.8432
   51c3c     H1  710   3.706   1.363   1.333  2.0287  2.3969  1.7966
   51c3c     H1  711   3.869   1.345   1.246  1.1492  0.3501  2.1952
   51c3c     HC  712   3.791   0.991   1.309  1.2380 -1.1914  0.7004
   51c3c     HC  713   3.909   1.040   1.188  0.9875  1.6032  0.4586
   51c3c     HC  714   3.650   1.142   1.233  0.2511  1.7091  1.6887
   51c3c     HC  715   3.771   1.210   1.116  1.6904 -0.4282 -0.5238
   51c3c     H1  716   3.693   1.131   1.492  0.8467 -1.3961  1.8293
   51c3c     H1  717   3.802   1.167   1.619  0.6150  1.1780  0.2002
   51c3c     H1  718   3.689   1.293   1.553  0.5238 -0.4656  0.9095
   51c3c     H1  719   3.871   1.431   1.538  0.1906  1.8909 -1.1720
   51c3c     H1  720   3.981   1.314   1.591  0.3008  1.6185  0.8877
   51c3c     C2  721   4.053   1.419   1.417 -0.1292  0.4094  0.1903
   51c3c     HC  722   4.027   1.449   1.316 -1.5197  0.0306  0.4262
   51c3c     HC  723   4.129   1.343   1.398  0.7156  1.0010  1.1826
   51c3c     CT  724   4.127   1.537   1.486  1.2685  0.5438  0.1052
   51c3c     HC  725   4.225   1.549   1.438  0.3913 -0.5718 -2.0041
   51c3c     HC  726   4.152   1.503   1.587 -0.1286  2.4335  1.1440
   51c3c     HC  727   4.072   1.631   1.494  2.1579  0.8833  3.2266
   52c3c     N4  728   6.042   0.021   4.041 -0.3354  0.5393  0.3481
   52c3c     C1  729   6.175  -0.036   4.017  0.3060 -0.2215  0.4887
   52c3c     C1  730   5.987  -0.074   4.141  0.1525  0.3064 -0.5788
   52c3c     C2  731   6.224  -0.084   4.161 -0.7073 -0.1884  0.9395
   52c3c     C2  732   6.098  -0.111   4.243  0.1562 -0.0290 -0.0913
   52c3c     C1  733   6.057   0.146   4.107  0.2525  0.0097  0.0157
   52c3c     C1  734   5.966   0.040   3.917 -0.1388  0.1410  0.2657
   52c3c     H1  735   6.238   0.018   3.946 -0.0103 -1.4415 -0.7605
   52c3c     H1  736   6.169  -0.130   3.962 -0.5164  0.6525 -0.9556
   52c3c     H1  737   5.894  -0.046   4.190 -2.0578 -0.7083 -4.0667
   52c3c     H1  738   5.965  -0.175   4.105  0.0003 -0.3190  1.2144
   52c3c     HC  739   6.293  -0.013   4.206  1.7704 -0.0820 -2.7572
   52c3c     HC  740   6.274  -0.181   4.158  1.1018  0.7587 -1.8067
   52c3c     HC  741   6.091  -0.035   4.321 -0.4107 -1.2622  1.0836
   52c3c     HC  742   6.084  -0.212   4.283 -2.2032  0.8451  1.4027
   52c3c     H1  743   6.147   0.153   4.168  1.2317  0.8865 -1.4997
   52c3c     H1  744   6.075   0.214   4.024 -0.9498  1.1956  0.7064
   52c3c     H1  745   5.964   0.184   4.151  0.3635 -0.1445  0.3895
   52c3c     H1  746   5.869   0.077   3.950  0.1361  2.0564 -1.0116
   52c3c     H1  747   6.009   0.118   3.855 -0.7255  0.2466 -0.0120
   52c3c     C2  748   5.941  -0.090   3.840 -0.4425 -0.4312  0.1261
   52c3c     HC  749   5.913  -0.168   3.911  0.1858  0.5899  1.5326
   52c3c     HC  750   6.034  -0.120   3.793 -0.4992 -0.1068 -0.1942
   52c3c     CT  751   5.832  -0.062   3.729  0.7647  0.3158 -0.4268
   52c3c     HC  752   5.864   0.010   3.653  0.6546 -0.4548 -1.2186
   52c3c     HC  753   5.741  -0.025   3.775 -0.1424 -2.5419  0.2260
   52c3c     HC  754   5.812  -0.161   3.687  1.3066  0.3483 -0.7753
   53c3c     N4  755   3.127   0.507   1.727 -0.2541 -0.2217 -0.3358
   53c3c     C1  756   3.101   0.373   1.668 -0.1598  1.0472  0.1549
   53c3c     C1  757   3.143   0.487   1.869  1.1574  0.7800 -0.7034
   53c3c     C2  758   3.196   0.283   1.752  0.3549 -0.7236  0.2358
   53c3c     C2  759   3.208   0.350   1.882 -0.2141  0.3997  0.2480
   53c3c     C1  760   3.258   0.556   1.672  0.1749  0.1001  0.0782
   53c3c     C1  761   3.036   0.616   1.685 -0.8616  0.1245  0.6394
   53c3c     H1  762   3.120   0.364   1.561  0.4346  0.6485  0.2936
   53c3c     H1  763   2.999   0.349   1.700  0.0859  0.8613  0.8147
   53c3c     H1  764   3.193   0.573   1.913  1.3496 -1.4295  3.7421
   53c3c     H1  765   3.052   0.473   1.927  1.7937 -1.1654 -0.0967
   53c3c     HC  766   3.284   0.265   1.691  1.1467  1.7328  0.6239
   53c3c     HC  767   3.141   0.189   1.758 -1.6917  0.2852 -1.6058
   53c3c     HC  768   3.316   0.363   1.891 -0.0062  0.2307 -1.7660
   53c3c     HC  769   3.181   0.282   1.962  0.2834  0.3291  0.3610
   53c3c     H1  770   3.256   0.552   1.563  1.5845  1.8999 -0.0387
   53c3c     H1  771   3.276   0.656   1.712  1.3085 -0.6131  1.4134
   53c3c     H1  772   3.345   0.494   1.693  0.4954  0.8660  1.0426
   53c3c     H1  773   3.083   0.713   1.699 -0.3132 -0.0190 -0.1874
   53c3c     H1  774   3.026   0.614   1.576 -2.1122 -1.5549  0.7492
   53c3c     C2  775   2.901   0.609   1.759  0.2916  0.0375  0.2097
   53c3c     HC  776   2.907   0.613   1.868  1.6016  0.1374  0.1392
   53c3c     HC  777   2.868   0.507   1.742 -0.4070  0.3220 -0.1526
   53c3c     CT  778   2.784   0.692   1.702 -0.0765 -0.1129  0.4986
   53c3c     HC  779   2.764   0.688   1.595  1.9785  0.4366  0.0705
   53c3c     HC  780   2.795   0.799   1.721 -1.8074  0.2291 -0.3873
   53c3c     HC  781   2.692   0.649   1.741  0.0949 -0.7259  0.2169
   54c3c     N4  782   2.857   0.322   3.802  0.7517  0.5843  0.2630
   54c3c     C1  783   2.760   0.215   3.834 -0.5249 -0.3816 -0.1790
   54c3c     C1  784   2.836   0.422   3.910  0.3719 -0.5977  0.1904
   54c3c     C2  785   2.771   0.206   3.992  0.4358 -0.6191 -0.2150
   54c3c     C2  786   2.846   0.336   4.034 -0.1466  0.2772  0.4475
   54c3c     C1  787   2.998   0.274   3.795  0.8434 -0.5417  0.2038
   54c3c     C1  788   2.829   0.369   3.670  0.0396  0.6257 -0.3770
   54c3c     H1  789   2.780   0.124   3.776 -1.4045 -0.7671  0.1150
   54c3c     H1  790   2.660   0.249   3.806 -0.7952 -0.5288  0.5944
   54c3c     H1  791   2.902   0.508   3.902  1.5561 -1.5443 -0.3100
   54c3c     H1  792   2.730   0.451   3.910  0.4740 -0.2097 -0.7373
   54c3c     HC  793   2.842   0.128   4.022  0.4381 -1.4955 -2.4283
   54c3c     HC  794   2.669   0.190   4.028  0.2338  1.9577  0.4171
   54c3c     HC  795   2.946   0.328   4.077  0.6751 -0.2173 -1.5074
   54c3c     HC  796   2.778   0.375   4.110 -1.0978 -0.8237  0.1634
   54c3c     H1  797   3.024   0.213   3.882  2.3694 -0.0997  0.0779
   54c3c     H1  798   3.026   0.208   3.713  1.2685  0.1414 -0.2114
   54c3c     H1  799   3.073   0.350   3.774  1.1452 -0.2941  2.0621
   54c3c     H1  800   2.905   0.444   3.653  0.5450  0.2745  0.2948
   54c3c     H1  801   2.838   0.290   3.594 -0.8718  0.7995 -0.6702
   54c3c     C2  802   2.693   0.439   3.640 -0.4424 -0.0083 -0.2960
   54c3c     HC  803   2.676   0.513   3.719 -0.8101 -1.0612  0.6378
   54c3c     HC  804   2.606   0.373   3.638 -1.0726  0.8281 -1.0743
   54c3c     CT  805   2.702   0.515   3.506 -0.3337  0.3379 -0.7376
   54c3c     HC  806   2.625   0.592   3.501 -0.5153  0.1718 -0.5060
   54c3c     HC  807   2.695   0.443   3.424  2.9064 -0.1689 -0.6622
   54c3c     HC  808   2.797   0.568   3.500  0.2466 -0.5713  0.1539
   55c3c     N4  809   3.189   1.374   1.745  0.6205 -0.4075 -0.4354
   55c3c     C1  810   3.273   1.317   1.641  0.6236 -0.2370  0.1773
   55c3c     C1  811   3.058   1.307   1.720  0.0806  0.8215  0.3863
   55c3c     C2  812   3.233   1.171   1.616 -0.1073  0.6127  0.6956
   55c3c     C2  813   3.091   1.162   1.681 -0.8560 -1.0438 -0.4123
   55c3c     C1  814   3.243   1.335   1.877  0.1506  0.1952  0.1463
   55c3c     C1  815   3.174   1.521   1.743  0.4717 -0.1119 -1.3168
   55c3c     H1  816   3.377   1.323   1.672  0.6653 -2.6790  0.5790
   55c3c     H1  817   3.254   1.368   1.546  1.8111 -0.4622 -0.1821
   55c3c     H1  818   2.992   1.315   1.807 -0.5691  2.5617 -0.2369
   55c3c     H1  819   2.999   1.341   1.635  1.7732  1.7407 -0.4571
   55c3c     HC  820   3.309   1.106   1.657 -1.0314 -1.2623 -0.4609
   55c3c     HC  821   3.232   1.159   1.507  0.2330  2.8921  0.4206
   55c3c     HC  822   3.102   1.112   1.777 -2.1921 -0.5505  0.0088
   55c3c     HC  823   3.017   1.106   1.623  0.6601 -2.4214 -1.0718
   55c3c     H1  824   3.337   1.382   1.906  1.2341 -1.2646 -0.8795
   55c3c     H1  825   3.180   1.338   1.966  0.1391 -0.7581  0.1781
   55c3c     H1  826   3.266   1.229   1.877  0.3322  0.2244 -1.2734
   55c3c     H1  827   3.096   1.550   1.814  1.9614 -2.4488  1.3545
   55c3c     H1  828   3.270   1.563   1.774 -0.5885  0.2254  1.6758
   55c3c     C2  829   3.147   1.590   1.606 -0.2008 -0.4598  0.3071
   55c3c     HC  830   3.061   1.546   1.556 -0.2377 -1.5059  1.2672
   55c3c     HC  831   3.232   1.573   1.539 -0.0350  0.2758  0.3260
   55c3c     CT  832   3.111   1.735   1.623 -0.8665  0.8016  0.0774
   55c3c     HC  833   3.131   1.794   1.533  0.8836  0.3586  0.1637
   55c3c     HC  834   3.166   1.768   1.711  0.5806  0.8134 -0.8199
   55c3c     HC  835   3.006   1.750   1.648 -1.2853 -0.4640 -0.8758
   56c3c     N4  836   2.626   1.130   3.554 -0.0380  0.0052 -0.3061
   56c3c     C1  837   2.489   1.113   3.595  0.4500  0.2980  0.5665
   56c3c     C1  838   2.667   0.997   3.506 -0.4387  0.5830 -0.0717
   56c3c     C2  839   2.426   0.995   3.516 -0.2558 -0.8448  0.3604
   56c3c     C2  840   2.544   0.935   3.436  0.8016 -0.9203 -0.3002
   56c3c     C1  841   2.632   1.228   3.438 -0.1266 -0.9985  0.3553
   56c3c     C1  842   2.721   1.169   3.658  0.0409 -0.2617  0.4365
   56c3c     H1  843   2.434   1.207   3.592 -2.7303 -1.5318 -0.7913
   56c3c     H1  844   2.470   1.086   3.699 -2.1111  3.1741  0.9274
   56c3c     H1  845   2.754   1.005   3.440 -1.2878 -0.9312 -1.4031
   56c3c     H1  846   2.683   0.916   3.578 -3.7288 -1.2138 -1.2440
   56c3c     HC  847   2.349   1.022   3.443  1.9089  1.2038 -1.2263
   56c3c     HC  848   2.369   0.930   3.583 -0.5548 -0.1530  0.7957
   56c3c     HC  849   2.536   0.966   3.332  1.5997  2.3589  0.5452
   56c3c     HC  850   2.547   0.827   3.447 -0.8109 -0.8168  1.4234
   56c3c     H1  851   2.548   1.206   3.372 -0.4685  0.3226  0.3557
   56c3c     H1  852   2.619   1.334   3.455 -1.2751 -1.1178  0.2670
   56c3c     H1  853   2.723   1.223   3.378 -0.6723  1.2725 -0.6950
   56c3c     H1  854   2.822   1.161   3.616  0.4180 -1.2758  1.4857
   56c3c     H1  855   2.724   1.276   3.681  0.9155  0.0560 -1.0706
   56c3c     C2  856   2.721   1.091   3.798  0.0997  0.2073  0.3006
   56c3c     HC  857   2.717   0.982   3.796 -1.0883  0.2574 -0.9285
   56c3c     HC  858   2.634   1.128   3.851  0.8878  1.0212  1.0566
   56c3c     CT  859   2.848   1.123   3.878  0.2294 -0.2037 -0.0907
   56c3c     HC  860   2.883   1.223   3.852 -0.6454  0.7088  2.1834
   56c3c     HC  861   2.924   1.050   3.850 -0.9477 -1.8133  0.8746
   56c3c     HC  862   2.836   1.105   3.985 -0.5462  0.3193 -0.0868
   57c3c     N4  863   4.785   0.404   1.639 -0.0425 -1.0225  0.1834
   57c3c     C1  864   4.674   0.434   1.734  0.2568  0.3598 -0.2940
   57c3c     C1  865   4.755   0.491   1.521 -0.2813 -0.2997  0.1866
   57c3c     C2  866   4.658   0.585   1.720 -0.2284  0.1222 -0.1213
   57c3c     C2  867   4.717   0.627   1.585 -0.1462  0.7469 -0.6759
   57c3c     C1  868   4.922   0.426   1.697 -0.3891 -1.1084 -0.2576
   57c3c     C1  869   4.793   0.261   1.599  0.1169  0.0191 -0.4052
   57c3c     H1  870   4.681   0.403   1.838 -1.3297  1.6180  0.1946
   57c3c     H1  871   4.581   0.380   1.714  1.3060 -1.3850 -0.6442
   57c3c     H1  872   4.845   0.495   1.460  0.7684 -0.2845  1.7034
   57c3c     H1  873   4.673   0.464   1.454 -1.6048  1.4086  1.0679
   57c3c     HC  874   4.708   0.636   1.802 -1.4321  1.9837 -0.5296
   57c3c     HC  875   4.554   0.613   1.730 -0.3594 -0.1946 -0.5821
   57c3c     HC  876   4.804   0.686   1.612  0.6153 -0.6167 -0.0843
   57c3c     HC  877   4.646   0.681   1.521 -1.3281  0.6558  0.5412
   57c3c     H1  878   4.946   0.346   1.766 -3.1009 -1.6410  0.1128
   57c3c     H1  879   5.004   0.444   1.626  0.3809 -0.2065  0.8329
   57c3c     H1  880   4.908   0.523   1.746  0.3066  0.0682 -2.2898
   57c3c     H1  881   4.886   0.232   1.550 -0.4119 -1.0924 -0.7857
   57c3c     H1  882   4.798   0.206   1.693  0.3598  1.3655  0.3670
   57c3c     C2  883   4.686   0.195   1.512  0.4856  0.2717 -0.2903
   57c3c     HC  884   4.691   0.229   1.409  0.5367  4.9058  1.1237
   57c3c     HC  885   4.589   0.227   1.550  0.7176  0.2385  0.3334
   57c3c     CT  886   4.694   0.042   1.509 -0.4214 -0.2138 -0.6234
   57c3c     HC  887   4.676   0.003   1.609 -1.3414  1.8767  0.0546
   57c3c     HC  888   4.782   0.018   1.449 -0.3383  1.4689 -1.1893
   57c3c     HC  889   4.608   0.011   1.449  0.2648  0.0548 -1.7682
   58c3c     N4  890   3.505   1.248   3.754 -0.0094  0.0275 -0.2779
   58c3c     C1  891   3.531   1.384   3.800 -0.0815 -0.1739 -0.7827
   58c3c     C1  892   3.453   1.272   3.618  0.4598 -0.0992 -0.7597
   58c3c     C2  893   3.581   1.464   3.677  0.0426 -0.1264 -0.0271
   58c3c     C2  894   3.541   1.382   3.560 -0.7984 -0.8160  0.0316
   58c3c     C1  895   3.628   1.174   3.743  0.0232 -0.3151  0.5273
   58c3c     C1  896   3.420   1.172   3.850 -0.5393 -0.0690  0.5304
   58c3c     H1  897   3.605   1.392   3.879 -0.7024  2.3084 -0.3990
   58c3c     H1  898   3.439   1.433   3.832  0.2236  0.2330 -0.5276
   58c3c     H1  899   3.446   1.176   3.567 -0.4963  0.0249 -0.8858
   58c3c     H1  900   3.349   1.304   3.625 -0.3411 -2.5201 -1.0612
   58c3c     HC  901   3.687   1.490   3.687  0.3253 -1.5327  0.8517
   58c3c     HC  902   3.530   1.559   3.684  1.3959  0.4617  2.3897
   58c3c     HC  903   3.610   1.320   3.502  0.3961  1.0024 -0.5494
   58c3c     HC  904   3.482   1.436   3.487  0.5179  1.0326  0.2975
   58c3c     H1  905   3.671   1.149   3.840  0.6234  0.8495  0.5686
   58c3c     H1  906   3.611   1.084   3.685  0.7647 -0.1644  0.0803
   58c3c     H1  907   3.713   1.221   3.693 -2.1060 -0.0008 -2.9547
   58c3c     H1  908   3.410   1.082   3.789 -0.6940  0.4401 -0.1983
   58c3c     H1  909   3.479   1.146   3.937  0.9660  0.9949 -0.1465
   58c3c     C2  910   3.285   1.230   3.890  0.1917 -0.0584 -0.0431
   58c3c     HC  911   3.232   1.256   3.799  1.8232  1.7982 -0.5060
   58c3c     HC  912   3.285   1.325   3.944 -1.2712 -0.3938  0.5738
   58c3c     CT  913   3.207   1.133   3.984  0.3640 -1.3194 -0.1760
   58c3c     HC  914   3.179   1.046   3.924 -1.0961 -0.7279 -0.3651
   58c3c     HC  915   3.117   1.180   4.024  0.2435 -0.6801 -1.1762
   58c3c     HC  916   3.265   1.101   4.070  1.6675  1.4208  0.0076
   59c3c     N4  917   5.168   0.387   3.240 -0.0943 -0.1340  0.1500
   59c3c     C1  918   5.315   0.369   3.250 -0.0462 -0.3886  0.0376
   59c3c     C1  919   5.132   0.441   3.374  0.2426  0.1968  0.8220
   59c3c     C2  920   5.364   0.491   3.333  0.5108  0.2635  0.4597
   59c3c     C2  921   5.245   0.534   3.411 -0.5177 -0.1108 -0.6716
   59c3c     C1  922   5.136   0.484   3.134  0.2035  0.2897  0.0060
   59c3c     C1  923   5.096   0.268   3.204  0.8596  0.2521 -0.2492
   59c3c     H1  924   5.373   0.356   3.159  0.8921 -3.2417  1.0018
   59c3c     H1  925   5.343   0.285   3.314  0.8802  1.0828  1.6201
   59c3c     H1  926   5.036   0.492   3.370  0.0766 -0.2148 -0.3249
   59c3c     H1  927   5.118   0.360   3.446 -1.2665  0.1765  0.5185
   59c3c     HC  928   5.402   0.568   3.267 -1.5638  0.8640 -0.0632
   59c3c     HC  929   5.435   0.460   3.411  0.5893  0.2443  0.3806
   59c3c     HC  930   5.233   0.635   3.370 -0.0091  0.6905  1.1159
   59c3c     HC  931   5.261   0.535   3.519 -2.8445 -2.0264 -0.2653
   59c3c     H1  932   5.173   0.453   3.037  1.3695  0.0819  0.5048
   59c3c     H1  933   5.033   0.521   3.130  0.7188  1.6904 -0.5709
   59c3c     H1  934   5.195   0.575   3.142  0.6408  0.5606 -4.8251
   59c3c     H1  935   4.991   0.296   3.197  0.0822 -2.1044  1.4444
   59c3c     H1  936   5.124   0.229   3.107  0.1378 -0.0910 -0.3259
   59c3c     C2  937   5.105   0.150   3.302  0.6476 -0.1824 -0.3519
   59c3c     HC  938   5.049   0.176   3.392  1.8588  1.0104  0.0513
   59c3c     HC  939   5.209   0.123   3.321 -0.1813 -1.0373  3.4607
   59c3c     CT  940   5.033   0.028   3.248  0.7722 -0.2406 -0.6963
   59c3c     HC  941   4.930   0.058   3.227  0.6417 -1.4336 -1.7860
   59c3c     HC  942   5.040  -0.050   3.324  2.2701  0.3357 -0.2231
   59c3c     HC  943   5.074  -0.009   3.154  2.7282  1.9519 -0.7488
   60c3c     N4  944   4.565   0.589   3.374 -0.0065 -0.1811  0.1469
   60c3c     C1  945   4.567   0.617   3.518  0.1495  0.4121  0.8524
   60c3c     C1  946   4.425   0.567   3.343  0.1082 -0.2078  0.0517
   60c3c     C2  947   4.440   0.697   3.549 -0.3524 -0.7216 -0.3204
   60c3c     C2  948   4.345   0.659   3.440  0.0003  0.0328  0.3084
   60c3c     C1  949   4.613   0.705   3.291 -0.8783  0.3386  0.3990
   60c3c     C1  950   4.660   0.481   3.332 -0.5356 -0.1228 -0.3893
   60c3c     H1  951   4.661   0.665   3.546 -0.4804  1.3135  1.4647
   60c3c     H1  952   4.550   0.528   3.579  0.7467  0.1881  0.6923
   60c3c     H1  953   4.402   0.569   3.237 -1.0566  1.1585  0.3143
   60c3c     H1  954   4.408   0.467   3.385 -3.2229  0.6991  0.9936
   60c3c     HC  955   4.459   0.804   3.544 -0.7803 -0.5725  1.0719
   60c3c     HC  956   4.382   0.671   3.637 -2.7968 -0.5491 -1.8092
   60c3c     HC  957   4.325   0.754   3.390 -0.2905  0.0325  0.4260
   60c3c     HC  958   4.256   0.610   3.480  0.7762 -1.9479 -0.3039
   60c3c     H1  959   4.719   0.725   3.304 -1.0962  1.5054  0.4944
   60c3c     H1  960   4.589   0.685   3.187  0.2420 -0.1270  0.2333
   60c3c     H1  961   4.571   0.798   3.331  1.6728  1.2816  0.9925
   60c3c     H1  962   4.648   0.454   3.227  0.4587 -1.1140 -0.2552
   60c3c     H1  963   4.759   0.516   3.358 -1.3925  0.7526  1.8071
   60c3c     C2  964   4.642   0.344   3.399  0.2903 -0.3213  0.7001
   60c3c     HC  965   4.545   0.303   3.371  0.3258  1.5308 -2.3413
   60c3c     HC  966   4.645   0.348   3.508 -2.9830 -1.1482  0.8664
   60c3c     CT  967   4.755   0.245   3.356 -0.0719  0.1213 -0.6799
   60c3c     HC  968   4.781   0.254   3.250  1.4246  0.4281 -0.3057
   60c3c     HC  969   4.722   0.145   3.383  0.4477 -0.1108 -0.8895
   60c3c     HC  970   4.847   0.274   3.408 -0.4885  1.5605 -0.7077
   61c3c     N4  971   2.337   0.768   2.879  0.0618 -0.2876  0.2877
   61c3c     C1  972   2.387   0.675   2.982 -0.3147  0.3156  0.3674
   61c3c     C1  973   2.308   0.889   2.960  0.2576 -0.3786  0.0872
   61c3c     C2  974   2.478   0.758   3.084 -0.1757 -0.6644  0.3232
   61c3c     C2  975   2.419   0.900   3.069  0.7769 -0.1623  0.6842
   61c3c     C1  976   2.440   0.794   2.780 -0.1488  0.1035 -0.4975
   61c3c     C1  977   2.211   0.720   2.820 -0.1886 -0.0834  0.8208
   61c3c     H1  978   2.448   0.597   2.936 -1.4992 -0.9066  0.8392
   61c3c     H1  979   2.309   0.620   3.034 -3.5100  1.6874 -2.7749
   61c3c     H1  980   2.318   0.975   2.893 -0.3310  0.2006  0.7430
   61c3c     H1  981   2.208   0.894   3.003  0.7919  0.1028  1.3103
   61c3c     HC  982   2.582   0.754   3.054 -0.0405 -2.0615  0.9809
   61c3c     HC  983   2.478   0.740   3.191 -2.9232  0.4864  0.5878
   61c3c     HC  984   2.505   0.959   3.038  0.9841 -0.3672  0.8705
   61c3c     HC  985   2.378   0.938   3.163 -1.5904 -0.0781 -0.3519
   61c3c     H1  986   2.497   0.710   2.740  0.9065  0.7076 -0.2978
   61c3c     H1  987   2.404   0.859   2.700 -0.1308  0.1164 -0.4952
   61c3c     H1  988   2.519   0.848   2.833 -0.0416 -1.2068  0.7104
   61c3c     H1  989   2.176   0.803   2.760  1.6500  2.2944  2.9427
   61c3c     H1  990   2.237   0.646   2.745  0.6914 -0.4730  1.4911
   61c3c     C2  991   2.089   0.675   2.900  0.2672  0.1808 -0.4191
   61c3c     HC  992   2.067   0.744   2.981 -0.8546  0.2333 -0.7556
   61c3c     HC  993   2.102   0.579   2.950 -0.8982 -0.5384 -1.4622
   61c3c     CT  994   1.958   0.667   2.822  0.4256  0.1245 -0.5476
   61c3c     HC  995   1.957   0.632   2.718 -0.8200 -2.1603  0.1898
   61c3c     HC  996   1.924   0.770   2.812 -0.6078 -0.1776 -0.1905
   61c3c     HC  997   1.899   0.586   2.865 -0.7469  0.4585 -1.5012
   62c3c     N4  998   0.036   0.987   2.660  0.0305 -0.2622 -0.4752
   62c3c     C1  999   0.128   0.964   2.772 -0.7442  0.6248 -0.7108
   62c3c     C1 1000   0.125   0.962   2.547  0.0211 -0.4531  0.6999
   62c3c     C2 1001   0.212   0.840   2.736  0.3934  0.0655  0.3849
   62c3c     C2 1002   0.211   0.842   2.583 -0.3715 -0.1295 -0.1468
   62c3c     C1 1003  -0.070   0.886   2.654 -0.3743 -0.3804  0.4316
   62c3c     C1 1004  -0.028   1.122   2.649  0.8729  0.0820  0.2251
   62c3c     H1 1005   0.081   0.965   2.871 -0.7610 -3.8548 -0.5825
   62c3c     H1 1006   0.203   1.043   2.774  0.3326 -0.3868 -0.5678
   62c3c     H1 1007   0.088   0.944   2.446 -1.3728  1.0711  0.9203
   62c3c     H1 1008   0.195   1.043   2.525 -0.0044 -0.9180 -1.2139
   62c3c     HC 1009   0.151   0.753   2.760  0.6381 -0.3890 -0.6033
   62c3c     HC 1010   0.313   0.829   2.776  1.2373 -0.4584 -1.8044
   62c3c     HC 1011   0.171   0.745   2.555 -0.5286 -0.4978  1.2967
   62c3c     HC 1012   0.310   0.859   2.541  0.4090 -0.7904  1.3808
   62c3c     H1 1013  -0.126   0.892   2.561  1.2123 -0.9237 -0.5798
   62c3c     H1 1014  -0.038   0.782   2.641  1.3200 -0.0192  1.5542
   62c3c     H1 1015  -0.132   0.889   2.744  1.6670 -0.5270  1.8733
   62c3c     H1 1016  -0.096   1.121   2.564  0.6393  1.0961  0.4013
   62c3c     H1 1017  -0.085   1.139   2.740  0.5029 -0.8399  0.1684
   62c3c     C2 1018   0.054   1.247   2.624 -0.6434 -0.1584 -0.1062
   62c3c     HC 1019   0.110   1.244   2.531  0.2481 -1.6346  0.4600
   62c3c     HC 1020   0.114   1.268   2.713 -0.4255 -0.5749 -0.1534
   62c3c     CT 1021  -0.027   1.376   2.601  0.6903  0.3353  0.2444
   62c3c     HC 1022  -0.066   1.368   2.499  2.2312  0.1431 -0.3483
   62c3c     HC 1023   0.029   1.470   2.603 -0.2840  0.9459 -0.4557
   62c3c     HC 1024  -0.101   1.395   2.678 -0.5949  1.1730 -1.1613
   63c3c     N4 1025   3.682   0.189   1.395  0.2521 -0.3197  0.2569
   63c3c     C1 1026   3.791   0.261   1.456  0.1435  0.0786  0.1410
   63c3c     C1 1027   3.578   0.201   1.496  0.4097  0.4043 -0.7874
   63c3c     C2 1028   3.729   0.382   1.528 -0.6108  0.3651  0.4675
   63c3c     C2 1029   3.583   0.345   1.547 -0.5238 -0.7269  0.0381
   63c3c     C1 1030   3.634   0.248   1.269  0.6685 -0.2127  0.3923
   63c3c     C1 1031   3.717   0.051   1.355  0.0542 -0.2379  0.3380
   63c3c     H1 1032   3.863   0.286   1.377 -1.4410  1.5240 -0.8887
   63c3c     H1 1033   3.851   0.204   1.527  1.1724  3.0077  1.7121
   63c3c     H1 1034   3.473   0.184   1.472  0.6226 -1.1625 -0.6868
   63c3c     H1 1035   3.614   0.141   1.580  0.7791  0.5771 -0.8209
   63c3c     HC 1036   3.737   0.466   1.460  0.5350 -1.1334 -1.3137
   63c3c     HC 1037   3.786   0.412   1.616 -0.1957  1.4091 -0.1539
   63c3c     HC 1038   3.504   0.393   1.490  1.5037  0.5932 -1.7776
   63c3c     HC 1039   3.556   0.351   1.653 -0.3638 -0.7211  0.0803
   63c3c     H1 1040   3.709   0.258   1.190 -0.0388  1.8022 -0.0758
   63c3c     H1 1041   3.549   0.198   1.223  0.8927 -0.2948  0.0658
   63c3c     H1 1042   3.601   0.352   1.280 -0.6614 -0.7733  1.7908
   63c3c     H1 1043   3.633   0.005   1.303  1.3373 -2.1525 -0.1131
   63c3c     H1 1044   3.793   0.062   1.279 -0.4276  2.2087  0.1715
   63c3c     C2 1045   3.754  -0.050   1.472  0.4956 -0.0616  0.2002
   63c3c     HC 1046   3.674  -0.087   1.537  1.7768 -0.8812  1.3403
   63c3c     HC 1047   3.833  -0.010   1.536  0.7213  1.4632 -0.9935
   63c3c     CT 1048   3.799  -0.176   1.395 -0.6713 -0.0840  0.0227
   63c3c     HC 1049   3.879  -0.155   1.324  2.4183  1.0132  3.6853
   63c3c     HC 1050   3.724  -0.225   1.332 -0.4347  0.0736 -0.3868
   63c3c     HC 1051   3.850  -0.230   1.474  0.8800  1.6638  0.2484
   64c3c     N4 1052   5.927   0.366   2.489 -0.3941 -0.0076  0.6993
   64c3c     C1 1053   6.042   0.270   2.486 -0.2887  0.6025 -0.4201
   64c3c     C1 1054   5.974   0.470   2.582  0.0167  0.1609 -0.1485
   64c3c     C2 1055   6.172   0.363   2.500 -0.0166 -0.9287  0.2340
   64c3c     C2 1056   6.126   0.504   2.546 -0.2098  0.0610 -0.0801
   64c3c     C1 1057   5.912   0.421   2.352 -0.4972  0.1825  0.4415
   64c3c     C1 1058   5.795   0.308   2.526 -0.3647 -0.2292 -0.1657
   64c3c     H1 1059   6.051   0.203   2.400 -1.2738  2.0326 -1.6681
   64c3c     H1 1060   6.031   0.208   2.575  0.8259  0.7696 -0.1600
   64c3c     H1 1061   5.911   0.559   2.577 -0.1316  0.0510 -0.2676
   64c3c     H1 1062   5.965   0.422   2.679 -2.3426  1.1199  0.1505
   64c3c     HC 1063   6.228   0.377   2.407  1.9496  1.6022  1.7105
   64c3c     HC 1064   6.245   0.316   2.566  0.4034 -0.6615 -0.0383
   64c3c     HC 1065   6.148   0.583   2.474  1.7826 -0.9471 -0.6085
   64c3c     HC 1066   6.186   0.527   2.634  0.2631  1.3157 -0.7076
   64c3c     H1 1067   5.886   0.342   2.281 -2.4577  2.2634 -1.2537
   64c3c     H1 1068   5.841   0.503   2.341  0.3993  0.7360 -1.4721
   64c3c     H1 1069   6.008   0.463   2.322  0.5713 -1.4730  1.4854
   64c3c     H1 1070   5.721   0.388   2.536 -1.0436 -0.6597 -1.5742
   64c3c     H1 1071   5.758   0.239   2.450  0.7881 -2.3142  1.1242
   64c3c     C2 1072   5.778   0.231   2.663  0.4212  0.7709 -0.5067
   64c3c     HC 1073   5.821   0.281   2.750  0.4908 -0.2476  0.0559
   64c3c     HC 1074   5.833   0.137   2.661  1.2576  1.1726  2.0926
   64c3c     CT 1075   5.637   0.209   2.705 -0.0889  0.5538  0.6947
   64c3c     HC 1076   5.586   0.304   2.691  0.5041  0.8872  0.8014
   64c3c     HC 1077   5.622   0.187   2.811  0.8916 -0.3506  0.6590
   64c3c     HC 1078   5.589   0.127   2.650 -0.4067 -0.2439  2.1396
   65c3c     N4 1079   5.413   0.546   1.848  0.2998  0.3978  0.2508
   65c3c     C1 1080   5.400   0.406   1.879  0.1795  0.7028 -0.0271
   65c3c     C1 1081   5.443   0.558   1.704 -0.1203  0.4888  0.1512
   65c3c     C2 1082   5.336   0.336   1.754 -0.0888  0.2856  0.6960
   65c3c     C2 1083   5.357   0.441   1.649 -0.1500  0.9477  0.5554
   65c3c     C1 1084   5.281   0.602   1.880 -0.3784 -0.2685 -0.9002
   65c3c     C1 1085   5.514   0.625   1.928  0.9078 -0.8387 -0.4861
   65c3c     H1 1086   5.353   0.389   1.976  0.3847  0.2466 -0.0048
   65c3c     H1 1087   5.500   0.362   1.886  0.0825  0.4685 -0.0763
   65c3c     H1 1088   5.431   0.656   1.657  2.2160  0.3432 -0.8149
   65c3c     H1 1089   5.544   0.526   1.680 -0.3965 -0.9221  0.8159
   65c3c     HC 1090   5.230   0.316   1.744  0.2719 -0.5852 -1.6604
   65c3c     HC 1091   5.389   0.243   1.736  0.6348  0.6664  0.8402
   65c3c     HC 1092   5.264   0.483   1.611  0.3956  1.2327 -0.4636
   65c3c     HC 1093   5.413   0.399   1.566  1.8752  2.9181  0.8757
   65c3c     H1 1094   5.258   0.595   1.987 -1.1513  1.8841 -0.9036
   65c3c     H1 1095   5.272   0.706   1.847 -0.6642 -0.4152 -1.2832
   65c3c     H1 1096   5.199   0.550   1.830 -2.1000  0.4132  1.1313
   65c3c     H1 1097   5.511   0.728   1.894  2.0185 -0.3988  0.6850
   65c3c     H1 1098   5.465   0.629   2.025 -2.2273  0.4813 -2.0729
   65c3c     C2 1099   5.659   0.562   1.938  0.0252  0.7310 -0.5402
   65c3c     HC 1100   5.692   0.512   1.847 -0.7319  0.5337 -0.7061
   65c3c     HC 1101   5.654   0.472   1.998  2.1123  0.6672 -0.4446
   65c3c     CT 1102   5.768   0.654   1.993 -0.0608  0.2715  0.4747
   65c3c     HC 1103   5.748   0.711   2.084  1.4939 -0.1422  1.0920
   65c3c     HC 1104   5.797   0.726   1.916 -1.2339 -0.0041 -0.2374
   65c3c     HC 1105   5.858   0.596   2.013 -1.3459 -2.8343 -2.3498
   66c3c     N4 1106   4.298   1.206   3.953 -0.4478 -0.1249 -0.2656
   66c3c     C1 1107   4.299   1.265   3.819  0.4773 -0.4067  0.2976
   66c3c     C1 1108   4.313   1.063   3.918 -0.1265 -0.8780 -0.1759
   66c3c     C2 1109   4.424   1.205   3.748  0.0386  0.4636  0.0551
   66c3c     C2 1110   4.421   1.062   3.803  0.4573 -0.0790 -0.4072
   66c3c     C1 1111   4.412   1.254   4.033 -0.4630 -0.4808  0.5148
   66c3c     C1 1112   4.166   1.231   4.024  0.4904 -0.4176  0.4711
   66c3c     H1 1113   4.304   1.374   3.812 -0.3749 -0.4162 -0.7331
   66c3c     H1 1114   4.215   1.241   3.753 -0.2191 -1.0155  1.3976
   66c3c     H1 1115   4.325   0.991   3.999  1.1383  0.8973  1.2490
   66c3c     H1 1116   4.217   1.045   3.869  0.6507 -1.5193 -1.5223
   66c3c     HC 1117   4.513   1.266   3.769 -0.1298  2.0264 -3.4686
   66c3c     HC 1118   4.401   1.217   3.642 -1.5350  2.2148  0.5646
   66c3c     HC 1119   4.514   1.036   3.854 -0.5476  0.3865  1.7121
   66c3c     HC 1120   4.396   0.987   3.727 -1.1147  0.2334 -0.2147
   66c3c     H1 1121   4.400   1.362   4.040  0.4598 -0.2546 -1.1721
   66c3c     H1 1122   4.407   1.209   4.132 -1.5120 -0.1406  0.6176
   66c3c     H1 1123   4.513   1.233   3.998 -1.4122 -2.9781 -0.7921
   66c3c     H1 1124   4.168   1.180   4.120 -1.5334 -1.1092  0.1640
   66c3c     H1 1125   4.172   1.334   4.059  2.6536 -0.5338  0.5603
   66c3c     C2 1126   4.031   1.195   3.960  0.1374  0.2229 -0.0874
   66c3c     HC 1127   4.020   1.089   3.936  2.0317 -0.3184  1.2633
   66c3c     HC 1128   4.016   1.257   3.872  0.4212  0.6703  0.1780
   66c3c     CT 1129   3.913   1.215   4.056 -0.2155 -0.3480  0.4205
   66c3c     HC 1130   3.909   1.307   4.115  0.0570 -0.5875  0.8176
   66c3c     HC 1131   3.906   1.131   4.125  0.4892 -0.9363 -0.2102
   66c3c     HC 1132   3.818   1.218   4.004 -0.8282 -0.4980  1.5058
   67c3c     N4 1133   0.135   0.954   4.039 -0.2539 -0.0152  0.1265
   67c3c     C1 1134   0.096   0.911   3.900 -0.4754 -0.0295 -0.2020
   67c3c     C1 1135   0.215   1.080   4.026 -0.0093  0.6266  0.0447
   67c3c     C2 1136   0.065   1.046   3.825 -0.3562  0.1975 -0.8347
   67c3c     C2 1137   0.162   1.148   3.896 -0.1045  0.7883 -0.1579
   67c3c     C1 1138   0.013   0.989   4.120 -0.2475 -0.9341  0.5785
   67c3c     C1 1139   0.199   0.848   4.115  0.2484 -0.6197  0.2271
   67c3c     H1 1140   0.009   0.845   3.895 -2.4321  2.5959 -1.6224
   67c3c     H1 1141   0.173   0.853   3.848 -0.0060  0.6994 -0.3233
   67c3c     H1 1142   0.212   1.147   4.111 -1.1337 -0.5985  1.0016
   67c3c     H1 1143   0.318   1.045   4.013 -0.4843 -1.1680  0.9823
   67c3c     HC 1144  -0.042   1.060   3.843 -0.5968 -3.6251  1.4088
   67c3c     HC 1145   0.070   1.043   3.716  1.1798  0.8922 -0.8012
   67c3c     HC 1146   0.114   1.239   3.932 -3.3316 -1.4564  1.4368
   67c3c     HC 1147   0.251   1.160   3.833  1.2325 -0.3808  1.4649
   67c3c     H1 1148  -0.059   0.907   4.127 -0.7123 -0.6483 -0.6508
   67c3c     H1 1149   0.043   1.020   4.220 -1.9444  0.5599  0.6574
   67c3c     H1 1150  -0.043   1.075   4.084 -0.8079 -2.2187 -1.7315
   67c3c     H1 1151   0.231   0.885   4.212  1.2400  1.6212 -0.9343
   67c3c     H1 1152   0.126   0.769   4.136 -1.0018  0.2717 -0.7161
   67c3c     C2 1153   0.326   0.794   4.058 -0.1182 -0.1730 -0.4879
   67c3c     HC 1154   0.397   0.873   4.034  0.1520 -0.2548  0.0343
   67c3c     HC 1155   0.316   0.724   3.975  0.2455  0.7203 -1.2929
   67c3c     CT 1156   0.398   0.708   4.159 -0.3946  0.1523 -0.4781
   67c3c     HC 1157   0.390   0.745   4.261 -0.1112 -1.0423 -0.0138
   67c3c     HC 1158   0.503   0.684   4.140 -0.3006 -1.0466  1.4614
   67c3c     HC 1159   0.347   0.612   4.169 -0.3951  0.5247  4.0731
   68c3c     N4 1160   3.561   0.767   4.540 -0.7734 -0.1593 -0.1982
   68c3c     C1 1161   3.438   0.689   4.499 -0.4734 -0.4406 -0.8581
   68c3c     C1 1162   3.560   0.750   4.685  0.3846 -0.2416 -0.0050
   68c3c     C2 1163   3.439   0.564   4.587  0.4832 -0.3196 -0.4804
   68c3c     C2 1164   3.524   0.607   4.705  0.5727  0.3803 -0.5304
   68c3c     C1 1165   3.681   0.705   4.477  0.0363 -0.3211 -0.5982
   68c3c     C1 1166   3.571   0.908   4.502  0.5013  0.4184  0.5317
   68c3c     H1 1167   3.417   0.681   4.392 -1.2195  0.4276 -0.7882
   68c3c     H1 1168   3.349   0.740   4.537 -0.9872 -1.6827 -0.3645
   68c3c     H1 1169   3.649   0.771   4.745  0.6511  2.7750 -1.3686
   68c3c     H1 1170   3.483   0.812   4.732 -0.4025  1.1303 -2.9948
   68c3c     HC 1171   3.462   0.488   4.512 -0.0301  0.8004 -1.8005
   68c3c     HC 1172   3.339   0.547   4.625  0.6081  2.0378  1.0408
   68c3c     HC 1173   3.616   0.548   4.708 -0.2245 -0.8185  1.4125
   68c3c     HC 1174   3.475   0.583   4.799  0.4574 -2.5200 -1.2866
   68c3c     H1 1175   3.692   0.598   4.492  0.8059 -0.2944 -0.9565
   68c3c     H1 1176   3.717   0.736   4.379 -0.4823  1.0898 -0.3569
   68c3c     H1 1177   3.766   0.749   4.528 -0.4095  3.8130 -3.1145
   68c3c     H1 1178   3.659   0.952   4.548 -0.2806  0.6076  1.8697
   68c3c     H1 1179   3.579   0.906   4.393 -0.3283  0.3916  0.4633
   68c3c     C2 1180   3.451   0.992   4.549 -0.0933  0.0680  0.2758
   68c3c     HC 1181   3.428   1.003   4.655  1.0967  1.2647  0.4288
   68c3c     HC 1182   3.360   0.951   4.505  2.0496 -2.1343 -2.2664
   68c3c     CT 1183   3.458   1.140   4.508  0.0133  0.1635  0.0330
   68c3c     HC 1184   3.360   1.189   4.512  0.2617  0.5570  1.1968
   68c3c     HC 1185   3.477   1.153   4.401 -0.7491 -2.0015 -0.3965
   68c3c     HC 1186   3.530   1.189   4.572  0.5388  0.6195 -0.8925
   69c3c     N4 1187   2.810   5.991   3.471 -0.2486  0.3918  0.0006
   69c3c     C1 1188   2.700   5.993   3.374  0.4803 -0.0313  0.2711
   69c3c     C1 1189   2.844   6.129   3.496  0.1850 -0.0439 -0.6411
   69c3c     C2 1190   2.728   6.112   3.286 -0.2739 -0.0675 -0.1690
   69c3c     C2 1191   2.819   6.209   3.365 -0.5384  0.2524  0.5369
   69c3c     C1 1192   2.761   5.924   3.592 -0.3436  0.1223 -0.2485
   69c3c     C1 1193   2.926   5.906   3.422  0.0946  0.7319 -0.7317
   69c3c     H1 1194   2.599   6.011   3.412  0.6611  0.8893  0.3301
   69c3c     H1 1195   2.696   5.905   3.311  0.0441 -1.0045  1.6336
   69c3c     H1 1196   2.768   6.176   3.559  0.4876 -1.7206  1.0306
   69c3c     H1 1197   2.939   6.155   3.543 -0.3566  2.6884 -0.9975
   69c3c     HC 1198   2.632   6.154   3.256 -0.9638 -0.8843  0.8665
   69c3c     HC 1199   2.766   6.079   3.190 -0.0308  0.8810 -0.4022
   69c3c     HC 1200   2.754   6.294   3.383 -2.1302 -0.9111  0.4365
   69c3c     HC 1201   2.901   6.252   3.308 -1.5194  1.6529  0.1593
   69c3c     H1 1202   2.670   5.967   3.634 -0.8219  1.6989 -2.8003
   69c3c     H1 1203   2.737   5.819   3.576 -1.0871  0.0853  1.0268
   69c3c     H1 1204   2.833   5.924   3.674  1.7092 -1.9747 -2.0043
   69c3c     H1 1205   2.984   5.884   3.512 -1.7316 -2.8403 -0.3363
   69c3c     H1 1206   2.883   5.811   3.393  0.9656 -0.1669  0.8369
   69c3c     C2 1207   3.007   5.958   3.298 -0.5063  0.0681  1.0009
   69c3c     HC 1208   3.051   6.056   3.314  1.7197 -0.6142 -0.6312
   69c3c     HC 1209   2.951   5.950   3.204  1.7687 -0.9161 -0.3253
   69c3c     CT 1210   3.129   5.863   3.270 -0.1976  1.0421  0.3851
   69c3c     HC 1211   3.204   5.888   3.346  0.6118  3.2155 -1.0779
   69c3c     HC 1212   3.178   5.901   3.181  1.2394  1.7644  1.4624
   69c3c     HC 1213   3.096   5.760   3.254  0.5422  0.4617  2.4635
   70c3c     N4 1214   4.134   0.430   1.987 -0.3613  0.1068 -0.2117
   70c3c     C1 1215   4.205   0.546   1.941 -0.2545  0.0289  0.1842
   70c3c     C1 1216   4.062   0.471   2.112 -0.2234 -0.0446  0.7425
   70c3c     C2 1217   4.120   0.667   1.982  0.0479  0.0225 -0.5712
   70c3c     C2 1218   4.027   0.618   2.099  0.2740  0.4230 -1.1568
   70c3c     C1 1219   4.037   0.387   1.888  0.0016  0.0058 -0.5385
   70c3c     C1 1220   4.232   0.320   1.991  0.3721  0.8618  0.0368
   70c3c     H1 1221   4.214   0.548   1.832  3.8473  0.8572  0.4620
   70c3c     H1 1222   4.305   0.562   1.982  0.2084  0.8828 -1.2226
   70c3c     H1 1223   3.977   0.412   2.144  0.3471 -2.1984 -1.4975
   70c3c     H1 1224   4.128   0.452   2.197  2.0708 -2.0060 -1.3574
   70c3c     HC 1225   4.048   0.684   1.901 -0.0034  2.0286 -0.1260
   70c3c     HC 1226   4.178   0.757   2.000 -0.6428  0.7975 -2.1131
   70c3c     HC 1227   3.922   0.633   2.072  0.3795  2.2026 -0.5941
   70c3c     HC 1228   4.055   0.664   2.193 -1.3400  1.6259 -1.2483
   70c3c     H1 1229   3.993   0.295   1.924  0.9372  0.2688  1.3494
   70c3c     H1 1230   3.958   0.459   1.864 -0.8985 -0.5067  0.8544
   70c3c     H1 1231   4.087   0.346   1.800 -2.4572 -2.1130 -0.9961
   70c3c     H1 1232   4.180   0.225   1.992 -2.6041  2.4282 -0.0403
   70c3c     H1 1233   4.286   0.319   1.896  0.0015 -2.3956 -0.1928
   70c3c     C2 1234   4.340   0.313   2.097  0.2254 -0.9269 -0.4899
   70c3c     HC 1235   4.284   0.306   2.190  1.7237 -0.9665  0.4123
   70c3c     HC 1236   4.404   0.400   2.109 -0.1241 -0.9050  1.2710
   70c3c     CT 1237   4.433   0.188   2.087  0.5489  0.1155 -0.0568
   70c3c     HC 1238   4.502   0.204   2.004 -0.1364 -0.7044 -0.7877
   70c3c     HC 1239   4.370   0.103   2.062  0.8046 -0.2775  0.6101
   70c3c     HC 1240   4.489   0.165   2.178  2.1167  0.7116 -0.8549
   71c3c     N4 1241   5.232   0.356   4.446 -0.5044 -0.8010 -0.4808
   71c3c     C1 1242   5.377   0.389   4.421 -0.4062  0.3383 -0.3376
   71c3c     C1 1243   5.221   0.358   4.591 -0.0067  0.7077 -0.2944
   71c3c     C2 1244   5.417   0.491   4.532 -0.2128 -0.3108 -0.0145
   71c3c     C2 1245   5.319   0.465   4.645 -0.0211 -0.2583  0.2460
   71c3c     C1 1246   5.157   0.464   4.386 -0.1009 -0.0304  0.2004
   71c3c     C1 1247   5.181   0.233   4.372  1.0993 -0.5179 -0.1915
   71c3c     H1 1248   5.408   0.433   4.326 -1.0188  1.5946  0.0329
   71c3c     H1 1249   5.446   0.305   4.428 -0.4697  0.4127  1.2562
   71c3c     H1 1250   5.116   0.366   4.617  0.2101 -0.0977  0.9120
   71c3c     H1 1251   5.240   0.258   4.632  0.6620  1.0455  0.2268
   71c3c     HC 1252   5.433   0.594   4.501  0.1641  0.0046  1.1769
   71c3c     HC 1253   5.516   0.459   4.565 -0.2416  1.8319  2.3696
   71c3c     HC 1254   5.259   0.550   4.678 -2.0219 -1.0350 -1.2884
   71c3c     HC 1255   5.366   0.427   4.736  1.3435  0.4221 -0.1623
   71c3c     H1 1256   5.181   0.489   4.283 -2.6712  0.5698 -0.2834
   71c3c     H1 1257   5.051   0.439   4.393 -0.0718 -0.3702 -0.5766
   71c3c     H1 1258   5.158   0.559   4.439 -0.2497 -0.5539  1.1582
   71c3c     H1 1259   5.072   0.227   4.370  1.0809  0.0568 -1.9462
   71c3c     H1 1260   5.201   0.241   4.265 -2.5274 -1.6191 -1.0134
   71c3c     C2 1261   5.235   0.097   4.414  0.1740 -0.9026  0.7977
   71c3c     HC 1262   5.201   0.060   4.510 -1.4959 -0.8132  0.2542
   71c3c     HC 1263   5.343   0.105   4.420  0.1771  1.1081 -1.0784
   71c3c     CT 1264   5.201  -0.020   4.321 -0.1640 -0.9590 -0.0433
   71c3c     HC 1265   5.241  -0.115   4.356 -2.2083 -1.2638  1.5803
   71c3c     HC 1266   5.240  -0.017   4.219 -0.0883 -2.7357 -0.0849
   71c3c     HC 1267   5.097  -0.052   4.316 -0.4069 -0.2444  0.2675
   72c3c     N4 1268   1.454   0.761   3.247 -0.3552  0.0768 -0.6677
   72c3c     C1 1269   1.577   0.847   3.271 -0.0212  0.4957  0.0481
   72c3c     C1 1270   1.418   0.710   3.382  0.0830  0.7112  0.2974
   72c3c     C2 1271   1.627   0.823   3.411  0.2716 -0.5731 -0.0287
   72c3c     C2 1272   1.491   0.800   3.481  0.0888  0.6541  0.1157
   72c3c     C1 1273   1.348   0.855   3.209  0.2772  0.2941 -0.2416
   72c3c     C1 1274   1.469   0.656   3.142  0.3185 -0.8078 -0.0125
   72c3c     H1 1275   1.546   0.951   3.282 -0.7432  0.0655  2.2263
   72c3c     H1 1276   1.656   0.834   3.197 -0.0257 -2.7447  0.5344
   72c3c     H1 1277   1.315   0.689   3.409 -0.6944  1.8961 -1.7085
   72c3c     H1 1278   1.464   0.612   3.395 -0.9909  0.3424  1.3423
   72c3c     HC 1279   1.678   0.909   3.454 -1.9589  0.9913 -0.4483
   72c3c     HC 1280   1.685   0.730   3.415 -0.0728 -0.9080 -2.0325
   72c3c     HC 1281   1.434   0.893   3.491 -1.0818  0.0641 -0.9682
   72c3c     HC 1282   1.503   0.756   3.580  3.8508 -0.3242 -0.7069
   72c3c     H1 1283   1.368   0.898   3.110 -1.4650  0.2203 -0.6513
   72c3c     H1 1284   1.261   0.794   3.186  0.3802  0.5770 -1.4504
   72c3c     H1 1285   1.331   0.933   3.283 -0.8405  1.9139 -2.1265
   72c3c     H1 1286   1.386   0.587   3.154  1.1831 -1.7136  0.7688
   72c3c     H1 1287   1.458   0.707   3.046 -2.1957  0.8126  1.0848
   72c3c     C2 1288   1.600   0.577   3.143  0.1831  0.6240 -0.2263
   72c3c     HC 1289   1.616   0.527   3.238 -1.4344  0.7581  0.1227
   72c3c     HC 1290   1.683   0.646   3.132 -1.3869  2.7307  0.8313
   72c3c     CT 1291   1.604   0.472   3.030  0.3124  0.1382  0.6972
   72c3c     HC 1292   1.678   0.395   3.052  0.7225  0.2054 -0.4592
   72c3c     HC 1293   1.640   0.531   2.947  2.1810  1.6312  2.5129
   72c3c     HC 1294   1.516   0.409   3.011  1.7825 -1.7336 -0.0385
   73c3c     N4 1295   4.485   0.282   4.883 -0.0352  0.3558  0.1353
   73c3c     C1 1296   4.591   0.340   4.969 -0.0655 -0.8679  0.4017
   73c3c     C1 1297   4.396   0.399   4.855 -0.0042  0.0778 -0.2412
   73c3c     C2 1298   4.608   0.483   4.921 -0.5567 -0.9769 -0.2471
   73c3c     C2 1299   4.489   0.512   4.842  0.6617 -0.4357 -0.1775
   73c3c     C1 1300   4.543   0.227   4.760 -0.0598  0.2044  0.2378
   73c3c     C1 1301   4.407   0.166   4.940  0.7835  0.3195 -0.6292
   73c3c     H1 1302   4.690   0.295   4.966  0.6157  0.6622 -2.1915
   73c3c     H1 1303   4.560   0.365   5.070 -2.4830 -0.0437 -0.5021
   73c3c     H1 1304   4.330   0.389   4.769 -0.8679 -1.1249  0.5268
   73c3c     H1 1305   4.331   0.422   4.940 -0.2754  3.0737 -1.2150
   73c3c     HC 1306   4.692   0.490   4.851  1.9456  1.1341  2.8381
   73c3c     HC 1307   4.618   0.546   5.009 -1.2548 -2.5675  1.0035
   73c3c     HC 1308   4.504   0.519   4.734 -0.9119  0.4132 -0.3604
   73c3c     HC 1309   4.439   0.606   4.866 -2.0560 -1.6224 -1.0149
   73c3c     H1 1310   4.629   0.166   4.787  1.1694  1.3266 -1.0822
   73c3c     H1 1311   4.485   0.166   4.692  2.5955 -1.9308 -0.2068
   73c3c     H1 1312   4.597   0.302   4.702  2.0070 -2.4560 -1.4195
   73c3c     H1 1313   4.322   0.141   4.876 -0.9694  1.1182  1.3036
   73c3c     H1 1314   4.469   0.077   4.949 -0.2391 -0.3803 -0.3885
   73c3c     C2 1315   4.355   0.182   5.089 -0.7709  0.5983  0.8031
   73c3c     HC 1316   4.302   0.276   5.100 -0.4555  0.6013  2.3051
   73c3c     HC 1317   4.439   0.188   5.158 -2.6427  1.6199  3.0583
   73c3c     CT 1318   4.251   0.075   5.131  0.5473  0.3145  0.0723
   73c3c     HC 1319   4.154   0.090   5.082  0.6235 -0.7922 -0.4380
   73c3c     HC 1320   4.238   0.077   5.239  0.7207  0.3273  0.0929
   73c3c     HC 1321   4.290  -0.024   5.105  0.0600 -0.1797  1.1920
   74c3c     N4 1322   4.727   0.807   2.462  0.3898 -0.0329 -0.1171
   74c3c     C1 1323   4.741   0.667   2.504 -0.0546 -0.4722  0.1146
   74c3c     C1 1324   4.660   0.789   2.329  0.0394  0.2566 -0.0900
   74c3c     C2 1325   4.607   0.599   2.469 -0.4186  0.2694 -0.0651
   74c3c     C2 1326   4.549   0.680   2.349  0.0917 -0.0752 -0.1674
   74c3c     C1 1327   4.640   0.880   2.551  0.2291 -0.1601  0.2914
   74c3c     C1 1328   4.862   0.867   2.447 -0.6245 -0.0082  0.1446
   74c3c     H1 1329   4.770   0.647   2.607 -1.2145 -1.2961  0.2793
   74c3c     H1 1330   4.812   0.621   2.435 -1.8934 -1.1287 -1.3866
   74c3c     H1 1331   4.629   0.878   2.274  1.5556 -0.0232 -1.4276
   74c3c     H1 1332   4.736   0.753   2.260 -0.2207 -3.1403  1.3043
   74c3c     HC 1333   4.533   0.597   2.549 -0.8039  0.2704 -0.4193
   74c3c     HC 1334   4.627   0.497   2.434 -0.3201  0.0079  0.7443
   74c3c     HC 1335   4.459   0.731   2.382  0.1520 -0.8516  1.2064
   74c3c     HC 1336   4.526   0.621   2.261  3.4515  1.4022 -2.1744
   74c3c     H1 1337   4.621   0.979   2.510 -2.0472 -0.3863  0.7403
   74c3c     H1 1338   4.547   0.829   2.577 -0.5845  1.3106  0.3208
   74c3c     H1 1339   4.682   0.895   2.651  0.8814  0.4992 -0.0769
   74c3c     H1 1340   4.913   0.817   2.364 -0.9998  1.3665 -0.9386
   74c3c     H1 1341   4.848   0.965   2.401 -0.7168 -0.0024  0.1852
   74c3c     C2 1342   4.945   0.889   2.564 -0.1561  0.1089  0.5426
   74c3c     HC 1343   4.977   0.792   2.603  1.8942 -0.0605 -1.4610
   74c3c     HC 1344   4.885   0.930   2.646  0.3828  1.0282  0.4813
   74c3c     CT 1345   5.068   0.973   2.540 -0.1489 -0.1535 -0.0295
   74c3c     HC 1346   5.042   1.068   2.492  0.1137  0.3213  0.7540
   74c3c     HC 1347   5.147   0.919   2.488 -0.4469 -0.0487 -0.5984
   74c3c     HC 1348   5.115   0.989   2.637 -1.5705 -0.1406  0.6730
   75c3c     N4 1349   4.067   0.588   1.076 -0.2721  0.3209  0.2951
   75c3c     C1 1350   3.978   0.479   1.118  0.8296  0.3612  0.0408
   75c3c     C1 1351   3.990   0.709   1.082 -0.1232  0.1522  0.4277
   75c3c     C2 1352   3.890   0.535   1.226 -0.2814 -0.0832 -0.2581
   75c3c     C2 1353   3.894   0.685   1.193  0.2289  0.2495  0.0761
   75c3c     C1 1354   4.171   0.609   1.182 -0.4151 -0.1503  0.3442
   75c3c     C1 1355   4.132   0.565   0.946  0.0412  0.2387 -0.0155
   75c3c     H1 1356   4.039   0.395   1.152  2.0041  0.1650 -2.4126
   75c3c     H1 1357   3.905   0.461   1.040 -1.6750 -1.3096  2.6814
   75c3c     H1 1358   4.053   0.798   1.087 -0.9314  0.6254  2.4343
   75c3c     H1 1359   3.937   0.715   0.987  1.6228  1.2394 -0.5141
   75c3c     HC 1360   3.926   0.520   1.328  2.2740  1.1462 -0.9248
   75c3c     HC 1361   3.789   0.495   1.231 -0.4363  0.3198 -0.0768
   75c3c     HC 1362   3.933   0.733   1.283  1.7373 -1.5774  0.4344
   75c3c     HC 1363   3.795   0.723   1.169 -0.4971 -2.1670 -0.9022
   75c3c     H1 1364   4.250   0.537   1.202  1.4160  1.6829 -0.2508
   75c3c     H1 1365   4.226   0.700   1.158  0.0116 -0.6560 -0.6232
   75c3c     H1 1366   4.125   0.628   1.280 -0.8016  0.2311  0.0933
   75c3c     H1 1367   4.071   0.567   0.856  2.4385  0.3954 -1.6930
   75c3c     H1 1368   4.195   0.654   0.937  0.9631 -0.2757  1.1174
   75c3c     C2 1369   4.209   0.425   0.944 -0.2572 -0.4650 -0.5394
   75c3c     HC 1370   4.142   0.339   0.946 -0.1424 -0.5782 -1.3472
   75c3c     HC 1371   4.265   0.417   1.037  1.6390 -0.2647 -1.6439
   75c3c     CT 1372   4.285   0.401   0.816 -0.3510 -0.6131 -0.3239
   75c3c     HC 1373   4.328   0.301   0.809  0.7739 -0.2269  0.8030
   75c3c     HC 1374   4.365   0.475   0.800  1.3882 -2.4369 -0.2167
   75c3c     HC 1375   4.213   0.404   0.734 -1.0598  0.9497  0.3298
   76fsi    FSI 1376   2.802   1.228   3.014 -0.0045  0.2787  0.2641
   76fsi    SBT 1377   2.797   1.073   3.039 -0.5269 -0.2643  0.1625
   76fsi    NBT 1378   2.727   1.028   2.907 -0.6157 -0.2537 -0.0673
   76fsi    OBT 1379   2.937   1.034   3.056 -0.2716 -0.5369 -0.3503
   76fsi    OBT 1380   2.698   1.064   3.151 -0.6148  0.0522 -0.1638
   76fsi    SBT 1381   2.791   1.022   2.764  0.1707 -0.0013  0.4458
   76fsi    OBT 1382   2.733   0.930   2.669  0.0215  0.5227  0.2083
   76fsi    OBT 1383   2.929   1.044   2.760 -0.8825 -0.6354 -0.1774
   76fsi    FSI 1384   2.727   1.159   2.713  0.3360 -0.0551  0.8244
   77fsi    FSI 1385   2.311   0.769   3.833  0.5948  0.5647  0.9065
   77fsi    SBT 1386   2.401   0.682   3.753  0.2641 -0.7330  0.0243
   77fsi    NBT 1387   2.416   0.552   3.843  0.2219 -0.1669  0.1064
   77fsi    OBT 1388   2.326   0.661   3.631 -0.4174  0.0648  0.3320
   77fsi    OBT 1389   2.520   0.766   3.748 -0.2875 -0.1369  0.0359
   77fsi    SBT 1390   2.326   0.425   3.855  0.0369  0.0761 -0.1578
   77fsi    OBT 1391   2.395   0.303   3.875 -0.4805 -0.5375  0.3209
   77fsi    OBT 1392   2.209   0.421   3.766 -0.3755 -0.3704  0.2772
   77fsi    FSI 1393   2.257   0.450   3.989 -0.2717 -0.3020 -0.1651
   78fsi    FSI 1394   4.256   1.169   1.250 -0.5196  0.5008 -0.2804
   78fsi    SBT 1395   4.266   1.022   1.187 -0.1727  0.0522  0.2214
   78fsi    NBT 1396   4.419   0.991   1.200  0.1860 -0.3505  0.2325
   78fsi    OBT 1397   4.183   0.951   1.281  0.0075  0.4630  0.5108
   78fsi    OBT 1398   4.220   1.042   1.053  0.1546  0.0131 -0.3266
   78fsi    SBT 1399   4.502   0.910   1.305 -0.2857  0.1481 -0.0140
   78fsi    OBT 1400   4.616   0.847   1.237  0.6965 -0.6409  0.7343
   78fsi    OBT 1401   4.426   0.826   1.396 -0.3867  0.2412  0.8399
   78fsi    FSI 1402   4.565   1.025   1.384 -0.0442  0.1543 -0.2784
   79fsi    FSI 1403   2.296   0.334   3.162  0.3141  0.6231 -0.6872
   79fsi    SBT 1404   2.429   0.359   3.248 -0.4158 -0.1333 -0.2320
   79fsi    NBT 1405   2.464   0.217   3.311 -0.1204  0.0570  0.0813
   79fsi    OBT 1406   2.528   0.395   3.146 -0.1425  0.4766 -0.1627
   79fsi    OBT 1407   2.396   0.456   3.349  0.1731  0.2886  0.8156
   79fsi    SBT 1408   2.405   0.155   3.440 -0.3531  0.0466 -0.0110
   79fsi    OBT 1409   2.321   0.237   3.517 -0.8918 -0.5424  0.0195
   79fsi    OBT 1410   2.505   0.078   3.507 -0.2813  0.5567  0.4865
   79fsi    FSI 1411   2.310   0.051   3.378 -1.0633 -0.0623  0.2006
   80fsi    FSI 1412   3.792   1.699   1.735  0.1709  0.5333  0.0810
   80fsi    SBT 1413   3.705   1.569   1.748  0.1061  0.0013 -0.0568
   80fsi    NBT 1414   3.586   1.609   1.839  0.3164 -0.7164 -0.5113
   80fsi    OBT 1415   3.662   1.544   1.612  0.4037  0.1322  0.6766
   80fsi    OBT 1416   3.796   1.471   1.802  0.5229  0.3259 -0.5986
   80fsi    SBT 1417   3.545   1.572   1.987  0.0308  0.0340 -0.2928
   80fsi    OBT 1418   3.618   1.471   2.057  0.3268  0.5928  0.0886
   80fsi    OBT 1419   3.403   1.569   2.012 -0.7183  0.4852 -0.1900
   80fsi    FSI 1420   3.596   1.705   2.051  0.0560 -0.0252  1.4163
   81fsi    FSI 1421   5.062   0.854   1.390 -0.1056  0.0584 -0.3786
   81fsi    SBT 1422   5.159   0.754   1.470  0.0519  0.0002 -0.4900
   81fsi    NBT 1423   5.291   0.829   1.489  0.5373  0.3742 -0.1047
   81fsi    OBT 1424   5.084   0.716   1.588  0.7948 -0.2920 -0.4055
   81fsi    OBT 1425   5.187   0.652   1.373  0.5094 -0.5950  0.2819
   81fsi    SBT 1426   5.322   0.935   1.598  0.1742 -0.4588  0.0309
   81fsi    OBT 1427   5.437   0.896   1.675 -0.1066  0.6814 -0.0819
   81fsi    OBT 1428   5.204   0.983   1.670  0.2111  0.3914  0.6255
   81fsi    FSI 1429   5.372   1.060   1.520 -0.3875  0.1087 -0.4044
   82fsi    FSI 1430   3.834   5.928   2.849 -0.7271 -0.3054  0.3011
   82fsi    SBT 1431   3.833   6.084   2.824  0.0205 -0.1684  0.3562
   82fsi    NBT 1432   3.687   6.110   2.763 -0.0943  0.2930 -0.2754
   82fsi    OBT 1433   3.870   6.135   2.955  1.5092  0.0649 -0.2416
   82fsi    OBT 1434   3.928   6.105   2.721 -0.0594  0.6029 -0.0972
   82fsi    SBT 1435   3.543   6.132   2.831 -0.4499 -0.0144  0.3619
   82fsi    OBT 1436   3.430   6.126   2.743 -0.2640 -0.4421 -0.0225
   82fsi    OBT 1437   3.546   6.240   2.924  0.0212  0.4825  0.0802
   82fsi    FSI 1438   3.527   6.003   2.918 -0.3306  0.0588 -0.0130
   83fsi    FSI 1439   4.534   0.872   1.717  0.2004  0.8729  0.0867
   83fsi    SBT 1440   4.393   0.890   1.781  0.0297  0.3611 -0.2951
   83fsi    NBT 1441   4.372   1.047   1.774 -0.6946  0.0444  0.5828
   83fsi    OBT 1442   4.312   0.818   1.685 -0.2560 -0.3410 -0.9801
   83fsi    OBT 1443   4.398   0.836   1.916 -0.1370 -0.2488 -0.4883
   83fsi    SBT 1444   4.300   1.136   1.659 -0.4866  0.2242  0.2648
   83fsi    OBT 1445   4.262   1.265   1.719 -0.2414 -0.0038 -0.4970
   83fsi    OBT 1446   4.202   1.070   1.574  0.3985  0.5185 -0.0117
   83fsi    FSI 1447   4.418   1.172   1.561 -0.2973 -0.0594 -0.0848
   84fsi    FSI 1448   5.636   0.906   3.556  0.2677 -0.2554 -1.2483
   84fsi    SBT 1449   5.529   0.929   3.442  0.1267 -0.1192  0.2084
   84fsi    NBT 1450   5.615   0.942   3.309 -0.2202  0.1972  0.0012
   84fsi    OBT 1451   5.437   0.818   3.450  0.8300  0.0192  0.8307
   84fsi    OBT 1452   5.471   1.057   3.478 -0.1104  0.8961  0.5183
   84fsi    SBT 1453   5.657   0.832   3.206 -0.1846 -0.1101 -0.3638
   84fsi    OBT 1454   5.680   0.710   3.270 -0.0029 -0.2688  0.2148
   84fsi    OBT 1455   5.748   0.882   3.103  0.1447  0.5590  0.1162
   84fsi    FSI 1456   5.533   0.797   3.126  0.3177  0.5177  0.0165
   85fsi    FSI 1457   4.846   0.447   4.545  0.0921  0.9560 -0.5880
   85fsi    SBT 1458   4.775   0.546   4.453  0.2420  0.1743  0.1884
   85fsi    NBT 1459   4.624   0.527   4.488 -0.1239  0.5782 -0.1620
   85fsi    OBT 1460   4.843   0.666   4.493 -0.2154 -0.3035  0.5255
   85fsi    OBT 1461   4.811   0.492   4.327  0.3912  0.2650 -0.0895
   85fsi    SBT 1462   4.523   0.426   4.429 -0.3888 -0.0929  0.1022
   85fsi    OBT 1463   4.418   0.405   4.519  0.3650  0.3509 -0.2148
   85fsi    OBT 1464   4.578   0.309   4.374  0.5924 -0.5573  0.0869
   85fsi    FSI 1465   4.453   0.500   4.309  0.1693  0.0727 -0.4704
   86fsi    FSI 1466   5.349   0.751   2.772  0.0596  0.1941 -0.3025
   86fsi    SBT 1467   5.428   0.621   2.815  0.0043  0.1688 -0.0089
   86fsi    NBT 1468   5.573   0.677   2.846  0.1058 -0.3526  0.0743
   86fsi    OBT 1469   5.353   0.567   2.926  0.5235 -1.1382 -0.4546
   86fsi    OBT 1470   5.418   0.543   2.696  0.2730  0.7012  0.4346
   86fsi    SBT 1471   5.702   0.669   2.757  0.3331 -0.2010 -0.3362
   86fsi    OBT 1472   5.794   0.771   2.794  0.0531  0.5785 -0.0228
   86fsi    OBT 1473   5.674   0.655   2.614 -0.1142 -0.5560  0.1411
   86fsi    FSI 1474   5.761   0.528   2.806 -0.1864  0.5543  0.3132
   87fsi    FSI 1475   5.926   0.608   3.037 -0.2088  0.4258  0.1190
   87fsi    SBT 1476   6.076   0.645   3.015  0.1251 -0.0570  0.1841
   87fsi    NBT 1477   6.147   0.511   3.066  0.1558  0.0554  0.3737
   87fsi    OBT 1478   6.087   0.675   2.871 -0.0350 -0.5896  0.5134
   87fsi    OBT 1479   6.097   0.752   3.110 -0.1558 -0.5189  0.7391
   87fsi    SBT 1480   6.194   0.404   2.966  0.3905 -0.4264  0.1204
   87fsi    OBT 1481   6.312   0.435   2.892 -0.7821 -0.3081  0.3886
   87fsi    OBT 1482   6.077   0.355   2.898 -0.7305 -0.5607 -0.4555
   87fsi    FSI 1483   6.241   0.287   3.065 -0.4860 -0.2342  0.3167
   88fsi    FSI 1484   2.974   1.662   3.565  0.0452  0.4287  0.0337
   88fsi    SBT 1485   3.024   1.509   3.572 -0.0139 -0.0877 -0.0875
   88fsi    NBT 1486   3.057   1.466   3.428  0.5595  0.0141  0.0589
   88fsi    OBT 1487   3.139   1.516   3.655  0.0345  0.5680  0.0386
   88fsi    OBT 1488   2.915   1.435   3.625  0.2924  0.2220  0.1785
   88fsi    SBT 1489   2.955   1.432   3.312  0.0085  0.4945 -0.2392
   88fsi    OBT 1490   2.822   1.488   3.326  0.5135 -0.7706  0.2152
   88fsi    OBT 1491   2.977   1.299   3.257  0.0993 -0.8319  0.5839
   88fsi    FSI 1492   3.022   1.524   3.195 -0.2004  0.3593 -0.0784
   89fsi    FSI 1493   3.658   0.981   2.799 -0.1350 -0.2419 -0.1909
   89fsi    SBT 1494   3.685   0.920   2.938 -0.3436  0.4390 -0.5327
   89fsi    NBT 1495   3.676   0.766   2.906 -0.2433  1.0434 -0.0333
   89fsi    OBT 1496   3.813   0.973   2.968  0.2760 -0.3792  0.1394
   89fsi    OBT 1497   3.579   0.964   3.028 -0.0273 -0.4382  0.3780
   89fsi    SBT 1498   3.773   0.654   2.922  0.1570  0.4028  0.0044
   89fsi    OBT 1499   3.907   0.693   2.901  0.6130 -0.2628 -0.3280
   89fsi    OBT 1500   3.725   0.535   2.857 -0.0667 -0.5238 -0.2200
   89fsi    FSI 1501   3.765   0.621   3.075 -0.1258 -0.2203 -0.1056
   90fsi    FSI 1502   3.610   0.010   1.903 -0.5371  0.0682  0.6615
   90fsi    SBT 1503   3.707   0.135   1.899 -0.4302 -0.0679  0.0160
   90fsi    NBT 1504   3.609   0.258   1.894 -0.2440 -0.2795 -0.0991
   90fsi    OBT 1505   3.786   0.124   2.020 -0.6629  0.0822 -0.6811
   90fsi    OBT 1506   3.777   0.109   1.775 -0.2069 -0.1257  0.1009
   90fsi    SBT 1507   3.622   0.397   1.967 -0.6134 -0.4375 -0.3590
   90fsi    OBT 1508   3.596   0.506   1.875 -0.5768 -0.2143  0.6434
   90fsi    OBT 1509   3.732   0.411   2.058 -0.6473  0.3282 -0.1984
   90fsi    FSI 1510   3.502   0.398   2.069  0.8110 -0.3261  0.3566
   91fsi    FSI 1511   4.838   1.046   3.734 -0.0849  0.0544  0.2010
   91fsi    SBT 1512   4.775   0.946   3.633  0.5227  0.0676 -0.2683
   91fsi    NBT 1513   4.881   0.919   3.519 -0.9041  0.0111  0.5709
   91fsi    OBT 1514   4.737   0.838   3.722  0.0376  0.0255  0.3319
   91fsi    OBT 1515   4.663   1.016   3.579  0.0811 -0.1425 -0.1883
   91fsi    SBT 1516   4.983   0.802   3.509 -0.3824  0.1125 -0.1580
   91fsi    OBT 1517   4.996   0.758   3.374  0.2216  0.7542  0.2719
   91fsi    OBT 1518   4.975   0.709   3.611 -0.4980 -0.3693  0.1049
   91fsi    FSI 1519   5.120   0.867   3.534 -0.6582 -0.2543 -0.2508
   92fsi    FSI 1520   4.976   0.925   4.029 -0.0737  0.6089  0.1285
   92fsi    SBT 1521   4.992   0.778   4.060  0.2070  0.0389 -0.1684
   92fsi    NBT 1522   5.143   0.773   4.100  0.1001 -0.0319 -0.1550
   92fsi    OBT 1523   4.892   0.765   4.157 -0.5716 -0.0908 -0.7565
   92fsi    OBT 1524   4.973   0.714   3.935  0.2825 -0.0296  0.3566
   92fsi    SBT 1525   5.200   0.818   4.241 -0.2404  0.3364  0.1097
   92fsi    OBT 1526   5.325   0.748   4.266  0.5881  0.0446 -0.0851
   92fsi    OBT 1527   5.117   0.836   4.355 -0.6821 -0.5617 -0.5089
   92fsi    FSI 1528   5.259   0.964   4.220 -0.1767 -0.5512  0.5352
   93fsi    FSI 1529   4.047   0.545   4.392  0.1325  0.5209  0.1364
   93fsi    SBT 1530   4.049   0.559   4.240  0.4942 -0.1945 -0.1079
   93fsi    NBT 1531   3.954   0.680   4.228 -0.7070  0.2275  0.2468
   93fsi    OBT 1532   4.190   0.583   4.209 -0.1903  0.1639 -0.0334
   93fsi    OBT 1533   3.992   0.431   4.202 -0.1170  0.2123 -0.0093
   93fsi    SBT 1534   3.962   0.835   4.212 -0.2541  0.2799 -0.2804
   93fsi    OBT 1535   3.876   0.879   4.107  0.2424 -0.4369 -0.0442
   93fsi    OBT 1536   4.099   0.876   4.215 -0.2646 -0.2178 -0.1105
   93fsi    FSI 1537   3.905   0.891   4.343  0.3814 -0.1423 -0.4236
   94fsi    FSI 1538   3.978   0.977   3.236 -0.1930 -0.3621  0.0627
   94fsi    SBT 1539   3.867   0.959   3.351 -0.4708 -0.1554 -0.0727
   94fsi    NBT 1540   3.944   0.892   3.471  0.1145 -0.3932  0.0138
   94fsi    OBT 1541   3.830   1.090   3.380 -0.1315  0.2489  0.5710
   94fsi    OBT 1542   3.770   0.875   3.284  0.3788 -0.4891 -0.0816
   94fsi    SBT 1543   4.003   0.952   3.604 -0.3168 -0.1603 -0.4416
   94fsi    OBT 1544   4.008   1.096   3.617  0.4950 -0.7405  0.7165
   94fsi    OBT 1545   4.123   0.875   3.625  0.5579  0.0134 -0.5318
   94fsi    FSI 1546   3.913   0.916   3.726  0.2784 -0.0256 -0.1426
   95fsi    FSI 1547   3.092   0.729   3.782 -0.2223  0.2165 -0.6213
   95fsi    SBT 1548   3.005   0.742   3.651  0.3001  0.1381 -0.4937
   95fsi    NBT 1549   3.021   0.892   3.602 -0.0795 -0.4472  0.1360
   95fsi    OBT 1550   3.058   0.643   3.561 -0.5355  0.0278  0.1981
   95fsi    OBT 1551   2.876   0.716   3.705  0.1417 -0.4322  0.1472
   95fsi    SBT 1552   3.097   0.955   3.475  0.0518  0.0008 -0.1172
   95fsi    OBT 1553   3.018   1.040   3.386 -0.4583 -0.2596 -0.3296
   95fsi    OBT 1554   3.181   0.856   3.406  0.3134 -0.1482  1.0846
   95fsi    FSI 1555   3.198   1.060   3.535 -0.1273 -0.1141  0.3121
   96fsi    FSI 1556   5.861   0.752   3.531  0.4225 -0.1308 -0.0129
   96fsi    SBT 1557   5.991   0.846   3.542 -0.0083  0.0338 -0.4337
   96fsi    NBT 1558   6.097   0.746   3.598  0.2030  0.6852  0.5244
   96fsi    OBT 1559   6.006   0.898   3.406  0.0755  0.0947 -0.0774
   96fsi    OBT 1560   5.947   0.935   3.644 -0.0806  0.1426  0.0243
   96fsi    SBT 1561   6.223   0.690   3.526 -0.1777  0.4995  0.4294
   96fsi    OBT 1562   6.212   0.679   3.384  0.2670  0.0863  0.3433
   96fsi    OBT 1563   6.278   0.577   3.592 -0.3808 -0.6410  0.2620
   96fsi    FSI 1564   6.340   0.796   3.552 -0.3985 -0.0668  0.0994
   97fsi    FSI 1565   4.000   1.719   3.692  0.1173 -0.0148  0.2783
   97fsi    SBT 1566   4.007   1.575   3.634 -0.1938 -0.0884 -0.4012
   97fsi    NBT 1567   4.163   1.538   3.635  0.9502  0.1401  0.4659
   97fsi    OBT 1568   3.935   1.499   3.734  0.4180  0.3873  0.1006
   97fsi    OBT 1569   3.935   1.582   3.511 -0.6442  0.4010  0.1315
   97fsi    SBT 1570   4.262   1.531   3.512 -0.3441 -0.4868  0.1309
   97fsi    OBT 1571   4.398   1.552   3.565 -0.2167  0.1279  0.2508
   97fsi    OBT 1572   4.211   1.606   3.396 -0.0978  0.7103 -0.1845
   97fsi    FSI 1573   4.253   1.380   3.469 -0.4707  0.6158  0.2761
   98fsi    FSI 1574   4.837   1.310   4.342  0.7874  0.4489  0.1841
   98fsi    SBT 1575   4.817   1.200   4.239 -0.0982 -0.0473 -0.4069
   98fsi    NBT 1576   4.663   1.158   4.262  0.1252 -0.4299  0.7860
   98fsi    OBT 1577   4.840   1.272   4.115  0.1541 -0.0494 -0.0156
   98fsi    OBT 1578   4.918   1.101   4.273 -0.0945 -0.1851  0.0518
   98fsi    SBT 1579   4.605   1.035   4.335  0.0181  0.2145  0.1782
   98fsi    OBT 1580   4.698   0.926   4.343  0.6525 -0.1481 -0.4457
   98fsi    OBT 1581   4.472   1.001   4.294 -0.5255 -0.3148 -0.6984
   98fsi    FSI 1582   4.585   1.089   4.487 -0.1868  0.0459 -0.3754
   99fsi    FSI 1583   2.587   1.137   1.905  0.4277  0.0682 -0.0312
   99fsi    SBT 1584   2.740   1.118   1.886  0.0392 -0.2325  0.1390
   99fsi    NBT 1585   2.804   1.245   1.962 -0.3298  0.4764 -0.3715
   99fsi    OBT 1586   2.759   0.987   1.950  0.3343 -0.3441  0.4391
   99fsi    OBT 1587   2.748   1.117   1.743 -0.3654  0.1541  0.1768
   99fsi    SBT 1588   2.909   1.258   2.081  0.1278 -0.1335  0.1444
   99fsi    OBT 1589   2.935   1.395   2.112  0.0231 -0.6668 -0.3146
   99fsi    OBT 1590   3.020   1.169   2.077 -0.4999  0.1556  0.5772
   99fsi    FSI 1591   2.833   1.211   2.211  0.0477 -0.1688 -0.0405
  100fsi    FSI 1592   2.842   0.235   2.275 -0.2144 -0.4615  0.2200
  100fsi    SBT 1593   2.946   0.298   2.175  0.1083 -0.0475 -0.6400
  100fsi    NBT 1594   3.005   0.412   2.270  0.2150  0.7292  0.4064
  100fsi    OBT 1595   3.028   0.181   2.142 -0.4568 -0.5683  0.3782
  100fsi    OBT 1596   2.864   0.356   2.075  0.6019  0.3487  0.1239
  100fsi    SBT 1597   3.140   0.416   2.346  0.2926  0.3075 -0.1134
  100fsi    OBT 1598   3.201   0.283   2.353  0.1201  0.1992 -0.2278
  100fsi    OBT 1599   3.137   0.482   2.474  0.2685  0.5030  0.5204
  100fsi    FSI 1600   3.239   0.504   2.252 -0.7080  0.0853 -0.2254
  101fsi    FSI 1601   4.184   0.717   5.163 -0.3977 -0.0353  0.4557
  101fsi    SBT 1602   4.130   0.579   5.117 -0.4384  0.2003  0.1009
  101fsi    NBT 1603   3.983   0.572   5.180  0.0970 -0.1041 -0.0995
  101fsi    OBT 1604   4.140   0.586   4.973  0.0324  0.4656  0.7287
  101fsi    OBT 1605   4.221   0.492   5.189 -0.6930  0.1368  0.5178
  101fsi    SBT 1606   3.847   0.583   5.100 -0.4439 -0.0180  0.2328
  101fsi    OBT 1607   3.855   0.577   4.956 -0.0008  0.5369 -0.0987
  101fsi    OBT 1608   3.753   0.673   5.156 -0.1087 -0.6689  0.5162
  101fsi    FSI 1609   3.779   0.450   5.134  0.0962  0.4056  0.4039
  102fsi    FSI 1610   3.296   1.467   2.922 -0.1021 -0.0864 -0.5460
  102fsi    SBT 1611   3.320   1.318   2.946 -0.1787 -0.3455  0.2623
  102fsi    NBT 1612   3.412   1.311   3.071 -0.3979  0.1996  0.0411
  102fsi    OBT 1613   3.187   1.279   2.970  0.0677 -0.3614 -0.2245
  102fsi    OBT 1614   3.385   1.273   2.823  0.4139 -0.1895 -0.1062
  102fsi    SBT 1615   3.382   1.249   3.209  0.2371 -0.3404  0.1245
  102fsi    OBT 1616   3.503   1.211   3.277 -0.2387  0.5379  0.0472
  102fsi    OBT 1617   3.280   1.149   3.212  0.4500  0.2497  0.4752
  102fsi    FSI 1618   3.332   1.365   3.295 -0.1728  0.4052 -0.4285
  103fsi    FSI 1619   3.543   0.895   1.497  0.4800 -0.6535  0.1616
  103fsi    SBT 1620   3.631   0.763   1.490 -0.5563 -0.6320  0.1445
  103fsi    NBT 1621   3.786   0.807   1.487  0.3264 -0.0154  0.3250
  103fsi    OBT 1622   3.594   0.688   1.607  0.0652  0.2754  0.0216
  103fsi    OBT 1623   3.591   0.711   1.364 -0.1567  0.1594 -0.2223
  103fsi    SBT 1624   3.896   0.770   1.596  0.1822  0.3597  0.2508
  103fsi    OBT 1625   3.847   0.766   1.733 -0.3120  0.1896 -0.1886
  103fsi    OBT 1626   4.020   0.839   1.571 -0.0369  0.2403  0.5772
  103fsi    FSI 1627   3.931   0.616   1.564  0.4205  0.3947 -0.3758
  104fsi    FSI 1628   3.045   0.749   1.234 -0.2252  0.4325 -0.3323
  104fsi    SBT 1629   3.188   0.739   1.302 -0.0854 -0.3190 -0.0114
  104fsi    NBT 1630   3.198   0.583   1.328 -0.4528 -0.6831 -0.0917
  104fsi    OBT 1631   3.283   0.788   1.205  0.3610 -0.2953  0.9249
  104fsi    OBT 1632   3.174   0.814   1.427  0.1236 -0.1553 -0.3658
  104fsi    SBT 1633   3.273   0.470   1.244  0.1984 -0.1417 -0.1369
  104fsi    OBT 1634   3.296   0.346   1.307  0.3279  0.0732  0.1359
  104fsi    OBT 1635   3.385   0.524   1.169 -0.4834 -0.1301 -0.0199
  104fsi    FSI 1636   3.167   0.443   1.143 -0.4089  0.5747 -0.0126
  105fsi    FSI 1637   5.982   0.661   4.018 -0.2209  0.5269  0.3949
  105fsi    SBT 1638   6.083   0.535   4.006 -0.2175  0.4742  0.4255
  105fsi    NBT 1639   5.977   0.435   3.946  0.4431 -0.9480 -0.0650
  105fsi    OBT 1640   6.191   0.577   3.908  0.4122  0.0256 -0.0617
  105fsi    OBT 1641   6.113   0.500   4.142  0.4477  0.0158 -0.2508
  105fsi    SBT 1642   5.956   0.390   3.797  0.1657 -0.1070 -0.3513
  105fsi    OBT 1643   5.854   0.287   3.777  0.0876  0.1529  0.1192
  105fsi    OBT 1644   6.075   0.374   3.720 -0.0646 -0.1795 -0.1532
  105fsi    FSI 1645   5.886   0.520   3.731  0.0264  0.7020 -0.0714
  106fsi    FSI 1646   4.372   0.777   3.031  0.2862 -0.4431  0.5741
  106fsi    SBT 1647   4.256   0.837   3.113  0.2547 -0.3585  0.1459
  106fsi    NBT 1648   4.330   0.933   3.224  0.3972  0.0449  0.4310
  106fsi    OBT 1649   4.179   0.909   3.017  0.0894  0.3193  0.7377
  106fsi    OBT 1650   4.198   0.717   3.167  0.1553 -0.0600  0.3467
  106fsi    SBT 1651   4.306   1.085   3.254  0.4850 -0.3054 -0.1834
  106fsi    OBT 1652   4.214   1.163   3.176  0.0422 -0.0458 -0.2938
  106fsi    OBT 1653   4.426   1.151   3.288 -0.0900  0.6337 -0.1703
  106fsi    FSI 1654   4.226   1.069   3.391 -0.1145  0.2355 -0.2318
  107fsi    FSI 1655   4.066   0.270   5.973 -0.3772  0.0514 -0.2179
  107fsi    SBT 1656   3.971   0.379   6.031  0.2771 -0.0937  0.2882
  107fsi    NBT 1657   3.881   0.290   6.135  0.0535 -0.2555  0.8051
  107fsi    OBT 1658   4.068   0.462   6.100 -0.2121 -0.3385  0.2743
  107fsi    OBT 1659   3.903   0.432   5.913 -0.1558  0.2739  0.1723
  107fsi    SBT 1660   3.720   0.281   6.137  0.2102 -0.3964 -0.2183
  107fsi    OBT 1661   3.659   0.400   6.087  0.3449  0.5404 -0.2490
  107fsi    OBT 1662   3.663   0.227   6.254  0.0357  0.4342 -0.7079
  107fsi    FSI 1663   3.690   0.167   6.027 -0.0855  0.2129  0.2798
  108fsi    FSI 1664   0.605   0.599   3.703  0.1021  0.4182  0.5762
  108fsi    SBT 1665   0.473   0.680   3.697 -0.1020  0.2847  0.1538
  108fsi    NBT 1666   0.508   0.802   3.788  0.0928 -0.1719  0.2322
  108fsi    OBT 1667   0.458   0.707   3.553 -0.2873  0.1158 -0.3953
  108fsi    OBT 1668   0.376   0.589   3.755 -0.2442 -0.0816 -0.0168
  108fsi    SBT 1669   0.591   0.936   3.754  0.1557  0.0099  0.1295
  108fsi    OBT 1670   0.521   1.058   3.783 -0.0730  0.1492 -0.9817
  108fsi    OBT 1671   0.664   0.925   3.632 -0.4316 -0.5302 -0.0845
  108fsi    FSI 1672   0.706   0.940   3.869  0.0037 -0.1366  0.1966
  109fsi    FSI 1673   3.543   0.547   3.275  0.1144 -0.1739  0.4981
  109fsi    SBT 1674   3.423   0.650   3.302  0.5495  0.1505  0.1639
  109fsi    NBT 1675   3.418   0.658   3.458 -0.0525  0.3034 -0.0064
  109fsi    OBT 1676   3.459   0.768   3.232 -0.2467  0.5129 -0.6781
  109fsi    OBT 1677   3.308   0.579   3.247  0.0682  0.3700 -0.0051
  109fsi    SBT 1678   3.463   0.770   3.553  0.2369 -0.2659  0.0215
  109fsi    OBT 1679   3.387   0.775   3.677  0.1279  0.1997  0.3897
  109fsi    OBT 1680   3.500   0.897   3.496 -0.3822  0.4838 -0.4517
  109fsi    FSI 1681   3.599   0.715   3.606  0.1598 -0.5419 -0.3090
  110fsi    FSI 1682   3.747   0.678   3.948 -0.3152 -0.2644 -0.5201
  110fsi    SBT 1683   3.625   0.618   4.025  0.0036 -0.2699 -0.0279
  110fsi    NBT 1684   3.583   0.739   4.117 -0.5573 -0.3297 -0.0456
  110fsi    OBT 1685   3.530   0.572   3.927 -0.4097  0.2181 -0.0449
  110fsi    OBT 1686   3.690   0.516   4.101  0.1435  0.2166 -0.7319
  110fsi    SBT 1687   3.478   0.853   4.101  0.0208 -0.0148 -0.0444
  110fsi    OBT 1688   3.380   0.854   4.204  0.1763 -0.4594 -0.2636
  110fsi    OBT 1689   3.424   0.862   3.967 -0.0632  0.4770 -0.1300
  110fsi    FSI 1690   3.561   0.989   4.107  0.4725  0.3482  0.3245
  111fsi    FSI 1691   3.362   0.222   4.324  0.0912 -0.5933  0.0807
  111fsi    SBT 1692   3.447   0.311   4.224  0.0737 -0.1779 -0.0187
  111fsi    NBT 1693   3.354   0.435   4.200  0.7302 -0.6710  0.1410
  111fsi    OBT 1694   3.567   0.355   4.294  0.3650 -0.6027  0.3708
  111fsi    OBT 1695   3.464   0.230   4.108 -0.5827  0.0950 -0.2271
  111fsi    SBT 1696   3.225   0.443   4.107 -0.0682 -0.0874  0.1134
  111fsi    OBT 1697   3.189   0.315   4.052 -0.4236 -0.1659 -0.2230
  111fsi    OBT 1698   3.216   0.560   4.024 -0.2441  0.0901  0.3888
  111fsi    FSI 1699   3.121   0.461   4.222  0.1286 -1.3672 -0.2556
  112fsi    FSI 1700   2.717   0.570   2.812  0.1703 -0.3494 -0.3338
  112fsi    SBT 1701   2.747   0.441   2.734 -0.1285 -0.1085 -0.4419
  112fsi    NBT 1702   2.611   0.408   2.675  0.6824 -0.5347  0.4225
  112fsi    OBT 1703   2.847   0.492   2.645 -0.0645  0.4078  0.3979
  112fsi    OBT 1704   2.788   0.349   2.836  0.1421 -0.7223  0.2491
  112fsi    SBT 1705   2.499   0.303   2.713 -0.0152 -0.3552 -0.2053
  112fsi    OBT 1706   2.483   0.287   2.856 -0.3407  0.1228  0.0289
  112fsi    OBT 1707   2.489   0.186   2.633 -0.4080  0.4179  0.4757
  112fsi    FSI 1708   2.369   0.383   2.678  0.7340  0.3600  0.5192
  113fsi    FSI 1709   4.280   5.943   3.318  0.3071  0.5286 -0.4851
  113fsi    SBT 1710   4.334   6.032   3.428  0.3686  0.1187  0.0923
  113fsi    NBT 1711   4.295   6.181   3.378 -0.0394  0.3897 -0.0195
  113fsi    OBT 1712   4.258   5.993   3.547 -0.1881  0.2628 -0.4659
  113fsi    OBT 1713   4.477   6.002   3.430  0.0546 -0.1589 -0.1480
  113fsi    SBT 1714   4.234   6.291   3.474 -0.0176 -0.1026  0.1871
  113fsi    OBT 1715   4.267   6.426   3.422  0.2011 -0.9785 -0.3774
  113fsi    OBT 1716   4.258   6.274   3.617 -0.2102  0.0686 -0.1625
  113fsi    FSI 1717   4.076   6.280   3.460  0.0937 -0.3276 -0.4701
  114fsi    FSI 1718   5.846   1.467   2.050 -0.1686 -0.1160  0.0023
  114fsi    SBT 1719   5.821   1.316   2.097 -0.2412  0.2308  0.0982
  114fsi    NBT 1720   5.737   1.248   1.982  0.2650 -0.0478 -0.0949
  114fsi    OBT 1721   5.950   1.250   2.105  0.2415 -0.3342 -0.7987
  114fsi    OBT 1722   5.747   1.336   2.221  0.5220  0.2504  0.1399
  114fsi    SBT 1723   5.791   1.157   1.863 -0.5619 -0.2744 -0.6084
  114fsi    OBT 1724   5.686   1.117   1.777 -0.3271 -0.2432  0.0523
  114fsi    OBT 1725   5.886   1.050   1.902  0.8182 -0.0635  0.0333
  114fsi    FSI 1726   5.886   1.247   1.769 -0.0751  0.2442 -0.0131
  115fsi    FSI 1727   3.951   1.047   0.805 -0.1702 -0.0113  0.3270
  115fsi    SBT 1728   3.882   0.914   0.747  0.1964  0.0567  0.1367
  115fsi    NBT 1729   3.797   0.881   0.871  0.3402 -0.4503 -0.1826
  115fsi    OBT 1730   3.805   0.958   0.635 -0.0519 -0.0166  0.6444
  115fsi    OBT 1731   3.997   0.833   0.722 -0.5806  0.3349  0.0437
  115fsi    SBT 1732   3.651   0.934   0.898  0.1254  0.3642  0.3911
  115fsi    OBT 1733   3.627   1.072   0.883 -0.5438  0.1414  0.4827
  115fsi    OBT 1734   3.597   0.883   1.016 -0.2682 -0.4347  0.6500
  115fsi    FSI 1735   3.569   0.858   0.794  0.2493 -0.4543  0.3923
  116fsi    FSI 1736   2.756   0.683   3.259  0.7030 -0.0420  0.6049
  116fsi    SBT 1737   2.874   0.645   3.152 -0.0316  0.1496  0.0138
  116fsi    NBT 1738   2.846   0.496   3.108 -0.5630 -0.8701 -0.8254
  116fsi    OBT 1739   2.861   0.733   3.040  0.1712  0.5236 -0.3824
  116fsi    OBT 1740   2.995   0.659   3.232 -0.1090 -0.1534 -0.2609
  116fsi    SBT 1741   2.904   0.365   3.172 -0.5620  0.0064 -0.0710
  116fsi    OBT 1742   2.830   0.253   3.123  0.4903 -0.1963 -0.0642
  116fsi    OBT 1743   2.945   0.368   3.310 -0.7249  1.0070 -0.1248
  116fsi    FSI 1744   3.043   0.340   3.100  0.3117 -0.5085  0.0923
  117fsi    FSI 1745   4.399   0.271   4.006 -0.0998  0.4980 -0.8485
  117fsi    SBT 1746   4.511   0.372   3.966 -0.0497  0.1241 -0.6541
  117fsi    NBT 1747   4.452   0.508   4.012  0.0772  0.3843 -0.2166
  117fsi    OBT 1748   4.616   0.342   4.058  0.2249 -0.0564 -0.1905
  117fsi    OBT 1749   4.518   0.354   3.822  0.2576 -0.1391  0.0397
  117fsi    SBT 1750   4.509   0.656   3.993 -0.3614  0.7405 -0.2533
  117fsi    OBT 1751   4.636   0.656   3.924 -0.7521  0.6578 -0.0285
  117fsi    OBT 1752   4.486   0.736   4.111 -0.5952 -0.4264  0.1989
  117fsi    FSI 1753   4.409   0.718   3.886 -0.4331 -0.5119 -0.2052
  118fsi    FSI 1754   3.755   6.127   4.152  1.0982 -0.0744 -0.0554
  118fsi    SBT 1755   3.786   6.212   4.020  0.6367  0.3114 -0.1807
  118fsi    NBT 1756   3.928   6.168   3.992  0.3633 -0.0034 -0.2944
  118fsi    OBT 1757   3.688   6.171   3.922  0.1720  0.0794  0.0365
  118fsi    OBT 1758   3.775   6.351   4.055 -0.0901 -0.2859  0.2306
  118fsi    SBT 1759   4.000   6.134   3.859  0.2201  0.2928 -0.2080
  118fsi    OBT 1760   4.142   6.126   3.874 -0.4405 -0.4545  0.2016
  118fsi    OBT 1761   3.949   6.192   3.739 -0.0507  0.1764 -0.1510
  118fsi    FSI 1762   3.953   5.987   3.849  0.2803 -0.0447  0.0983
  119fsi    FSI 1763   4.998   0.453   4.106 -0.2573  0.2596 -0.2192
  119fsi    SBT 1764   4.998   0.338   4.003 -0.0265  0.0531 -0.1196
  119fsi    NBT 1765   4.901   0.399   3.894 -0.2210  0.5804 -0.1357
  119fsi    OBT 1766   5.137   0.327   3.962 -0.6536  0.5338 -0.3826
  119fsi    OBT 1767   4.934   0.231   4.080 -0.0972 -0.0019 -0.4133
  119fsi    SBT 1768   4.884   0.375   3.737 -0.1549 -0.2965 -0.5707
  119fsi    OBT 1769   5.006   0.340   3.670  0.4736  0.6102 -0.2897
  119fsi    OBT 1770   4.805   0.476   3.679  0.8611  0.0475  0.3492
  119fsi    FSI 1771   4.799   0.248   3.730  0.0514 -0.0577  0.5733
  120fsi    FSI 1772   5.684   1.119   4.188  0.1317  0.1115 -0.0247
  120fsi    SBT 1773   5.722   1.074   4.037 -0.4960  0.3916 -0.2049
  120fsi    NBT 1774   5.792   1.200   3.967  0.2847 -0.0879  0.1143
  120fsi    OBT 1775   5.809   0.960   4.045 -0.4024 -0.1580  0.2467
  120fsi    OBT 1776   5.590   1.056   3.987  0.3239 -0.1468 -0.9395
  120fsi    SBT 1777   5.886   1.306   4.026  0.3989  0.0343 -0.0590
  120fsi    OBT 1778   5.967   1.360   3.921  0.3031 -0.0213  0.4546
  120fsi    OBT 1779   5.946   1.275   4.155 -0.2351  0.1041 -0.2129
  120fsi    FSI 1780   5.773   1.419   4.057  0.0709 -0.0799 -0.4303
  121fsi    FSI 1781   3.281   0.906   2.059 -0.2783  0.5510 -0.2458
  121fsi    SBT 1782   3.310   0.877   1.916 -0.1080  0.1633  0.3061
  121fsi    NBT 1783   3.387   1.005   1.870  0.1068  0.7564 -0.0216
  121fsi    OBT 1784   3.386   0.750   1.925  0.0949  0.1554 -0.2253
  121fsi    OBT 1785   3.184   0.873   1.843 -0.3990 -0.2408  0.0278
  121fsi    SBT 1786   3.535   1.035   1.839  0.0326  0.0195 -0.1263
  121fsi    OBT 1787   3.549   1.119   1.725  0.5024  0.2924 -0.6682
  121fsi    OBT 1788   3.618   0.920   1.838 -0.2049 -0.2490 -0.5562
  121fsi    FSI 1789   3.586   1.120   1.959 -0.6059 -0.0881 -0.0238
  122fsi    FSI 1790   4.507   5.711   3.896 -0.1836  0.0801  0.1328
  122fsi    SBT 1791   4.449   5.839   3.961  0.2815 -0.0898  0.2599
  122fsi    NBT 1792   4.579   5.929   3.970 -0.0783 -0.2138  0.1093
  122fsi    OBT 1793   4.352   5.886   3.869 -0.1484  0.4623 -0.3383
  122fsi    OBT 1794   4.404   5.799   4.087  0.2616  0.3821  0.2608
  122fsi    SBT 1795   4.623   6.058   3.894 -0.1478 -0.2112 -0.0593
  122fsi    OBT 1796   4.528   6.104   3.797  0.4349  0.4505  0.0540
  122fsi    OBT 1797   4.756   6.059   3.846 -0.0281 -0.4565  0.0077
  122fsi    FSI 1798   4.621   6.167   4.009 -0.1246 -0.1037  0.1442
  123fsi    FSI 1799   5.367   1.105   2.655  0.5715 -0.2491  0.0667
  123fsi    SBT 1800   5.513   1.048   2.647 -0.2664 -0.4242  0.4902
  123fsi    NBT 1801   5.591   1.168   2.589 -0.3548  0.4069  0.0690
  123fsi    OBT 1802   5.546   1.012   2.784  0.2208  0.0061  0.6763
  123fsi    OBT 1803   5.504   0.943   2.555  0.1341  0.1136 -0.3625
  123fsi    SBT 1804   5.733   1.220   2.637 -0.1633  0.3052  0.5931
  123fsi    OBT 1805   5.817   1.117   2.695 -0.0625  0.8314  0.3575
  123fsi    OBT 1806   5.718   1.344   2.707  0.4270  0.0225  0.3248
  123fsi    FSI 1807   5.810   1.252   2.503 -0.1408  0.2166 -0.1841
  124fsi    FSI 1808   2.437   6.099   2.841  0.5945  0.2018  0.4908
  124fsi    SBT 1809   2.528   6.106   2.967 -0.1153 -0.1076  0.2547
  124fsi    NBT 1810   2.590   5.963   2.985  0.9220  0.0920  0.2670
  124fsi    OBT 1811   2.627   6.209   2.943 -1.0109  0.2710 -0.6824
  124fsi    OBT 1812   2.433   6.132   3.070  0.7544  0.5925 -1.1876
  124fsi    SBT 1813   2.709   5.895   2.918  0.2697 -0.2194  0.5130
  124fsi    OBT 1814   2.817   5.867   3.007  0.4438 -0.1034 -0.7007
  124fsi    OBT 1815   2.741   5.945   2.787 -0.2379 -0.5203 -0.0414
  124fsi    FSI 1816   2.658   5.748   2.873 -0.1372 -0.0170 -0.0360
  125fsi    FSI 1817   4.384   0.653   2.724 -0.5047 -0.0906  0.7928
  125fsi    SBT 1818   4.245   0.668   2.653  0.1713 -0.2177  0.1146
  125fsi    NBT 1819   4.202   0.520   2.634  0.0880  0.3171 -0.2212
  125fsi    OBT 1820   4.171   0.734   2.761 -0.7655 -0.2996 -0.3982
  125fsi    OBT 1821   4.274   0.738   2.530 -0.1078  0.1784 -0.4205
  125fsi    SBT 1822   4.240   0.423   2.516  0.0556 -0.3737  0.0706
  125fsi    OBT 1823   4.286   0.486   2.396 -0.0561  0.4330 -0.0824
  125fsi    OBT 1824   4.150   0.314   2.504  0.6175  0.5980 -0.2027
  125fsi    FSI 1825   4.369   0.347   2.568 -0.4412  0.4650  0.2575
  126fsi    FSI 1826   5.545   1.097   2.184 -0.1299 -0.0496 -0.7588
  126fsi    SBT 1827   5.614   0.958   2.170  0.0794  0.3634 -0.0588
  126fsi    NBT 1828   5.763   0.986   2.201  0.6063  0.3878  0.1228
  126fsi    OBT 1829   5.545   0.877   2.264 -0.3364  0.3258 -0.3272
  126fsi    OBT 1830   5.594   0.933   2.028 -0.3233  0.3564  0.2725
  126fsi    SBT 1831   5.847   0.907   2.309  0.1341 -0.2105  0.1005
  126fsi    OBT 1832   5.983   0.962   2.307 -0.4676 -0.0297 -0.2523
  126fsi    OBT 1833   5.825   0.766   2.303 -0.1641 -0.8266 -0.2961
  126fsi    FSI 1834   5.781   0.957   2.447 -0.4249  0.1033 -0.1544
  127fsi    FSI 1835   5.206   0.676   2.228  0.5523  0.2842  0.4586
  127fsi    SBT 1836   5.231   0.615   2.369 -0.0633 -0.7466  0.0864
  127fsi    NBT 1837   5.303   0.478   2.339 -0.4086  0.5547 -0.4663
  127fsi    OBT 1838   5.318   0.704   2.445  0.6420  0.3271  0.4008
  127fsi    OBT 1839   5.098   0.586   2.416 -0.3911 -0.5346  0.4077
  127fsi    SBT 1840   5.457   0.449   2.313 -0.0395  0.2109  0.2821
  127fsi    OBT 1841   5.539   0.568   2.313  0.7510  0.4907 -0.2610
  127fsi    OBT 1842   5.482   0.353   2.206  0.1722  0.3884 -0.1072
  127fsi    FSI 1843   5.502   0.373   2.434  0.1408 -0.1391  0.2382
  128fsi    FSI 1844   3.078   5.939   3.990  0.2277 -0.3034  0.0293
  128fsi    SBT 1845   3.091   6.047   3.873  0.1725 -0.1662  0.3721
  128fsi    NBT 1846   3.159   5.968   3.756  0.2103 -0.1460 -0.0283
  128fsi    OBT 1847   2.952   6.077   3.854 -0.2882  0.4359  0.0688
  128fsi    OBT 1848   3.175   6.154   3.927 -0.0212  0.1885 -0.1433
  128fsi    SBT 1849   3.305   5.957   3.711 -0.4133 -0.1236 -0.1786
  128fsi    OBT 1850   3.399   6.047   3.776  0.2775 -0.0220 -0.0199
  128fsi    OBT 1851   3.307   5.939   3.564 -0.1980  0.0196  0.5614
  128fsi    FSI 1852   3.347   5.816   3.766  0.2436 -0.1764 -0.4264
  129fsi    FSI 1853   5.534   6.068   4.293 -0.6274 -0.2243 -0.0666
  129fsi    SBT 1854   5.572   6.046   4.138  0.1008  0.2755 -0.1587
  129fsi    NBT 1855   5.618   6.191   4.111  0.1024 -0.2515 -0.2205
  129fsi    OBT 1856   5.686   5.958   4.148  0.4780  0.1206 -0.3308
  129fsi    OBT 1857   5.448   6.008   4.076  0.6019 -0.0526  0.2771
  129fsi    SBT 1858   5.539   6.327   4.089 -0.3215 -0.3136  0.1245
  129fsi    OBT 1859   5.578   6.437   4.173 -0.2575  0.4821 -0.0194
  129fsi    OBT 1860   5.404   6.305   4.056  0.4081  0.0893 -1.0900
  129fsi    FSI 1861   5.597   6.374   3.943 -0.0519  0.1544  0.0472
  130fsi    FSI 1862   4.337   0.837   4.660  0.0860 -0.1326  0.3029
  130fsi    SBT 1863   4.206   0.776   4.601 -0.2138  0.5637  0.0113
  130fsi    NBT 1864   4.105   0.891   4.600  0.1540  0.4245 -0.1388
  130fsi    OBT 1865   4.253   0.746   4.465 -0.2160 -0.2936 -0.0328
  130fsi    OBT 1866   4.174   0.660   4.684  0.5748  0.1261 -0.3494
  130fsi    SBT 1867   3.996   0.939   4.703 -0.3067 -0.4665 -0.2477
  130fsi    OBT 1868   3.989   0.862   4.823 -0.5168  0.3775 -0.2186
  130fsi    OBT 1869   3.875   0.984   4.642 -0.0183  0.4188 -0.4278
  130fsi    FSI 1870   4.056   1.069   4.757  0.1570  0.5418  0.4514
  131fsi    FSI 1871   0.322   1.209   3.361 -0.1949 -0.2851  0.5205
  131fsi    SBT 1872   0.264   1.070   3.399  0.3525  0.1095  0.0342
  131fsi    NBT 1873   0.253   0.998   3.255  0.5210 -0.3513  0.7040
  131fsi    OBT 1874   0.354   1.021   3.497  0.3391 -0.0605 -0.2583
  131fsi    OBT 1875   0.132   1.101   3.446  0.1746 -0.2241 -0.1141
  131fsi    SBT 1876   0.356   0.921   3.171 -0.1604 -0.1046  0.0561
  131fsi    OBT 1877   0.303   0.817   3.086 -0.1130 -0.4015 -0.7698
  131fsi    OBT 1878   0.469   0.885   3.250  0.0103  0.1081 -0.1190
  131fsi    FSI 1879   0.409   1.025   3.071  0.2662 -0.3405 -0.1165
  132fsi    FSI 1880   0.116   0.687   1.992 -0.0407  0.1846  0.3965
  132fsi    SBT 1881   0.051   0.776   2.099  0.1024 -0.2725  0.0435
  132fsi    NBT 1882   0.175   0.859   2.146 -0.1883  0.6976  0.1699
  132fsi    OBT 1883  -0.052   0.849   2.029  0.3006  0.0581 -0.4405
  132fsi    OBT 1884   0.005   0.674   2.193 -0.3461 -0.2263  0.0304
  132fsi    SBT 1885   0.215   1.009   2.137 -0.2116 -0.4263  0.1188
  132fsi    OBT 1886   0.319   1.047   2.229  0.2143 -0.3594 -0.0062
  132fsi    OBT 1887   0.100   1.099   2.122 -0.2048  0.6151 -0.5883
  132fsi    FSI 1888   0.287   1.025   2.000  0.3026  0.0336 -0.0912
  133fsi    FSI 1889   5.569   6.120   2.971  0.5380  0.1950 -0.2836
  133fsi    SBT 1890   5.425   6.166   2.992 -0.0280  0.6595  0.2955
  133fsi    NBT 1891   5.377   6.069   3.105 -0.6258 -0.3097 -0.2022
  133fsi    OBT 1892   5.436   6.302   3.029  0.2927 -0.1837 -0.2803
  133fsi    OBT 1893   5.359   6.135   2.874 -0.0375  0.1002 -0.5686
  133fsi    SBT 1894   5.444   6.041   3.241 -0.0241  0.0051  0.6203
  133fsi    OBT 1895   5.346   5.987   3.327  0.0130 -0.0415 -0.0966
  133fsi    OBT 1896   5.522   6.153   3.291  0.9120 -0.5481 -0.4710
  133fsi    FSI 1897   5.550   5.923   3.216 -0.4594  0.0368  0.7989
  134fsi    FSI 1898   5.241   1.017   2.239  0.0150  0.2534 -0.3177
  134fsi    SBT 1899   5.193   1.005   2.086  0.1125 -0.3431  0.3580
  134fsi    NBT 1900   5.171   1.154   2.039  0.5273  0.1710 -0.4909
  134fsi    OBT 1901   5.300   0.942   2.015  0.4051  0.0920  0.1495
  134fsi    OBT 1902   5.068   0.932   2.096  0.3128 -0.2961  0.3588
  134fsi    SBT 1903   5.254   1.245   1.946 -0.3223  0.0675  0.5011
  134fsi    OBT 1904   5.381   1.189   1.904  0.2312  0.1063  0.1696
  134fsi    OBT 1905   5.263   1.379   1.996  0.0831  0.3047 -0.1406
  134fsi    FSI 1906   5.170   1.250   1.811  0.4056  0.7502  0.1356
  135fsi    FSI 1907   3.694   0.321   4.626  0.0205  0.2568  0.9130
  135fsi    SBT 1908   3.836   0.342   4.567  0.1305  0.4578  0.3245
  135fsi    NBT 1909   3.910   0.219   4.619 -0.2454 -0.0614 -0.1590
  135fsi    OBT 1910   3.820   0.332   4.424 -0.2607  0.2046 -0.1030
  135fsi    OBT 1911   3.881   0.470   4.619  0.1598  0.5716  0.0637
  135fsi    SBT 1912   4.006   0.208   4.743 -0.3535  0.3233 -0.6240
  135fsi    OBT 1913   4.048   0.331   4.803 -0.7485  0.3561 -0.1420
  135fsi    OBT 1914   4.104   0.100   4.731  0.3021  0.0144 -0.0132
  135fsi    FSI 1915   3.914   0.147   4.851 -0.2230 -0.3718 -0.4181
  136fsi    FSI 1916   4.972   1.535   2.925 -0.3407 -0.0963 -0.6812
  136fsi    SBT 1917   4.841   1.460   2.882 -0.0311 -0.5065  0.3906
  136fsi    NBT 1918   4.858   1.417   2.731 -0.5753 -0.3533 -0.2594
  136fsi    OBT 1919   4.830   1.355   2.981 -0.1233 -0.0735 -0.0604
  136fsi    OBT 1920   4.739   1.559   2.890  0.2381  0.2538 -0.0476
  136fsi    SBT 1921   4.942   1.297   2.678  0.1324  0.2639  0.0129
  136fsi    OBT 1922   4.921   1.172   2.746 -0.0624  0.1145  0.1129
  136fsi    OBT 1923   5.080   1.324   2.648 -0.1681  0.6173 -0.2532
  136fsi    FSI 1924   4.877   1.275   2.544  0.2757  0.0436 -0.2861
  137fsi    FSI 1925   4.350   1.464   2.384  1.0281 -0.7406 -0.1470
  137fsi    SBT 1926   4.438   1.426   2.255 -0.3553  0.3136 -0.5021
  137fsi    NBT 1927   4.392   1.277   2.232 -0.3739 -0.2847  0.4731
  137fsi    OBT 1928   4.386   1.507   2.149 -0.5108 -0.2945  0.1405
  137fsi    OBT 1929   4.575   1.441   2.299 -0.4162  0.0209 -0.0484
  137fsi    SBT 1930   4.446   1.143   2.280 -0.0742  0.0919 -0.3219
  137fsi    OBT 1931   4.590   1.135   2.301 -0.3818 -0.1593 -0.2003
  137fsi    OBT 1932   4.381   1.032   2.211 -0.4230 -0.8042 -0.0036
  137fsi    FSI 1933   4.384   1.139   2.422  0.2872  0.1389  0.0297
  138fsi    FSI 1934   0.995   0.552   3.039 -0.0918 -0.3485 -0.4024
  138fsi    SBT 1935   0.933   0.567   3.186  0.2102  0.1003 -0.0846
  138fsi    NBT 1936   0.842   0.690   3.179  0.1081  0.7251 -0.2345
  138fsi    OBT 1937   0.860   0.446   3.211  0.0974  0.3426 -0.7742
  138fsi    OBT 1938   1.045   0.590   3.267  0.1848  0.5171  0.1647
  138fsi    SBT 1939   0.873   0.840   3.196  0.2936 -0.1186 -0.3892
  138fsi    OBT 1940   1.012   0.867   3.177  0.3931 -0.8008 -0.6842
  138fsi    OBT 1941   0.804   0.909   3.305  0.2566 -0.9725  0.1270
  138fsi    FSI 1942   0.797   0.907   3.070 -0.1415 -0.1585  0.0846
  139fsi    FSI 1943   3.912   1.035   2.482  0.1940  0.0523 -0.8802
  139fsi    SBT 1944   4.006   1.105   2.581 -0.0009  0.0902  0.1619
  139fsi    NBT 1945   3.930   1.233   2.635  0.2753 -0.9983 -0.2031
  139fsi    OBT 1946   4.021   1.006   2.683  0.2452  0.2346 -0.1032
  139fsi    OBT 1947   4.117   1.137   2.502 -0.2339 -0.0525  0.0037
  139fsi    SBT 1948   3.972   1.385   2.619 -0.6883  0.3638 -0.4931
  139fsi    OBT 1949   4.113   1.415   2.637 -0.6118 -0.1298  0.0971
  139fsi    OBT 1950   3.882   1.478   2.682 -0.5894  0.5914  0.3442
  139fsi    FSI 1951   3.937   1.410   2.473  0.2707 -0.0626 -0.2810
  140fsi    FSI 1952   3.752   0.147   0.748  0.1849  0.1916 -0.2339
  140fsi    SBT 1953   3.794   0.204   0.886 -0.1151 -0.6007 -0.0098
  140fsi    NBT 1954   3.683   0.306   0.921 -0.2811  0.2707 -0.1378
  140fsi    OBT 1955   3.786   0.085   0.968 -0.1968 -0.2503 -0.4101
  140fsi    OBT 1956   3.927   0.260   0.869 -0.3696  0.4878  0.3678
  140fsi    SBT 1957   3.666   0.460   0.879  0.0242 -0.5462  0.1526
  140fsi    OBT 1958   3.751   0.498   0.765  0.3369 -0.6662  0.5515
  140fsi    OBT 1959   3.665   0.545   0.994  0.4013 -0.1977 -0.1744
  140fsi    FSI 1960   3.523   0.462   0.821  0.1841  0.0052  0.0931
  141fsi    FSI 1961   4.891   0.129   1.967 -0.0820 -0.3211  0.5811
  141fsi    SBT 1962   4.961   0.244   2.049  0.0955  0.0624  0.0318
  141fsi    NBT 1963   4.865   0.366   2.028 -0.2959  0.1358  0.0587
  141fsi    OBT 1964   4.972   0.180   2.176  0.2283  0.0510 -0.5309
  141fsi    OBT 1965   5.080   0.259   1.970 -0.0018  0.2556  0.4519
  141fsi    SBT 1966   4.785   0.454   2.128  0.3038  0.5985  0.0940
  141fsi    OBT 1967   4.764   0.395   2.253 -0.2714 -0.2435  0.0137
  141fsi    OBT 1968   4.676   0.533   2.064  0.0546  0.3058 -0.3194
  141fsi    FSI 1969   4.893   0.573   2.165 -0.3679 -0.3340 -0.7504
  142fsi    FSI 1970   3.368   0.426   3.693  0.0002  0.5564  0.1865
  142fsi    SBT 1971   3.464   0.314   3.652 -0.5126 -0.2164 -0.1159
  142fsi    NBT 1972   3.359   0.215   3.600  0.0084  0.0317  0.4821
  142fsi    OBT 1973   3.549   0.385   3.556 -0.3963 -0.5812  0.1668
  142fsi    OBT 1974   3.525   0.270   3.776  0.1636 -0.5857 -0.1279
  142fsi    SBT 1975   3.275   0.226   3.461 -0.1135  0.1011 -0.0445
  142fsi    OBT 1976   3.220   0.352   3.428 -0.7990 -0.0320 -0.2267
  142fsi    OBT 1977   3.186   0.113   3.443 -0.4678 -1.0869  0.7940
  142fsi    FSI 1978   3.389   0.198   3.353  0.3913 -0.3320 -0.0958
  143fsi    FSI 1979   4.793   0.611   3.046  0.1808 -0.6449 -0.1258
  143fsi    SBT 1980   4.740   0.561   2.906 -0.2181 -0.0388  0.0200
  143fsi    NBT 1981   4.681   0.424   2.945 -0.0477  0.1841 -0.2054
  143fsi    OBT 1982   4.646   0.658   2.858  0.4143 -0.2267  0.2211
  143fsi    OBT 1983   4.864   0.555   2.833  0.2746  0.5964 -0.1872
  143fsi    SBT 1984   4.739   0.276   2.941  0.1324  0.1692  0.0436
  143fsi    OBT 1985   4.665   0.190   3.027 -0.4339 -0.4902  0.3539
  143fsi    OBT 1986   4.883   0.273   2.953  0.0900 -0.2087  0.3353
  143fsi    FSI 1987   4.716   0.215   2.792 -0.2670  0.1969  0.0988
  144fsi    FSI 1988   4.884   6.075   4.478 -0.2816 -0.1291 -0.4737
  144fsi    SBT 1989   4.831   6.220   4.489 -0.0073 -0.1066  0.2587
  144fsi    NBT 1990   4.929   6.291   4.589  1.0298 -0.6244  0.0871
  144fsi    OBT 1991   4.842   6.266   4.353 -0.0981 -0.3305 -0.4657
  144fsi    OBT 1992   4.700   6.198   4.548 -0.0892 -0.1084  0.3693
  144fsi    SBT 1993   4.932   6.271   4.745  0.0816  0.1727  0.1389
  144fsi    OBT 1994   4.845   6.173   4.803  0.2881  0.1328 -0.0446
  144fsi    OBT 1995   4.951   6.392   4.821 -0.4610 -0.2955  0.1943
  144fsi    FSI 1996   5.075   6.198   4.752  0.1102  0.4933  0.5720
  145fsi    FSI 1997   0.455   0.302   3.999  0.2056  0.1538 -0.8234
  145fsi    SBT 1998   0.329   0.220   3.960 -0.0645  0.1219 -0.0207
  145fsi    NBT 1999   0.381   0.146   3.836 -0.4021 -0.2927  0.3063
  145fsi    OBT 2000   0.314   0.128   4.068  0.5446  0.5175 -0.5611
  145fsi    OBT 2001   0.223   0.316   3.946  0.1592  0.5401  0.3242
  145fsi    SBT 2002   0.353   0.169   3.686  0.0337  0.4591  0.2304
  145fsi    OBT 2003   0.274   0.287   3.661  0.1914 -0.6490  0.8756
  145fsi    OBT 2004   0.302   0.047   3.624 -0.0245  0.7588 -0.0020
  145fsi    FSI 2005   0.499   0.193   3.616  0.0752 -0.0796  0.1313
  146fsi    FSI 2006   3.752   0.840   2.275 -0.5876 -0.2807  0.0642
  146fsi    SBT 2007   3.618   0.803   2.196  0.0523  0.1297  0.0639
  146fsi    NBT 2008   3.539   0.694   2.270  0.7664  0.2610  0.6538
  146fsi    OBT 2009   3.544   0.927   2.183  0.0003  0.1298  0.4152
  146fsi    OBT 2010   3.669   0.755   2.073  0.3181  0.6351  0.3505
  146fsi    SBT 2011   3.464   0.716   2.406  0.2794 -0.8909  0.0190
  146fsi    OBT 2012   3.509   0.828   2.485 -0.2481  0.6031 -0.0374
  146fsi    OBT 2013   3.426   0.592   2.471  0.1557  0.3164 -0.1778
  146fsi    FSI 2014   3.330   0.771   2.353 -0.6213 -0.0719 -0.7047
  147fsi    FSI 2015   5.307   1.797   3.554  0.0273 -0.0358 -0.0858
  147fsi    SBT 2016   5.225   1.665   3.583 -0.0009 -0.6436  0.0804
  147fsi    NBT 2017   5.170   1.622   3.442  0.4066 -0.0961  0.2745
  147fsi    OBT 2018   5.319   1.574   3.643 -0.0435  0.0793 -0.1801
  147fsi    OBT 2019   5.124   1.716   3.666  0.4619 -0.5536 -0.0859
  147fsi    SBT 2020   5.233   1.524   3.341 -0.0408  0.1266 -0.0910
  147fsi    OBT 2021   5.154   1.516   3.226 -0.4645  0.0213 -0.3118
  147fsi    OBT 2022   5.276   1.395   3.397  0.4960 -0.5523 -0.3053
  147fsi    FSI 2023   5.365   1.588   3.293 -0.1618  0.1299  0.4305
  148fsi    FSI 2024   5.745   1.398   3.013 -0.4416  0.0973 -0.8191
  148fsi    SBT 2025   5.731   1.258   3.085 -0.0060 -0.3421  0.0349
  148fsi    NBT 2026   5.878   1.235   3.140 -0.4907 -0.6434 -0.2356
  148fsi    OBT 2027   5.634   1.281   3.191  0.2621  0.0903 -0.2146
  148fsi    OBT 2028   5.695   1.167   2.978 -0.5436  0.3275 -0.0851
  148fsi    SBT 2029   5.997   1.154   3.066 -0.1536  0.2067  0.3022
  148fsi    OBT 2030   5.965   1.073   2.950 -0.4775  0.4113  0.1507
  148fsi    OBT 2031   6.085   1.102   3.162  0.7360 -0.0402 -0.4024
  148fsi    FSI 2032   6.076   1.274   2.999  0.1561 -0.1122  0.1118
  149fsi    FSI 2033   4.265   0.104   1.415  0.0342 -0.0819 -0.0278
  149fsi    SBT 2034   4.148   0.205   1.432  0.3000  0.0875 -0.3811
  149fsi    NBT 2035   4.220   0.344   1.416  0.0088 -0.6200 -0.0415
  149fsi    OBT 2036   4.067   0.169   1.319  0.7399  0.0122 -0.0269
  149fsi    OBT 2037   4.100   0.180   1.567 -0.3844 -0.2206  0.2091
  149fsi    SBT 2038   4.299   0.437   1.514 -0.4943 -0.4052  0.2288
  149fsi    OBT 2039   4.353   0.367   1.629 -0.1146 -0.3726  0.2554
  149fsi    OBT 2040   4.245   0.568   1.539  0.3411  0.4791 -0.6657
  149fsi    FSI 2041   4.434   0.469   1.428 -0.1700  0.0159 -0.1469
  150fsi    FSI 2042   1.896   0.608   3.490  0.2003 -0.2007 -0.0803
  150fsi    SBT 2043   1.987   0.566   3.373 -0.5632 -0.2590  0.2214
  150fsi    NBT 2044   2.076   0.696   3.358 -0.3024 -0.0488  0.3169
  150fsi    OBT 2045   2.063   0.454   3.424  0.1596 -0.3007  0.8052
  150fsi    OBT 2046   1.901   0.536   3.260 -0.3387  0.3563  0.0871
  150fsi    SBT 2047   2.033   0.835   3.305 -0.1695 -0.1053  0.3239
  150fsi    OBT 2048   1.920   0.836   3.215  0.0875  0.3900 -0.4347
  150fsi    OBT 2049   2.148   0.912   3.266  0.7685 -0.3836 -0.8261
  150fsi    FSI 2050   1.972   0.912   3.425 -0.3693  0.3243  0.1103
   6.14314   6.14314   6.14314
