L1P2 short trajectory practice
 2050
    1Li+     Li    1   6.228   0.602   2.278  0.6070  0.1386  0.4325
    2Li+     Li    2   3.606   0.694   3.528  0.6102 -0.3233 -1.5990
    3Li+     Li    3   0.276   0.958   3.147 -0.0791 -0.2494  0.4354
    4Li+     Li    4   0.748   0.552   2.877 -0.1979  0.1291 -0.6460
    5Li+     Li    5   3.064   6.379   3.025 -0.9120  0.0408 -0.2823
    6Li+     Li    6   0.201   0.428   4.118  0.0401 -0.1876 -0.1033
    7Li+     Li    7   5.040   0.821   4.335 -0.7139 -0.3758 -0.8850
    8Li+     Li    8   3.438   0.672   5.333  0.7295 -0.2563 -0.2932
    9Li+     Li    9   3.494   0.849   4.892  0.6429  0.6656 -0.4228
   10Li+     Li   10   1.986   0.506   3.269  0.4512  0.4320  1.5771
   11Li+     Li   11   5.815   0.804   2.175  0.8365  1.3126  0.3735
   12Li+     Li   12   4.236   0.739   1.988 -0.4613 -1.2037 -0.0867
   13Li+     Li   13   3.097   0.799   3.123 -0.2094  0.3905  0.0324
   14Li+     Li   14   4.266   0.730   2.776  0.0530 -0.1776 -1.0373
   15Li+     Li   15   3.154   0.412   3.539 -0.1083 -0.3896  0.8644
   16Li+     Li   16   6.229   0.847   2.832 -0.4244 -0.7530 -0.2819
   17Li+     Li   17   4.727   0.843   1.499 -0.5481  0.0228  0.9029
   18Li+     Li   18   3.330   0.229   4.612  0.6904  0.2036 -0.6847
   19Li+     Li   19   4.342   0.697   4.195  1.4567  0.3507 -0.4689
   20Li+     Li   20   4.146   0.756   1.373  0.6311 -0.4974  0.4659
   21Li+     Li   21   4.645   0.641   4.692 -1.3709 -0.3021 -0.4380
   22Li+     Li   22   2.709   0.392   4.363 -0.1058  1.9761  1.0341
   23Li+     Li   23   4.524   0.425   4.287  0.5091  0.7644 -1.4602
   24Li+     Li   24   5.842   0.586   2.751  0.7831  0.7562 -0.2340
   25Li+     Li   25   3.048   0.080   4.164  0.0390 -0.0926  0.3650
   26c3c     N4   26   0.076   1.139   3.893 -0.6399  0.6526  0.0438
   26c3c     C1   27  -0.037   1.188   3.975 -0.7960  0.3915  0.9928
   26c3c     C1   28   0.037   1.173   3.755 -0.3173  0.0436  0.2415
   26c3c     C2   29  -0.076   1.322   3.912 -0.2905 -0.7599 -0.0849
   26c3c     C2   30  -0.053   1.299   3.764  0.2911  0.6446  0.4797
   26c3c     C1   31   0.197   1.205   3.936 -0.4332 -0.0638  1.1527
   26c3c     C1   32   0.098   0.996   3.918  0.2970 -0.4192 -0.7015
   26c3c     H1   33  -0.005   1.189   4.080  2.9370 -1.6780 -0.0169
   26c3c     H1   34  -0.128   1.128   3.976  0.6079 -1.8024  1.5266
   26c3c     H1   35   0.118   1.177   3.683  0.5115 -1.3936  1.0851
   26c3c     H1   36  -0.033   1.103   3.711  0.0514  1.8591 -3.4195
   26c3c     HC   37  -0.008   1.393   3.960 -1.1971 -0.8864  1.4143
   26c3c     HC   38  -0.182   1.342   3.924  0.2954  0.9045  2.8700
   26c3c     HC   39  -0.000   1.387   3.729  2.1033  0.7337  3.2946
   26c3c     HC   40  -0.150   1.284   3.717  0.8435  0.8192 -0.7357
   26c3c     H1   41   0.215   1.203   4.044 -1.1123 -0.7375  1.2527
   26c3c     H1   42   0.286   1.175   3.881 -0.7742  0.5303  0.2730
   26c3c     H1   43   0.197   1.311   3.912  1.3148 -0.2416  0.2633
   26c3c     H1   44   0.190   0.963   3.872  1.1627  0.1439  0.5840
   26c3c     H1   45   0.130   0.971   4.019  1.1213  0.3480 -0.7629
   26c3c     C2   46  -0.006   0.895   3.871  0.0412 -0.2140  0.3855
   26c3c     HC   47  -0.058   0.896   3.775 -1.2207 -2.4121  1.0098
   26c3c     HC   48  -0.096   0.908   3.932 -0.6871  2.4617 -1.1750
   26c3c     CT   49   0.048   0.755   3.882 -0.0001 -0.1558 -0.3447
   26c3c     HC   50   0.084   0.748   3.985 -0.6685  0.9862 -0.0233
   26c3c     HC   51   0.131   0.737   3.814  0.4740  0.1899  0.1470
   26c3c     HC   52  -0.034   0.686   3.860 -0.1720  0.0471 -0.3453
   27c3c     N4   53   3.748   1.128   2.497  0.1975  0.3494 -0.0143
   27c3c     C1   54   3.603   1.141   2.467  0.2674  1.0164 -0.2054
   27c3c     C1   55   3.757   1.145   2.646  0.2036 -0.4805  0.2455
   27c3c     C2   56   3.535   1.085   2.597 -0.6352 -0.5800  0.1302
   27c3c     C2   57   3.640   1.076   2.704  0.1213  0.1882 -0.3411
   27c3c     C1   58   3.785   0.993   2.446  0.3630 -0.8573  0.1780
   27c3c     C1   59   3.841   1.214   2.422  0.5538 -0.2483  0.2472
   27c3c     H1   60   3.571   1.077   2.384  1.7028 -0.9603  0.7383
   27c3c     H1   61   3.561   1.239   2.441  3.1537  1.5228 -3.4003
   27c3c     H1   62   3.847   1.099   2.686  1.2928  1.2844 -0.1067
   27c3c     H1   63   3.774   1.250   2.668 -1.0452 -0.2010 -0.0954
   27c3c     HC   64   3.508   0.983   2.569 -1.3391 -0.1848 -0.6564
   27c3c     HC   65   3.437   1.119   2.630 -0.2710 -1.6202  2.3802
   27c3c     HC   66   3.659   0.970   2.721  2.3783  0.6333  0.0751
   27c3c     HC   67   3.619   1.112   2.804  1.3460  1.5882 -0.5759
   27c3c     H1   68   3.765   0.988   2.340 -3.1234  0.0733  0.7421
   27c3c     H1   69   3.890   0.967   2.462  0.5726 -0.0237  0.1537
   27c3c     H1   70   3.734   0.911   2.498  1.7699 -1.8766 -0.0125
   27c3c     H1   71   3.944   1.189   2.447  1.6321  1.3326 -2.3262
   27c3c     H1   72   3.826   1.191   2.317  0.0493 -0.9104  0.4631
   27c3c     C2   73   3.823   1.370   2.424  0.9652  0.1525 -0.4103
   27c3c     HC   74   3.828   1.407   2.527  0.7534 -0.0675 -0.3188
   27c3c     HC   75   3.724   1.399   2.389  0.3136 -0.5574  0.7815
   27c3c     CT   76   3.931   1.440   2.341  0.2161  0.8279 -0.9082
   27c3c     HC   77   4.031   1.413   2.374 -0.6487 -0.2676  0.8966
   27c3c     HC   78   3.912   1.545   2.362 -0.3876  0.5667 -0.1121
   27c3c     HC   79   3.927   1.398   2.241 -0.9373 -1.7931  0.1922
   28c3c     N4   80   4.695   1.330   2.936  0.2386 -0.3636 -0.0155
   28c3c     C1   81   4.581   1.300   3.025 -0.1446  0.6647  0.0427
   28c3c     C1   82   4.652   1.452   2.864  0.3673  0.0536  0.2382
   28c3c     C2   83   4.526   1.435   3.071 -0.4260  0.5976 -0.0827
   28c3c     C2   84   4.562   1.529   2.961 -0.3257 -0.2897 -0.4967
   28c3c     C1   85   4.800   1.367   3.025  0.1092 -1.1805  0.0740
   28c3c     C1   86   4.745   1.220   2.853 -0.2115  0.0416  0.0148
   28c3c     H1   87   4.618   1.244   3.110  0.8058  0.3733 -0.5600
   28c3c     H1   88   4.500   1.253   2.968 -1.4293 -0.0759  2.4179
   28c3c     H1   89   4.725   1.505   2.803 -1.3061  0.5945 -1.3503
   28c3c     H1   90   4.585   1.410   2.789  0.6767 -0.7039  0.3750
   28c3c     HC   91   4.567   1.473   3.165 -0.8212 -0.4565  0.5327
   28c3c     HC   92   4.419   1.424   3.088 -0.4468 -0.7769 -1.0129
   28c3c     HC   93   4.615   1.613   3.005 -0.6485 -0.8974  1.1144
   28c3c     HC   94   4.475   1.570   2.909  0.5216 -0.2272 -1.8623
   28c3c     H1   95   4.834   1.284   3.086  3.0709  1.4118  2.0973
   28c3c     H1   96   4.896   1.400   2.984 -1.3356  3.1153 -0.1815
   28c3c     H1   97   4.776   1.449   3.093 -0.2323  0.8259 -2.3596
   28c3c     H1   98   4.822   1.260   2.787  1.1416  0.7175  1.9730
   28c3c     H1   99   4.788   1.137   2.910  0.9181 -0.0629 -0.9615
   28c3c     C2  100   4.635   1.156   2.757  0.1343  0.9266  0.6872
   28c3c     HC  101   4.593   1.236   2.697  2.2743  1.2862 -0.3780
   28c3c     HC  102   4.551   1.106   2.806 -0.3157 -0.3564 -1.3143
   28c3c     CT  103   4.690   1.042   2.666 -0.0480  0.1907  0.6494
   28c3c     HC  104   4.765   1.084   2.599 -0.2589  0.1141  0.3681
   28c3c     HC  105   4.606   1.001   2.610  0.4271 -1.6856  1.2743
   28c3c     HC  106   4.734   0.956   2.718 -0.9447 -0.2892  0.6156
   29c3c     N4  107   5.728   1.450   3.909 -0.4248  0.5136 -0.1298
   29c3c     C1  108   5.874   1.435   3.890  0.4800 -0.7023 -0.5950
   29c3c     C1  109   5.710   1.590   3.879 -0.5811 -0.5845  0.5923
   29c3c     C2  110   5.914   1.516   3.767  0.6195  0.6934 -0.0816
   29c3c     C2  111   5.808   1.622   3.767  0.3721  0.5373  0.2306
   29c3c     C1  112   5.658   1.373   3.809 -0.8340  0.0807 -0.5112
   29c3c     C1  113   5.686   1.400   4.043  0.1202 -0.0603  0.2662
   29c3c     H1  114   5.888   1.327   3.893  2.3529 -0.4571 -0.0445
   29c3c     H1  115   5.929   1.483   3.972  0.0085 -4.0923  1.8491
   29c3c     H1  116   5.606   1.614   3.854  0.1879  0.8853 -1.3706
   29c3c     H1  117   5.729   1.650   3.968 -1.4435  1.0404 -0.2874
   29c3c     HC  118   5.910   1.458   3.674 -1.4264  2.7960 -1.3526
   29c3c     HC  119   6.012   1.565   3.768 -0.1539  2.2449  0.4976
   29c3c     HC  120   5.770   1.628   3.665 -1.8476  2.2273  1.1013
   29c3c     HC  121   5.845   1.724   3.782  1.3105  0.4832 -1.6477
   29c3c     H1  122   5.678   1.267   3.824  1.6706  0.1588 -2.7843
   29c3c     H1  123   5.552   1.394   3.822 -0.9662 -0.6317 -0.3777
   29c3c     H1  124   5.688   1.401   3.708 -2.6949  1.2655 -0.7502
   29c3c     H1  125   5.578   1.386   4.044  0.1088 -0.0126 -0.1559
   29c3c     H1  126   5.726   1.301   4.063  0.2855  0.1450  0.9745
   29c3c     C2  127   5.715   1.491   4.167 -0.2853  0.3258  0.3001
   29c3c     HC  128   5.676   1.592   4.163  0.3170  0.6123  1.5410
   29c3c     HC  129   5.822   1.509   4.179 -0.1611  0.1001 -0.3842
   29c3c     CT  130   5.656   1.433   4.293 -0.5243 -0.1583 -0.4150
   29c3c     HC  131   5.548   1.446   4.289 -0.4889  0.1817 -0.3227
   29c3c     HC  132   5.691   1.479   4.386 -2.0085 -3.0503  1.6447
   29c3c     HC  133   5.681   1.327   4.302  1.0546  0.3123  1.0581
   30c3c     N4  134   3.549   0.748   6.143  0.8397  0.1465  0.1721
   30c3c     C1  135   3.447   0.709   6.246 -0.4831 -0.3562 -0.5276
   30c3c     C1  136   3.476   0.797   6.032  0.3741  0.4801  0.0085
   30c3c     C2  137   3.336   0.801   6.218 -0.2609  0.5345  0.1027
   30c3c     C2  138   3.353   0.868   6.087 -0.0774  0.2494 -0.0820
   30c3c     C1  139   3.633   0.854   6.199  0.2480 -0.4616 -0.2712
   30c3c     C1  140   3.647   0.643   6.108  0.3370  0.1507 -0.0924
   30c3c     H1  141   3.493   0.686   6.342  1.8225  0.0288 -1.5154
   30c3c     H1  142   3.409   0.614   6.209  1.6484 -0.5023 -2.4930
   30c3c     H1  143   3.533   0.864   5.967  2.3920  0.9299  2.1631
   30c3c     H1  144   3.437   0.720   5.965 -2.9843  0.5258  1.7947
   30c3c     HC  145   3.321   0.880   6.292  2.0769  0.9218  0.1811
   30c3c     HC  146   3.239   0.751   6.216  0.2647 -0.4658 -0.8404
   30c3c     HC  147   3.379   0.974   6.098 -1.0918  1.0118 -4.0605
   30c3c     HC  148   3.266   0.855   6.024  0.5042  0.5927 -0.9727
   30c3c     H1  149   3.690   0.823   6.287 -1.3479  0.1161  1.0046
   30c3c     H1  150   3.695   0.898   6.121  0.2478 -2.2333 -1.2818
   30c3c     H1  151   3.570   0.936   6.235  0.2506 -0.8899  0.7144
   30c3c     H1  152   3.717   0.695   6.042  1.6027 -0.0900  1.0456
   30c3c     H1  153   3.717   0.612   6.186  0.3063  0.0755 -0.0943
   30c3c     C2  154   3.602   0.515   6.034 -0.3540 -0.0735  0.2634
   30c3c     HC  155   3.544   0.538   5.945 -1.0892 -1.4858  0.3657
   30c3c     HC  156   3.531   0.467   6.101 -1.2625  1.4060  0.3872
   30c3c     CT  157   3.709   0.414   6.010 -0.2846 -0.3916 -0.0171
   30c3c     HC  158   3.761   0.441   5.918  0.8524  2.1861  1.3314
   30c3c     HC  159   3.668   0.313   6.012 -1.4340  0.0702  2.3858
   30c3c     HC  160   3.788   0.414   6.084 -0.2937  0.5052 -0.0036
   31c3c     N4  161   3.612   0.742   0.769  0.2310 -0.1314 -0.0798
   31c3c     C1  162   3.639   0.691   0.635  0.4867  0.0223  0.3567
   31c3c     C1  163   3.467   0.750   0.774 -0.0554  0.5479 -0.1439
   31c3c     C2  164   3.531   0.594   0.595  0.0394  0.4506 -0.6748
   31c3c     C2  165   3.423   0.613   0.709 -0.1442  0.0312  0.0876
   31c3c     C1  166   3.655   0.648   0.874 -0.6205 -0.1075  0.0403
   31c3c     C1  167   3.679   0.869   0.797 -0.6753 -0.7956 -0.1617
   31c3c     H1  168   3.740   0.650   0.631  0.5593  0.2166  0.1612
   31c3c     H1  169   3.640   0.773   0.564  0.5899 -0.5749 -0.3439
   31c3c     H1  170   3.424   0.765   0.873  0.5035  1.0615  0.0312
   31c3c     H1  171   3.425   0.825   0.707 -0.6696  0.1447 -0.2140
   31c3c     HC  172   3.546   0.486   0.589 -0.3189  0.1545  3.0529
   31c3c     HC  173   3.492   0.633   0.501 -1.5337 -0.0262 -0.2356
   31c3c     HC  174   3.411   0.532   0.781 -1.4537 -1.4800 -1.7976
   31c3c     HC  175   3.323   0.626   0.667  0.3094  0.9447 -0.7418
   31c3c     H1  176   3.764   0.642   0.873 -0.5523  0.7855  0.7001
   31c3c     H1  177   3.629   0.693   0.970 -1.4128  0.4963 -0.4551
   31c3c     H1  178   3.611   0.549   0.870 -0.1603 -0.3846  1.5352
   31c3c     H1  179   3.666   0.897   0.902  1.1974 -2.2394  0.4878
   31c3c     H1  180   3.787   0.859   0.785 -0.8961 -2.2643 -0.9902
   31c3c     C2  181   3.633   0.994   0.706 -0.2570  0.3455 -0.0784
   31c3c     HC  182   3.525   1.009   0.712 -0.6717 -2.5878  0.6571
   31c3c     HC  183   3.645   0.971   0.600 -0.2712  2.9301 -0.6683
   31c3c     CT  184   3.732   1.111   0.715 -0.5852 -1.1899  0.3300
   31c3c     HC  185   3.826   1.074   0.758  1.0057  2.1902 -0.0577
   31c3c     HC  186   3.684   1.184   0.780  2.1242 -0.9816  2.2102
   31c3c     HC  187   3.750   1.146   0.613  0.4817  1.3154  1.3179
   32c3c     N4  188   5.249   1.199   1.976  0.4845 -0.1392  0.1946
   32c3c     C1  189   5.135   1.286   1.942  0.2323  0.0361 -0.0531
   32c3c     C1  190   5.219   1.072   1.908 -0.5390 -0.3513 -0.4044
   32c3c     C2  191   5.114   1.256   1.791  0.0302  0.3993  0.3573
   32c3c     C2  192   5.185   1.116   1.766  0.5886 -0.0434  0.0990
   32c3c     C1  193   5.375   1.260   1.940 -0.6191 -0.2995  0.2385
   32c3c     C1  194   5.255   1.173   2.124 -0.2038 -0.2294 -0.7487
   32c3c     H1  195   5.138   1.391   1.973  1.6789 -0.2769  0.9077
   32c3c     H1  196   5.044   1.241   1.982 -0.6548  0.6162 -1.3608
   32c3c     H1  197   5.303   1.003   1.908 -1.5099 -1.5862  1.1649
   32c3c     H1  198   5.131   1.017   1.943 -1.4503 -0.7008 -3.1705
   32c3c     HC  199   5.173   1.319   1.724 -3.6015  1.9504 -1.5632
   32c3c     HC  200   5.011   1.255   1.754 -0.0903 -1.1986  0.7008
   32c3c     HC  201   5.270   1.142   1.703  0.8783  0.0159  0.5071
   32c3c     HC  202   5.122   1.047   1.711  1.9015  0.2635 -1.8362
   32c3c     H1  203   5.417   1.341   1.999  2.3441 -0.5825 -1.4177
   32c3c     H1  204   5.457   1.192   1.962  1.2735  1.0700 -2.3501
   32c3c     H1  205   5.395   1.281   1.835 -0.8090 -0.8924  0.0788
   32c3c     H1  206   5.320   1.086   2.134  0.7657  0.5525 -0.0995
   32c3c     H1  207   5.317   1.249   2.172  0.3317 -0.6917 -0.7109
   32c3c     C2  208   5.127   1.142   2.207  0.1356  0.1118 -0.0616
   32c3c     HC  209   5.063   1.068   2.157 -1.8378 -0.2028  2.8306
   32c3c     HC  210   5.062   1.227   2.224 -1.3996 -0.8027 -1.1904
   32c3c     CT  211   5.161   1.077   2.337 -0.4297  0.3651 -0.3797
   32c3c     HC  212   5.244   1.137   2.375 -0.5549  0.2065  0.1412
   32c3c     HC  213   5.203   0.977   2.333 -2.3893 -0.4732 -0.5804
   32c3c     HC  214   5.071   1.078   2.398 -1.9560 -1.3847 -2.5458
   33c3c     N4  215   4.529   0.261   2.822  0.0044  0.0889 -0.0864
   33c3c     C1  216   4.463   0.313   2.942 -0.1081 -0.3078 -0.4622
   33c3c     C1  217   4.568   0.126   2.860 -0.0012 -0.2121 -0.1723
   33c3c     C2  218   4.396   0.190   3.012  1.1533  0.8408 -0.4215
   33c3c     C2  219   4.476   0.069   2.964  0.2986 -0.3628  0.5147
   33c3c     C1  220   4.427   0.255   2.719 -0.1448  0.1462 -0.1338
   33c3c     C1  221   4.639   0.356   2.769  0.2021 -0.2040  0.3826
   33c3c     H1  222   4.390   0.393   2.931  0.9122  0.6807 -0.0937
   33c3c     H1  223   4.539   0.360   3.003 -1.7689  0.8814  0.7537
   33c3c     H1  224   4.591   0.057   2.779  2.1223  0.9842 -0.6365
   33c3c     H1  225   4.665   0.136   2.908  0.0803  1.8297 -0.7110
   33c3c     HC  226   4.294   0.174   2.977  0.9144  1.7483 -0.1445
   33c3c     HC  227   4.403   0.186   3.121  0.0097  0.6980 -0.3523
   33c3c     HC  228   4.405  -0.002   2.920  0.6815 -0.8128  0.6090
   33c3c     HC  229   4.533   0.013   3.038 -0.0926  0.8804  1.7541
   33c3c     H1  230   4.396   0.358   2.703  3.2953  1.1379 -0.9384
   33c3c     H1  231   4.450   0.212   2.621  0.5493 -0.4560  0.2922
   33c3c     H1  232   4.328   0.219   2.746  0.0647 -0.4620 -0.1682
   33c3c     H1  233   4.663   0.324   2.668  0.2177  2.4787 -0.5076
   33c3c     H1  234   4.588   0.450   2.747  0.8398  0.4851  1.7739
   33c3c     C2  235   4.770   0.388   2.855 -0.5832 -0.3245  0.5046
   33c3c     HC  236   4.827   0.296   2.858 -0.7003 -0.3701  1.5012
   33c3c     HC  237   4.746   0.423   2.956  1.7228 -0.0289  0.9740
   33c3c     CT  238   4.859   0.497   2.789 -0.6368 -0.1468 -0.3797
   33c3c     HC  239   4.896   0.474   2.689  2.4788 -0.6361  0.8352
   33c3c     HC  240   4.945   0.514   2.854 -0.3495 -0.9011 -0.5515
   33c3c     HC  241   4.799   0.588   2.788 -0.9244 -0.3006  0.9263
   34c3c     N4  242   5.396   1.290   2.735 -0.0173  1.2765 -0.2683
   34c3c     C1  243   5.347   1.178   2.656  0.6133 -0.3610 -0.2028
   34c3c     C1  244   5.283   1.341   2.810  0.4824 -0.5467 -0.3994
   34c3c     C2  245   5.246   1.108   2.737  0.3208  0.2803  0.3378
   34c3c     C2  246   5.192   1.218   2.823 -0.2481  0.9013  0.0980
   34c3c     C1  247   5.497   1.250   2.836 -0.7692 -0.0836  0.3089
   34c3c     C1  248   5.463   1.392   2.661 -0.5190 -0.3719  0.0282
   34c3c     H1  249   5.425   1.118   2.609  1.1635 -1.5930  2.1850
   34c3c     H1  250   5.287   1.211   2.571  2.2511 -1.6587 -1.9179
   34c3c     H1  251   5.304   1.403   2.896  0.6952  1.4893 -1.8798
   34c3c     H1  252   5.214   1.406   2.755 -2.0858 -1.4869  1.5817
   34c3c     HC  253   5.296   1.028   2.792  0.3141 -0.5612 -0.8535
   34c3c     HC  254   5.174   1.057   2.672  2.2332 -2.0766  0.0012
   34c3c     HC  255   5.186   1.190   2.929  0.5012 -0.4839 -0.2212
   34c3c     HC  256   5.084   1.230   2.813 -0.3202  1.5858  1.5605
   34c3c     H1  257   5.592   1.223   2.790  0.1518  1.6108  1.1630
   34c3c     H1  258   5.520   1.331   2.905  1.3185  0.0332 -0.4777
   34c3c     H1  259   5.469   1.166   2.901 -0.4478  1.1708  2.0944
   34c3c     H1  260   5.456   1.481   2.724  0.4062  0.8026 -1.4713
   34c3c     H1  261   5.567   1.370   2.639 -0.4766 -0.4755  0.3371
   34c3c     C2  262   5.399   1.451   2.528  0.1016  0.4213  0.3419
   34c3c     HC  263   5.305   1.503   2.550  1.4323  2.8124  0.5867
   34c3c     HC  264   5.375   1.376   2.453  0.5437  1.5620 -0.9555
   34c3c     CT  265   5.488   1.563   2.457  0.1978  0.1260  0.3538
   34c3c     HC  266   5.572   1.520   2.403 -1.4039 -0.7861 -1.4595
   34c3c     HC  267   5.526   1.642   2.522  1.1758  0.3545 -0.4702
   34c3c     HC  268   5.420   1.600   2.380 -1.1991  0.2871  1.6508
   35c3c     N4  269   5.646   0.764   4.196  0.0176  0.0117  0.1002
   35c3c     C1  270   5.657   0.676   4.077  0.5241 -1.0503 -0.4140
   35c3c     C1  271   5.562   0.684   4.280 -0.1876 -0.6126 -0.0919
   35c3c     C2  272   5.667   0.530   4.121  1.1390  0.3273  0.6838
   35c3c     C2  273   5.595   0.542   4.256  0.2092 -0.2796 -0.3037
   35c3c     C1  274   5.785   0.771   4.256 -0.1874 -0.0819 -0.2326
   35c3c     C1  275   5.609   0.899   4.175  0.8567 -0.2270 -0.0623
   35c3c     H1  276   5.740   0.704   4.014 -1.1199 -2.0376 -3.0937
   35c3c     H1  277   5.564   0.697   4.024 -0.6623 -2.8960  0.8227
   35c3c     H1  278   5.562   0.707   4.386  2.1811  0.4610 -0.3046
   35c3c     H1  279   5.459   0.700   4.247 -0.0217 -0.3398 -0.4823
   35c3c     HC  280   5.769   0.493   4.126  0.7997 -0.8860 -0.7644
   35c3c     HC  281   5.603   0.482   4.047  0.7720  4.0289 -1.5303
   35c3c     HC  282   5.661   0.519   4.341 -0.7739  0.4170  0.6680
   35c3c     HC  283   5.499   0.494   4.269 -0.3523  0.3066 -2.1838
   35c3c     H1  284   5.851   0.822   4.185  0.3670 -0.9500 -0.3388
   35c3c     H1  285   5.796   0.822   4.352 -0.8733 -1.4017  0.5535
   35c3c     H1  286   5.833   0.674   4.260 -0.8939 -0.4341 -0.1907
   35c3c     H1  287   5.601   0.960   4.265  1.0282  1.0410 -0.8927
   35c3c     H1  288   5.689   0.953   4.123  1.5419  1.7399  2.9054
   35c3c     C2  289   5.477   0.930   4.097  0.2023  0.1726  0.4364
   35c3c     HC  290   5.392   0.870   4.130  0.4073 -0.2498  0.1893
   35c3c     HC  291   5.496   0.897   3.995  0.7051  3.4533 -0.6124
   35c3c     CT  292   5.434   1.076   4.094  0.1927 -0.1620  0.2620
   35c3c     HC  293   5.339   1.080   4.039 -1.1626  0.7623  2.5797
   35c3c     HC  294   5.502   1.143   4.042  0.3540 -1.3158 -1.0615
   35c3c     HC  295   5.427   1.108   4.198  1.0175  0.9661 -0.0168
   36c3c     N4  296   3.938   0.854   4.774 -0.3598  0.5350 -0.7001
   36c3c     C1  297   3.830   0.941   4.748 -0.0967  0.6323 -0.6199
   36c3c     C1  298   4.037   0.896   4.677  0.0929 -0.1333 -0.3599
   36c3c     C2  299   3.900   1.083   4.738 -0.3326 -0.0856  0.8946
   36c3c     C2  300   4.037   1.051   4.679 -0.2867 -0.6446 -0.1163
   36c3c     C1  301   3.992   0.868   4.913  0.0878  0.2642 -0.6776
   36c3c     C1  302   3.906   0.712   4.754 -0.1157  0.4829 -0.4996
   36c3c     H1  303   3.753   0.924   4.823  0.5941  0.6598  0.1114
   36c3c     H1  304   3.783   0.911   4.655 -1.6673  1.9687 -0.2785
   36c3c     H1  305   4.137   0.856   4.695  0.0227 -0.0815  0.1581
   36c3c     H1  306   4.008   0.873   4.574 -1.5245 -0.3991  0.1375
   36c3c     HC  307   3.907   1.131   4.836  2.1266 -1.2885  1.3554
   36c3c     HC  308   3.843   1.151   4.674  0.4073  1.3678  1.7457
   36c3c     HC  309   4.124   1.077   4.740 -0.9541 -0.6882  0.8601
   36c3c     HC  310   4.057   1.097   4.582 -0.9070  1.8012  0.8569
   36c3c     H1  311   3.923   0.830   4.989  3.2412  0.3772  2.4260
   36c3c     H1  312   4.088   0.819   4.928  0.8233  1.9201  0.1552
   36c3c     H1  313   4.013   0.972   4.940 -4.4939  1.3003 -0.7050
   36c3c     H1  314   4.003   0.665   4.769 -0.0438  0.7686 -0.0600
   36c3c     H1  315   3.835   0.677   4.829  0.7897 -0.0084  0.1386
   36c3c     C2  316   3.861   0.655   4.614 -0.3003  0.0158 -0.2087
   36c3c     HC  317   3.951   0.647   4.553 -0.4067 -3.7850  0.0429
   36c3c     HC  318   3.775   0.703   4.566 -0.7984 -3.0243 -2.5245
   36c3c     CT  319   3.817   0.504   4.625 -0.0913 -0.7803 -0.2830
   36c3c     HC  320   3.892   0.451   4.683 -1.1782 -0.2125  1.6860
   36c3c     HC  321   3.816   0.450   4.531  1.2935  0.7690 -1.2065
   36c3c     HC  322   3.724   0.482   4.678 -0.4120  0.9962 -0.0590
   37c3c     N4  323   3.556   0.405   2.978  0.4442  0.2512  0.0667
   37c3c     C1  324   3.414   0.376   3.000 -0.1780 -0.0069  0.1236
   37c3c     C1  325   3.569   0.435   2.834 -0.0383 -0.1823 -0.6625
   37c3c     C2  326   3.348   0.478   2.901  0.9022 -0.4575  0.2207
   37c3c     C2  327   3.454   0.529   2.806 -0.9016  0.5489 -0.3295
   37c3c     C1  328   3.600   0.522   3.062  0.5180 -0.0816  0.4510
   37c3c     C1  329   3.650   0.299   3.020  0.1739 -0.7392 -0.1098
   37c3c     H1  330   3.374   0.377   3.102  0.5340  0.2195  0.4011
   37c3c     H1  331   3.397   0.272   2.970 -1.8897  0.2403  0.1918
   37c3c     H1  332   3.669   0.471   2.810  0.1817  0.3064  0.8869
   37c3c     H1  333   3.539   0.352   2.771 -0.2880  0.0245 -0.8174
   37c3c     HC  334   3.312   0.567   2.953 -0.2791 -0.1618 -1.0617
   37c3c     HC  335   3.254   0.450   2.854 -0.3569  0.8333  1.9188
   37c3c     HC  336   3.472   0.630   2.841 -0.6913  0.0240  1.0967
   37c3c     HC  337   3.424   0.528   2.701  0.8904  2.1127 -0.8968
   37c3c     H1  338   3.570   0.497   3.164 -2.5613 -2.1815 -0.8750
   37c3c     H1  339   3.708   0.535   3.061  0.3554  1.4514  1.0467
   37c3c     H1  340   3.569   0.623   3.033  0.5223  0.3010  1.7415
   37c3c     H1  341   3.754   0.330   3.013 -0.3763  0.6873 -2.4561
   37c3c     H1  342   3.618   0.296   3.124 -1.7786  1.3604 -0.6140
   37c3c     C2  343   3.627   0.152   2.964  0.1202  0.0882 -0.7096
   37c3c     HC  344   3.611   0.154   2.856  3.1630 -0.7057 -1.2329
   37c3c     HC  345   3.538   0.119   3.016 -0.3350  1.8367 -0.3550
   37c3c     CT  346   3.745   0.061   3.000  0.4873 -0.0610  0.5896
   37c3c     HC  347   3.835   0.093   2.948  1.1020 -2.1301  0.3629
   37c3c     HC  348   3.719  -0.040   2.969  1.9482  0.2599 -1.8028
   37c3c     HC  349   3.762   0.060   3.108 -1.9200  1.2116  1.0240
   38c3c     N4  350   6.142   0.559   3.520  0.1308 -0.1681  0.0827
   38c3c     C1  351   5.999   0.567   3.499  0.1835 -0.0714  0.0347
   38c3c     C1  352   6.202   0.617   3.400 -0.5172 -0.0131  0.3039
   38c3c     C2  353   5.991   0.709   3.443  0.1952 -0.3372 -1.1854
   38c3c     C2  354   6.124   0.745   3.381 -0.2150 -0.1913  0.2496
   38c3c     C1  355   6.184   0.634   3.643 -0.3591  0.7150  0.6748
   38c3c     C1  356   6.187   0.419   3.544  0.3583  0.5871 -0.5131
   38c3c     H1  357   5.957   0.556   3.599  0.5874  1.5485  0.4125
   38c3c     H1  358   5.950   0.504   3.425  0.5691  1.7127 -1.7930
   38c3c     H1  359   6.309   0.633   3.418 -0.4335 -0.4703  0.2041
   38c3c     H1  360   6.193   0.554   3.312 -1.6048 -2.0497  1.8428
   38c3c     HC  361   5.959   0.782   3.517 -0.2642 -0.7379 -0.9851
   38c3c     HC  362   5.909   0.704   3.372 -1.2312  1.7945  0.2655
   38c3c     HC  363   6.159   0.831   3.438  0.7653  0.2351 -0.9719
   38c3c     HC  364   6.122   0.773   3.275  0.9734  0.3676  0.3577
   38c3c     H1  365   6.291   0.622   3.658 -0.4272  0.2181  0.7978
   38c3c     H1  366   6.164   0.741   3.641 -2.0549  0.4789 -5.1523
   38c3c     H1  367   6.143   0.588   3.733  2.0275  0.3649  1.6206
   38c3c     H1  368   6.290   0.401   3.515  0.8535 -0.1536  1.6037
   38c3c     H1  369   6.174   0.390   3.648  0.4687 -0.8520 -0.8808
   38c3c     C2  370   6.129   0.307   3.463  0.0761 -0.6058 -0.0514
   38c3c     HC  371   6.157   0.323   3.359  1.0258  1.5092  0.4935
   38c3c     HC  372   6.022   0.289   3.470  0.2383 -1.1781  1.1149
   38c3c     CT  373   6.193   0.180   3.510 -0.2846 -0.1188 -0.1894
   38c3c     HC  374   6.302   0.181   3.514 -0.3634  0.7469  2.6414
   38c3c     HC  375   6.158   0.084   3.472 -0.4840 -0.5645  1.0778
   38c3c     HC  376   6.165   0.177   3.616  1.6167 -2.2175  0.2957
   39c3c     N4  377   4.469   1.404   2.245  0.2612  0.0712  0.1171
   39c3c     C1  378   4.507   1.303   2.347  0.2870  0.1945 -0.2130
   39c3c     C1  379   4.593   1.402   2.157 -0.0152  0.4295 -0.0704
   39c3c     C2  380   4.582   1.186   2.271  0.2797  0.0771  0.2924
   39c3c     C2  381   4.627   1.259   2.142 -0.6435 -0.3242 -0.0093
   39c3c     C1  382   4.341   1.357   2.173 -0.4323 -0.2205  0.2009
   39c3c     C1  383   4.422   1.529   2.305 -0.3202 -0.1979 -0.4087
   39c3c     H1  384   4.421   1.275   2.408  1.8690 -2.0420  1.0822
   39c3c     H1  385   4.576   1.352   2.415  0.7876 -2.4278  1.2615
   39c3c     H1  386   4.560   1.448   2.064  1.7926 -0.3194 -1.1117
   39c3c     H1  387   4.673   1.465   2.195  0.7149 -1.1832  1.1489
   39c3c     HC  388   4.519   1.103   2.240 -0.7394  0.7402  0.5474
   39c3c     HC  389   4.658   1.140   2.334  0.8554 -1.7327 -1.7008
   39c3c     HC  390   4.589   1.211   2.052 -2.6603  0.8310  0.2114
   39c3c     HC  391   4.736   1.251   2.140 -0.7545 -1.8676 -1.0933
   39c3c     H1  392   4.258   1.345   2.243 -1.2439  1.1083 -0.5099
   39c3c     H1  393   4.310   1.430   2.098  1.4318  0.9545  0.5500
   39c3c     H1  394   4.358   1.265   2.118  0.2288 -0.1119  0.2228
   39c3c     H1  395   4.384   1.595   2.227 -2.0047 -0.6679 -0.0067
   39c3c     H1  396   4.334   1.512   2.368  0.5872  1.3668  1.3192
   39c3c     C2  397   4.521   1.609   2.390  0.1634 -0.3546 -0.4692
   39c3c     HC  398   4.614   1.621   2.333  1.5978  1.9090  2.2433
   39c3c     HC  399   4.548   1.554   2.480  0.2786  0.6376  0.1017
   39c3c     CT  400   4.462   1.747   2.434 -0.2132  0.3394 -0.1965
   39c3c     HC  401   4.375   1.746   2.500 -2.5589 -1.9839 -3.1753
   39c3c     HC  402   4.419   1.792   2.344 -1.9893 -0.9275 -0.0069
   39c3c     HC  403   4.540   1.812   2.474 -1.3283  0.5796  1.6097
   40c3c     N4  404   4.110   0.182   2.315 -0.1483  0.1978 -0.2373
   40c3c     C1  405   4.150   0.253   2.441  0.3439 -0.0924  0.1548
   40c3c     C1  406   3.984   0.255   2.278  0.3020 -0.0532 -0.1845
   40c3c     C2  407   4.112   0.402   2.420  0.1263 -0.3632 -0.6448
   40c3c     C2  408   3.993   0.398   2.323  0.0889  0.0026  0.1590
   40c3c     C1  409   4.209   0.212   2.209  0.1765  0.2742  0.0801
   40c3c     C1  410   4.096   0.035   2.338  0.4906 -0.2478  0.1062
   40c3c     H1  411   4.249   0.238   2.483  0.3108 -0.6289  0.0439
   40c3c     H1  412   4.091   0.220   2.527  0.1735 -0.5013 -0.1109
   40c3c     H1  413   3.966   0.254   2.171  4.2459  1.1215 -0.9700
   40c3c     H1  414   3.897   0.218   2.332  0.4316 -1.7874 -1.1172
   40c3c     HC  415   4.186   0.460   2.364  0.0403 -0.7415 -1.1528
   40c3c     HC  416   4.074   0.454   2.508  0.4303 -1.2998  0.0430
   40c3c     HC  417   4.001   0.461   2.234 -0.4020 -1.2329 -0.7804
   40c3c     HC  418   3.907   0.419   2.387 -0.1725  1.0087 -0.5070
   40c3c     H1  419   4.310   0.219   2.249  0.2102  1.4131 -0.2037
   40c3c     H1  420   4.211   0.130   2.138  0.0058 -1.4286  1.9786
   40c3c     H1  421   4.195   0.307   2.158  1.5795  1.3912  1.7214
   40c3c     H1  422   4.107  -0.015   2.241  0.1453 -0.8850  0.3934
   40c3c     H1  423   4.178  -0.005   2.398 -1.0710 -1.4885  1.4730
   40c3c     C2  424   3.962  -0.010   2.409 -0.2348 -0.6745 -0.0994
   40c3c     HC  425   3.882  -0.004   2.336  1.3266  0.5936 -1.7534
   40c3c     HC  426   3.937   0.055   2.493 -0.1552 -1.4602  0.5429
   40c3c     CT  427   3.954  -0.156   2.465  0.3587  0.0755  0.5955
   40c3c     HC  428   3.862  -0.171   2.521 -0.0294  2.3203  0.6036
   40c3c     HC  429   4.033  -0.177   2.537  1.6611  0.2645 -0.7372
   40c3c     HC  430   3.969  -0.226   2.383  4.7394  1.6926 -0.1527
   41c3c     N4  431   4.323   0.163   3.590  0.2071 -0.4912  0.4454
   41c3c     C1  432   4.290   0.157   3.449  0.2840  0.0738  0.3681
   41c3c     C1  433   4.417   0.271   3.589  0.6819  0.1284 -0.4036
   41c3c     C2  434   4.291   0.299   3.396 -0.0832  0.5533 -0.2812
   41c3c     C2  435   4.355   0.385   3.503  0.5983  0.3410 -0.6113
   41c3c     C1  436   4.205   0.193   3.673  0.1285 -0.2577  0.2747
   41c3c     C1  437   4.372   0.037   3.644 -0.3613  0.9606  0.5925
   41c3c     H1  438   4.196   0.104   3.435  0.7752 -0.0548 -2.8810
   41c3c     H1  439   4.365   0.106   3.388  2.1776  1.2119  1.6911
   41c3c     H1  440   4.456   0.288   3.689 -1.1913 -3.0238  0.9046
   41c3c     H1  441   4.504   0.252   3.525  0.4696 -0.4538 -0.5264
   41c3c     HC  442   4.190   0.331   3.372 -1.1114 -1.6297  0.9775
   41c3c     HC  443   4.350   0.300   3.305  0.3565  1.3537  0.0041
   41c3c     HC  444   4.276   0.451   3.539 -1.5813 -1.6110 -1.7062
   41c3c     HC  445   4.432   0.452   3.467 -0.2629  0.1890 -2.8376
   41c3c     H1  446   4.139   0.108   3.686  1.3707 -0.9161  2.7596
   41c3c     H1  447   4.237   0.221   3.774 -1.9805 -0.1250  0.9188
   41c3c     H1  448   4.142   0.275   3.638  0.6236  0.5423  1.2118
   41c3c     H1  449   4.380   0.057   3.751 -0.7129 -1.1899  1.0307
   41c3c     H1  450   4.303  -0.046   3.631 -0.8841  1.6082 -0.8374
   41c3c     C2  451   4.512  -0.010   3.599 -0.4666 -0.0652 -0.2177
   41c3c     HC  452   4.586   0.064   3.628 -2.3512  1.9862 -0.4912
   41c3c     HC  453   4.518  -0.017   3.491  0.9466  0.0174 -0.1478
   41c3c     CT  454   4.546  -0.147   3.662 -0.5097 -0.4500 -0.1395
   41c3c     HC  455   4.479  -0.226   3.627 -2.8945  0.8895  1.2647
   41c3c     HC  456   4.552  -0.155   3.770 -1.6251  1.5808  0.1030
   41c3c     HC  457   4.639  -0.177   3.615  0.0349  3.0062 -1.4399
   42c3c     N4  458   3.955   1.045   3.095  0.3434 -0.3765 -0.1048
   42c3c     C1  459   3.816   1.005   3.113 -0.5345 -0.2524  0.0369
   42c3c     C1  460   4.012   0.998   3.222 -0.8629  0.4818 -0.7540
   42c3c     C2  461   3.814   0.868   3.177 -0.7768 -0.0213  0.5504
   42c3c     C2  462   3.945   0.863   3.259  0.3109 -0.1190  0.6361
   42c3c     C1  463   4.021   0.970   2.984 -0.0432  0.1479 -0.3259
   42c3c     C1  464   3.987   1.190   3.061  0.0026 -0.6919  0.2111
   42c3c     H1  465   3.775   1.020   3.013  2.1340  1.2269 -0.9110
   42c3c     H1  466   3.761   1.078   3.172  0.8604  1.8875 -1.2098
   42c3c     H1  467   4.120   0.983   3.225 -0.5872  2.5356  0.6448
   42c3c     H1  468   3.981   1.062   3.304 -1.3264 -0.3338 -0.2909
   42c3c     HC  469   3.807   0.781   3.112  0.4537 -1.4114  2.2161
   42c3c     HC  470   3.734   0.861   3.250 -2.2337  1.3749 -0.8843
   42c3c     HC  471   4.016   0.790   3.220 -0.8604 -1.8579  1.7024
   42c3c     HC  472   3.933   0.846   3.366  2.1267  2.4611  1.2786
   42c3c     H1  473   3.970   1.002   2.894 -0.5970 -0.1905 -0.1328
   42c3c     H1  474   4.121   1.011   2.968 -0.3204  0.9609  0.0098
   42c3c     H1  475   4.025   0.862   2.998  2.5408  0.2826  0.3668
   42c3c     H1  476   4.096   1.196   3.067 -0.0595  1.9956 -1.0077
   42c3c     H1  477   3.957   1.215   2.960 -2.8354 -0.6778  1.0184
   42c3c     C2  478   3.934   1.288   3.178  0.5541  0.4863 -0.6160
   42c3c     HC  479   3.989   1.272   3.271  0.4019  0.4078 -0.5370
   42c3c     HC  480   3.826   1.275   3.192  1.0808 -2.1816  1.3441
   42c3c     CT  481   3.939   1.429   3.130  0.1159 -0.1431  0.4522
   42c3c     HC  482   4.041   1.455   3.104 -0.1651  1.3124  0.7951
   42c3c     HC  483   3.909   1.503   3.205  0.3399  2.1286 -1.6506
   42c3c     HC  484   3.872   1.449   3.047 -0.8392 -0.7595  1.0483
   43c3c     N4  485   3.166   0.524   2.409  0.5304 -0.0892 -0.4320
   43c3c     C1  486   3.136   0.428   2.307 -0.0337  0.0930  0.1388
   43c3c     C1  487   3.056   0.621   2.411  0.7528 -0.1507  0.2074
   43c3c     C2  488   2.987   0.404   2.320  0.7332 -0.1183 -0.1591
   43c3c     C2  489   2.933   0.536   2.378  0.0326 -0.2014 -0.3254
   43c3c     C1  490   3.166   0.464   2.544  0.1938 -0.2700  0.2157
   43c3c     C1  491   3.299   0.585   2.399  0.3807  0.0034  0.0289
   43c3c     H1  492   3.203   0.343   2.309  1.4204  1.1712 -1.3490
   43c3c     H1  493   3.151   0.466   2.206  1.6861  1.0761  0.7319
   43c3c     H1  494   3.057   0.690   2.496 -0.0346  0.7376 -0.4904
   43c3c     H1  495   3.064   0.685   2.323 -0.7926 -0.0511  0.1192
   43c3c     HC  496   2.968   0.319   2.386 -1.0202  0.0310 -0.4392
   43c3c     HC  497   2.945   0.388   2.221  1.5228  0.2133 -0.5461
   43c3c     HC  498   2.880   0.515   2.471  1.1813 -1.0801  0.1552
   43c3c     HC  499   2.872   0.582   2.300 -0.8339 -0.5556  0.1432
   43c3c     H1  500   3.245   0.389   2.545 -0.2030 -0.6900  1.3921
   43c3c     H1  501   3.191   0.533   2.624 -1.1553 -2.9842  3.1085
   43c3c     H1  502   3.071   0.418   2.571  2.2024 -3.2559  2.6177
   43c3c     H1  503   3.321   0.641   2.490  2.3449 -0.2830 -0.2636
   43c3c     H1  504   3.374   0.507   2.395 -0.5328 -0.9100  0.4911
   43c3c     C2  505   3.331   0.681   2.283 -0.3660  0.0837  0.3291
   43c3c     HC  506   3.266   0.769   2.286  0.5311  0.7735 -0.1521
   43c3c     HC  507   3.303   0.637   2.187  2.1640 -1.6137  0.3166
   43c3c     CT  508   3.484   0.720   2.267  0.1122  0.0219  0.1458
   43c3c     HC  509   3.544   0.634   2.293 -1.1042 -0.3531  1.8177
   43c3c     HC  510   3.508   0.805   2.331 -0.0149  0.3756 -0.2742
   43c3c     HC  511   3.500   0.743   2.161 -1.4265 -0.6061 -0.2392
   44c3c     N4  512   6.010   0.906   4.682 -0.0570 -0.6285  0.3232
   44c3c     C1  513   6.027   0.805   4.786 -0.7835  0.0008 -0.7463
   44c3c     C1  514   6.154   0.955   4.666  0.5176  0.8718  0.2141
   44c3c     C2  515   6.162   0.726   4.754 -0.6080  0.1981 -0.1241
   44c3c     C2  516   6.240   0.826   4.671 -0.1056  0.0983 -0.0587
   44c3c     C1  517   5.960   0.832   4.564 -0.1113 -0.4572 -0.0021
   44c3c     C1  518   5.917   1.018   4.695 -0.0357  0.4824  0.1649
   44c3c     H1  519   5.942   0.745   4.816 -1.0995  0.8495  0.1009
   44c3c     H1  520   6.049   0.862   4.876  1.8597 -2.2733  0.1418
   44c3c     H1  521   6.174   1.012   4.575 -0.8981  1.8033  0.4852
   44c3c     H1  522   6.173   1.013   4.756  0.8894  0.9086  0.1133
   44c3c     HC  523   6.147   0.631   4.702 -2.0982  0.3794 -0.0342
   44c3c     HC  524   6.215   0.694   4.844 -1.9944  1.9432  1.3636
   44c3c     HC  525   6.272   0.790   4.573  0.3976  0.3156  0.0264
   44c3c     HC  526   6.330   0.850   4.727 -1.2752 -1.5534  2.6272
   44c3c     H1  527   5.857   0.796   4.571  0.2393 -1.1299  1.8050
   44c3c     H1  528   5.974   0.895   4.476 -0.5662 -1.3153 -0.6979
   44c3c     H1  529   6.016   0.744   4.534 -1.5125 -0.9634 -1.1946
   44c3c     H1  530   5.901   1.059   4.595  0.2564  0.3389  0.0576
   44c3c     H1  531   5.827   0.968   4.733  0.8713  0.0092  1.7469
   44c3c     C2  532   5.945   1.119   4.805  0.0644  1.1784  0.0290
   44c3c     HC  533   6.028   1.181   4.772 -0.1748  0.6143 -1.7105
   44c3c     HC  534   5.981   1.066   4.893  0.7594  1.3018 -0.1815
   44c3c     CT  535   5.827   1.204   4.850 -0.3179  0.2452  0.0987
   44c3c     HC  536   5.804   1.263   4.762 -0.1755 -1.5287 -1.1426
   44c3c     HC  537   5.854   1.280   4.923  1.4115  1.7246 -2.0205
   44c3c     HC  538   5.740   1.142   4.872 -1.6250  2.1666  0.4077
   45c3c     N4  539   5.014   0.565   2.274 -0.1627 -0.1861  0.2477
   45c3c     C1  540   4.949   0.450   2.334 -0.2542  0.1564 -0.4907
   45c3c     C1  541   5.157   0.538   2.289  0.1651 -0.9325  0.0790
   45c3c     C2  542   5.034   0.335   2.280 -0.1170 -0.9587 -0.1404
   45c3c     C2  543   5.177   0.388   2.288  0.0991 -0.1686 -0.2679
   45c3c     C1  544   4.982   0.568   2.131  0.1043 -0.1441 -0.9544
   45c3c     C1  545   4.973   0.692   2.331  0.7714 -0.6587  0.6844
   45c3c     H1  546   4.843   0.455   2.311 -0.4927  0.0708  0.5659
   45c3c     H1  547   4.975   0.464   2.439  1.6920 -0.3244 -0.8907
   45c3c     H1  548   5.223   0.580   2.214 -0.2078  1.1519  0.9000
   45c3c     H1  549   5.192   0.570   2.387 -1.2860  2.7993 -0.5393
   45c3c     HC  550   4.996   0.294   2.187 -0.9973  3.1680 -1.6952
   45c3c     HC  551   5.042   0.256   2.355 -1.0160 -0.5881  0.3574
   45c3c     HC  552   5.237   0.349   2.206 -0.4907 -1.2901 -0.1754
   45c3c     HC  553   5.231   0.359   2.378  1.8012 -0.0155 -1.2218
   45c3c     H1  554   4.876   0.584   2.109  0.1837  1.4518 -0.2830
   45c3c     H1  555   5.030   0.653   2.082 -0.3532  0.1992 -0.8127
   45c3c     H1  556   5.017   0.477   2.083  0.4102 -0.2624 -0.5132
   45c3c     H1  557   5.021   0.775   2.278 -0.4022 -0.9349 -0.8534
   45c3c     H1  558   4.869   0.699   2.299  1.0174 -2.2343 -0.5450
   45c3c     C2  559   4.987   0.712   2.479 -1.0001 -1.1321 -0.0469
   45c3c     HC  560   5.092   0.729   2.503 -0.6511  1.2340 -2.9611
   45c3c     HC  561   4.943   0.632   2.539 -2.9149 -1.1364 -1.4031
   45c3c     CT  562   4.923   0.840   2.539 -0.2157  0.6820  0.1804
   45c3c     HC  563   4.980   0.866   2.629 -0.5298  2.3970 -0.1154
   45c3c     HC  564   4.819   0.814   2.555  0.3928 -3.3558 -1.8663
   45c3c     HC  565   4.929   0.922   2.468 -0.1299 -0.1365 -0.7712
   46c3c     N4  566   3.747   0.434   4.034  0.2167 -0.0663 -0.4369
   46c3c     C1  567   3.801   0.550   3.957 -0.2771  0.1163  0.2303
   46c3c     C1  568   3.805   0.441   4.167  0.6846  0.1726 -0.5540
   46c3c     C2  569   3.835   0.659   4.060  0.0078 -0.0670 -0.2985
   46c3c     C2  570   3.820   0.591   4.199  0.5433 -0.2270  0.2579
   46c3c     C1  571   3.599   0.454   4.053  0.1802  0.7815  0.2130
   46c3c     C1  572   3.767   0.305   3.963  0.9187  0.8428 -0.6219
   46c3c     H1  573   3.731   0.598   3.889 -1.0499  1.0686  1.6729
   46c3c     H1  574   3.890   0.518   3.903 -0.4152 -1.7783  1.0898
   46c3c     H1  575   3.744   0.394   4.245 -0.1962 -0.3001 -1.5109
   46c3c     H1  576   3.898   0.385   4.179  0.5075  0.3834  2.1173
   46c3c     HC  577   3.773   0.748   4.055 -2.5743 -1.9335 -2.3806
   46c3c     HC  578   3.941   0.680   4.043 -0.0027 -0.4086 -0.7667
   46c3c     HC  579   3.735   0.632   4.254  0.8978  1.3175 -0.3055
   46c3c     HC  580   3.903   0.614   4.265 -0.3589  3.5632  0.1696
   46c3c     H1  581   3.551   0.459   3.955  0.0016  1.1876  0.3191
   46c3c     H1  582   3.562   0.380   4.124  0.9081  0.1025 -0.1191
   46c3c     H1  583   3.576   0.550   4.100  0.2236  0.2376  1.3658
   46c3c     H1  584   3.712   0.228   4.019  0.0647  0.1549 -2.3660
   46c3c     H1  585   3.723   0.313   3.864 -0.4137 -0.5579 -0.1809
   46c3c     C2  586   3.917   0.256   3.940 -0.1500  0.2466 -0.4289
   46c3c     HC  587   3.966   0.289   4.031 -1.2905  2.5979 -0.6262
   46c3c     HC  588   3.968   0.301   3.854 -0.3061  0.7381 -0.2667
   46c3c     CT  589   3.924   0.105   3.924 -0.1052  0.3459  0.6808
   46c3c     HC  590   4.025   0.065   3.912 -0.7885 -0.4251 -3.2158
   46c3c     HC  591   3.873   0.078   3.831 -1.4140  2.9516  0.6115
   46c3c     HC  592   3.885   0.054   4.011  1.3778  1.0892  1.8048
   47c3c     N4  593   3.410   6.301   3.589  0.4316  0.8683 -0.2603
   47c3c     C1  594   3.434   6.165   3.547 -0.2510 -0.5880  0.3529
   47c3c     C1  595   3.511   6.307   3.698  0.2816 -0.6154  0.2759
   47c3c     C2  596   3.584   6.156   3.532  0.0225  0.7350  0.2008
   47c3c     C2  597   3.636   6.262   3.627 -0.0719 -0.8389 -0.0703
   47c3c     C1  598   3.428   6.397   3.484  0.3291  0.1934 -0.2626
   47c3c     C1  599   3.269   6.328   3.632  0.3264 -0.6181  0.3044
   47c3c     H1  600   3.376   6.140   3.458 -1.7207 -0.5603  1.2894
   47c3c     H1  601   3.410   6.086   3.618  0.9285 -2.6400 -1.4359
   47c3c     H1  602   3.525   6.409   3.734  0.6233 -0.1218 -1.1816
   47c3c     H1  603   3.506   6.241   3.784 -1.0439 -0.8866  0.0111
   47c3c     HC  604   3.637   6.167   3.438  0.6020 -1.9121  0.1797
   47c3c     HC  605   3.617   6.061   3.573  0.4112  1.5703  1.8671
   47c3c     HC  606   3.689   6.344   3.579  0.7101 -1.0569  0.4123
   47c3c     HC  607   3.706   6.225   3.702 -0.1656 -0.8616  0.0064
   47c3c     H1  608   3.351   6.387   3.407  0.5794  1.5357 -0.7081
   47c3c     H1  609   3.416   6.495   3.532  0.6178 -0.3722  0.9846
   47c3c     H1  610   3.522   6.394   3.430  1.0643 -0.8562  1.0627
   47c3c     H1  611   3.259   6.429   3.671 -1.7139 -0.8030  0.3156
   47c3c     H1  612   3.200   6.337   3.549 -0.7615 -0.8148  1.1764
   47c3c     C2  613   3.222   6.249   3.757  0.1928  0.9472 -0.0207
   47c3c     HC  614   3.276   6.261   3.852 -0.7870 -0.8955  0.8111
   47c3c     HC  615   3.219   6.147   3.719 -1.2922  0.5537  1.1145
   47c3c     CT  616   3.087   6.290   3.806  0.2024  0.6217 -0.7606
   47c3c     HC  617   3.049   6.229   3.888 -2.0030  0.3237 -1.9561
   47c3c     HC  618   3.019   6.303   3.721 -1.4992  0.3054  0.5282
   47c3c     HC  619   3.094   6.390   3.849 -1.2787  0.2991  0.2662
   48c3c     N4  620   5.885   1.096   3.224 -0.3216 -0.0118  0.1415
   48c3c     C1  621   5.838   1.203   3.124  0.4304  0.0441 -0.8445
   48c3c     C1  622   5.795   1.127   3.332  1.4262  0.1376 -0.7028
   48c3c     C2  623   5.687   1.200   3.134  0.1715 -0.7049 -0.0460
   48c3c     C2  624   5.657   1.151   3.273 -0.1354  0.0545 -0.5384
   48c3c     C1  625   5.865   0.959   3.176  0.0398 -0.6714  0.5874
   48c3c     C1  626   6.025   1.104   3.262  0.5938 -0.0972  0.3529
   48c3c     H1  627   5.875   1.186   3.023  0.2841  0.1279 -0.9112
   48c3c     H1  628   5.889   1.298   3.142 -2.2378  1.2176  0.7200
   48c3c     H1  629   5.798   1.047   3.406 -0.5693  0.2158 -0.5150
   48c3c     H1  630   5.826   1.221   3.379 -1.2020  1.1602 -0.9235
   48c3c     HC  631   5.645   1.129   3.063  2.8303 -0.9153 -1.4503
   48c3c     HC  632   5.648   1.295   3.098 -0.2484 -0.1638  1.8015
   48c3c     HC  633   5.597   1.059   3.274 -0.0993  0.0333 -0.2094
   48c3c     HC  634   5.604   1.234   3.321 -0.6252 -0.6833  0.2132
   48c3c     H1  635   5.939   0.934   3.099 -1.6658  0.3483 -1.4305
   48c3c     H1  636   5.868   0.880   3.251 -2.2185 -0.9196  0.4336
   48c3c     H1  637   5.773   0.930   3.126 -0.2181  0.5088  0.3631
   48c3c     H1  638   6.041   1.021   3.331  1.3450 -1.7045 -1.7058
   48c3c     H1  639   6.087   1.085   3.174  0.4962 -0.6509  0.4046
   48c3c     C2  640   6.079   1.240   3.313  0.4312 -0.0806 -0.3211
   48c3c     HC  641   6.004   1.313   3.343 -0.3813 -1.4955  1.1403
   48c3c     HC  642   6.130   1.291   3.231  0.4589  0.0815 -0.2034
   48c3c     CT  643   6.197   1.230   3.415 -0.5956  0.2965  1.0069
   48c3c     HC  644   6.229   1.329   3.450 -0.9482  1.5313 -2.0202
   48c3c     HC  645   6.282   1.198   3.356 -0.2249  1.4069  0.9322
   48c3c     HC  646   6.194   1.150   3.489 -1.9315 -0.0256  0.6350
   49c3c     N4  647   0.576   0.551   3.457 -0.3355 -0.8643 -0.1910
   49c3c     C1  648   0.560   0.512   3.595 -0.5898  0.3571 -0.5428
   49c3c     C1  649   0.458   0.482   3.399  0.1133 -0.4564  0.5103
   49c3c     C2  650   0.411   0.522   3.637 -0.4266 -0.1972 -0.6549
   49c3c     C2  651   0.346   0.479   3.507 -0.2194  0.5671 -0.0934
   49c3c     C1  652   0.549   0.695   3.429  0.4684  0.3407 -0.1049
   49c3c     C1  653   0.699   0.519   3.385  0.4737  0.1068 -0.7783
   49c3c     H1  654   0.634   0.557   3.661 -0.7897  0.1129 -0.1539
   49c3c     H1  655   0.587   0.407   3.606  0.0030  0.3837 -1.7235
   49c3c     H1  656   0.424   0.524   3.304  0.2325 -1.3032  0.0918
   49c3c     H1  657   0.472   0.376   3.379  1.5827 -0.0983 -0.4670
   49c3c     HC  658   0.387   0.625   3.665  1.7866 -0.7706  3.8484
   49c3c     HC  659   0.383   0.465   3.726  0.1800 -0.0712 -0.3794
   49c3c     HC  660   0.268   0.552   3.486 -0.0671  0.8839  0.4239
   49c3c     HC  661   0.288   0.387   3.513 -0.0203  0.3673 -1.1197
   49c3c     H1  662   0.632   0.765   3.441 -0.6516  1.8016 -0.7013
   49c3c     H1  663   0.518   0.711   3.326 -0.3611  3.0524  0.5145
   49c3c     H1  664   0.468   0.730   3.494 -0.3287 -2.0977  0.2659
   49c3c     H1  665   0.685   0.526   3.277 -1.6488  1.2914 -0.4436
   49c3c     H1  666   0.778   0.588   3.417 -1.2899  0.9575  1.9127
   49c3c     C2  667   0.760   0.377   3.405 -0.1205  0.5615 -0.0865
   49c3c     HC  668   0.686   0.301   3.381  0.7889 -0.3391 -0.0615
   49c3c     HC  669   0.795   0.356   3.506  3.0721  0.3635 -1.1576
   49c3c     CT  670   0.883   0.352   3.314  0.4846 -0.0363 -0.3762
   49c3c     HC  671   0.863   0.354   3.207  0.9536  1.1763 -0.4509
   49c3c     HC  672   0.925   0.255   3.339 -0.9334 -0.3907  0.6532
   49c3c     HC  673   0.954   0.434   3.321  0.3716  0.0211  0.1566
   50c3c     N4  674   5.126   1.282   3.538  0.3352 -0.1036  0.4222
   50c3c     C1  675   5.086   1.258   3.401 -0.6538 -0.3645 -0.3099
   50c3c     C1  676   5.141   1.435   3.532  0.3170  0.1045 -0.2618
   50c3c     C2  677   4.986   1.365   3.353 -0.0481 -0.5589 -0.3786
   50c3c     C2  678   5.023   1.482   3.443 -0.3741  0.2592 -0.3486
   50c3c     C1  679   5.010   1.257   3.627 -0.5039 -0.4038 -0.3915
   50c3c     C1  680   5.240   1.201   3.585 -0.3911 -0.3193 -0.1185
   50c3c     H1  681   5.050   1.157   3.382 -0.9373 -0.8292  2.4978
   50c3c     H1  682   5.166   1.271   3.328 -0.0946 -0.0881  0.3465
   50c3c     H1  683   5.151   1.483   3.630 -0.3256 -0.8238  0.2615
   50c3c     H1  684   5.238   1.455   3.487 -0.2836  0.6783 -1.3261
   50c3c     HC  685   4.879   1.345   3.352  0.0232 -1.0923  1.2212
   50c3c     HC  686   5.014   1.393   3.251 -0.9372  0.6491 -0.2967
   50c3c     HC  687   4.931   1.507   3.495 -1.1858 -0.3151 -1.4801
   50c3c     HC  688   5.050   1.573   3.389 -1.6552  1.3501  0.8087
   50c3c     H1  689   4.979   1.153   3.636  0.3677 -0.6600 -0.3143
   50c3c     H1  690   5.032   1.279   3.731  0.1110  0.6477 -0.7290
   50c3c     H1  691   4.920   1.315   3.606  0.7252  1.6242 -0.2219
   50c3c     H1  692   5.253   1.232   3.688 -1.9433  1.3530 -0.3832
   50c3c     H1  693   5.212   1.096   3.579  1.7520 -0.8936 -0.1596
   50c3c     C2  694   5.377   1.220   3.514 -0.3667 -0.2416 -0.2163
   50c3c     HC  695   5.408   1.324   3.515 -1.4927  0.0974  1.6251
   50c3c     HC  696   5.386   1.196   3.408 -1.3807  0.5879 -0.4963
   50c3c     CT  697   5.483   1.137   3.596 -0.0894 -0.3048  0.3856
   50c3c     HC  698   5.583   1.156   3.556 -0.4158 -0.7282 -0.6531
   50c3c     HC  699   5.464   1.032   3.573  2.0210 -0.5724 -0.2063
   50c3c     HC  700   5.479   1.155   3.703  2.9037  0.4760  0.4142
   51c3c     N4  701   4.428   1.410   1.501 -0.0082  0.2875  0.5270
   51c3c     C1  702   4.521   1.491   1.582  0.0196 -0.1583  1.0073
   51c3c     C1  703   4.456   1.270   1.549 -0.0248 -0.3707 -0.3293
   51c3c     C2  704   4.533   1.410   1.713 -0.1600 -0.4451  0.4401
   51c3c     C2  705   4.472   1.279   1.697 -0.3839  0.1072 -0.0524
   51c3c     C1  706   4.285   1.451   1.537 -0.1651 -0.0831 -0.6779
   51c3c     C1  707   4.438   1.414   1.352 -0.2046 -0.5299  0.6029
   51c3c     H1  708   4.477   1.588   1.604 -0.7400 -0.0753 -0.7523
   51c3c     H1  709   4.619   1.497   1.536 -0.4332 -0.4689 -0.0172
   51c3c     H1  710   4.381   1.197   1.520  0.2239 -1.2456  1.1830
   51c3c     H1  711   4.549   1.240   1.500 -0.8655  0.4015 -2.4555
   51c3c     HC  712   4.480   1.451   1.799  0.2582 -1.1791  1.0584
   51c3c     HC  713   4.632   1.420   1.759 -0.8980  0.7280  1.8007
   51c3c     HC  714   4.378   1.254   1.746 -1.0134  0.5541 -1.0124
   51c3c     HC  715   4.538   1.200   1.732 -2.0762 -1.0387  0.5920
   51c3c     H1  716   4.261   1.556   1.524  1.9752  0.5639  0.3215
   51c3c     H1  717   4.219   1.407   1.462 -0.3821 -0.6858 -0.1436
   51c3c     H1  718   4.264   1.418   1.639  1.3439  2.8702  0.6319
   51c3c     H1  719   4.372   1.341   1.307 -0.2485  0.7058 -1.4168
   51c3c     H1  720   4.411   1.516   1.324 -0.7357  0.1459  3.4213
   51c3c     C2  721   4.573   1.393   1.289 -0.4453  1.0351 -0.2779
   51c3c     HC  722   4.610   1.297   1.325  1.7035  1.5838 -0.9929
   51c3c     HC  723   4.644   1.472   1.311 -2.4960  2.8655  0.0005
   51c3c     CT  724   4.562   1.388   1.134  0.3626 -1.3418 -0.0714
   51c3c     HC  725   4.664   1.393   1.095  0.5887  0.9026  0.7148
   51c3c     HC  726   4.527   1.484   1.098  2.4482  0.4136  2.4159
   51c3c     HC  727   4.514   1.295   1.104  2.5246 -2.2880 -0.7317
   52c3c     N4  728   6.020   0.124   4.302 -0.1501  0.1043  0.7599
   52c3c     C1  729   6.075   0.263   4.275 -0.4048  0.0202 -0.0078
   52c3c     C1  730   6.036   0.059   4.172  0.2100  0.5854 -0.5600
   52c3c     C2  731   6.192   0.243   4.174  0.0867  0.4209  0.6087
   52c3c     C2  732   6.176   0.102   4.126  0.6893  0.8492  0.5887
   52c3c     C1  733   6.105   0.058   4.407 -0.3394  0.5863 -0.7199
   52c3c     C1  734   5.887   0.130   4.356  0.1409 -0.9791 -0.0833
   52c3c     H1  735   6.098   0.319   4.366 -1.8047  1.8238 -0.7362
   52c3c     H1  736   6.007   0.331   4.225 -0.4563 -1.5332 -2.1282
   52c3c     H1  737   6.024  -0.049   4.171  1.6627  0.4272 -1.5884
   52c3c     H1  738   5.961   0.099   4.104 -2.6949 -1.6323  1.2088
   52c3c     HC  739   6.287   0.262   4.223  1.2745 -0.1835 -1.4018
   52c3c     HC  740   6.175   0.314   4.093 -2.7517 -1.8929 -0.9368
   52c3c     HC  741   6.234   0.020   4.170  0.8134  0.5574 -0.1170
   52c3c     HC  742   6.198   0.085   4.021  1.1685  0.9875  0.6621
   52c3c     H1  743   6.111   0.119   4.498 -1.4808 -1.6384  0.9031
   52c3c     H1  744   6.066  -0.040   4.433  0.7735  0.5461  0.9133
   52c3c     H1  745   6.209   0.033   4.387 -0.2924 -0.1957  0.4324
   52c3c     H1  746   5.853   0.029   4.379 -2.8259 -0.0296 -0.0872
   52c3c     H1  747   5.895   0.170   4.457 -0.6933 -1.3077  0.1139
   52c3c     C2  748   5.773   0.199   4.273  0.9961 -0.2284 -0.1328
   52c3c     HC  749   5.767   0.156   4.174  0.2676 -0.2474 -0.0897
   52c3c     HC  750   5.796   0.303   4.250 -1.8521  0.6614  0.8426
   52c3c     CT  751   5.641   0.186   4.350  0.9557  0.0872 -0.1435
   52c3c     HC  752   5.650   0.216   4.454 -1.1169 -1.2817  0.4837
   52c3c     HC  753   5.616   0.082   4.370  0.3366  0.8484  3.2925
   52c3c     HC  754   5.555   0.241   4.312 -1.1609 -1.9217  1.5608
   53c3c     N4  755   3.660   0.690   1.798 -0.0387  0.0129 -0.6823
   53c3c     C1  756   3.571   0.809   1.789 -0.3431 -0.1136  0.7020
   53c3c     C1  757   3.762   0.708   1.693 -0.5859 -0.6189 -0.1685
   53c3c     C2  758   3.663   0.922   1.754 -0.1786  0.4775 -0.0662
   53c3c     C2  759   3.780   0.862   1.687  0.2221  0.3750 -0.5820
   53c3c     C1  760   3.719   0.686   1.929 -0.5813 -0.1806 -0.3607
   53c3c     C1  761   3.582   0.565   1.795 -0.0350  0.2832  0.2083
   53c3c     H1  762   3.505   0.825   1.875 -1.4019 -0.4426 -0.0457
   53c3c     H1  763   3.498   0.808   1.708  1.7504  0.3691 -1.2333
   53c3c     H1  764   3.848   0.643   1.709 -0.5685 -0.8883 -1.3036
   53c3c     H1  765   3.717   0.680   1.598 -0.3756 -1.2688 -0.0804
   53c3c     HC  766   3.694   0.974   1.845 -1.9181  0.6194  0.4652
   53c3c     HC  767   3.605   0.991   1.693 -1.2008  2.2157  2.7550
   53c3c     HC  768   3.865   0.902   1.742 -1.8448  1.4864  1.9254
   53c3c     HC  769   3.790   0.897   1.584  0.8456  1.0213 -0.3025
   53c3c     H1  770   3.646   0.688   2.010 -2.0020 -1.1699 -1.6045
   53c3c     H1  771   3.781   0.597   1.943  0.3083  0.5481  0.4776
   53c3c     H1  772   3.798   0.762   1.935 -1.4391  0.7053 -0.1966
   53c3c     H1  773   3.654   0.485   1.815  0.6558  0.5089 -1.2956
   53c3c     H1  774   3.505   0.565   1.872 -0.0291  0.7436  0.2161
   53c3c     C2  775   3.511   0.531   1.663 -0.6221 -0.4924 -0.2337
   53c3c     HC  776   3.575   0.545   1.576  0.0717  1.0208  0.5094
   53c3c     HC  777   3.423   0.596   1.655 -1.7560 -1.9406  0.1880
   53c3c     CT  778   3.448   0.388   1.654 -0.1564 -0.0255  0.1324
   53c3c     HC  779   3.399   0.368   1.559  0.0197 -0.6495  0.1660
   53c3c     HC  780   3.372   0.377   1.731 -0.7184  0.9034 -0.2759
   53c3c     HC  781   3.520   0.311   1.681 -0.0209 -0.2851 -0.9317
   54c3c     N4  782   2.557   0.891   3.760 -0.3327  0.1213  0.3801
   54c3c     C1  783   2.498   0.921   3.891  0.7164 -0.3448 -0.1618
   54c3c     C1  784   2.698   0.909   3.784 -0.1011 -0.2481  0.7591
   54c3c     C2  785   2.600   0.888   4.002 -0.6666 -0.7557  0.4267
   54c3c     C2  786   2.728   0.862   3.926 -0.3482 -0.3511 -0.6067
   54c3c     C1  787   2.539   0.749   3.725 -0.3707  0.7445  0.6754
   54c3c     C1  788   2.498   0.971   3.651  0.4776  0.4141  0.0073
   54c3c     H1  789   2.408   0.859   3.893 -1.6650  2.8689 -3.2373
   54c3c     H1  790   2.468   1.024   3.910 -0.5646 -0.8701  0.7594
   54c3c     H1  791   2.761   0.863   3.707  0.2592  1.0620  0.2559
   54c3c     H1  792   2.695   1.017   3.770 -0.3679 -0.5323 -1.6361
   54c3c     HC  793   2.573   0.794   4.051 -0.8717 -1.1197 -0.3732
   54c3c     HC  794   2.618   0.970   4.071  0.4460 -0.5437 -0.1171
   54c3c     HC  795   2.758   0.758   3.933  1.3718  0.1660 -0.0753
   54c3c     HC  796   2.810   0.920   3.967  0.4443 -0.7828 -1.5467
   54c3c     H1  797   2.435   0.718   3.720  0.3126 -1.5876  0.4206
   54c3c     H1  798   2.595   0.717   3.637 -2.3045 -2.2592  0.4828
   54c3c     H1  799   2.584   0.684   3.801  0.0886 -0.3905 -0.5466
   54c3c     H1  800   2.534   0.933   3.556 -1.3357 -1.9145  0.2177
   54c3c     H1  801   2.392   0.944   3.651  0.3671  0.8406 -0.0541
   54c3c     C2  802   2.515   1.121   3.653  0.4878  0.0168  0.6755
   54c3c     HC  803   2.618   1.157   3.645  0.1115  1.1596  0.9108
   54c3c     HC  804   2.459   1.165   3.736 -1.6632  1.8158 -1.6457
   54c3c     CT  805   2.455   1.182   3.527  0.3319  0.0969  0.0068
   54c3c     HC  806   2.347   1.173   3.513  0.5254 -1.9448 -0.2863
   54c3c     HC  807   2.496   1.137   3.436 -1.6765  0.2791 -1.0040
   54c3c     HC  808   2.485   1.286   3.510 -1.1574  0.2853 -1.5856
   55c3c     N4  809   3.700   1.360   1.597  0.0926  0.7872 -0.0679
   55c3c     C1  810   3.806   1.288   1.674  0.0348 -0.3006 -0.4146
   55c3c     C1  811   3.784   1.445   1.505 -0.4975  0.6473 -0.1563
   55c3c     C2  812   3.921   1.257   1.589 -0.3470 -0.2747  0.2486
   55c3c     C2  813   3.909   1.367   1.475 -0.3637  0.5282 -1.1123
   55c3c     C1  814   3.628   1.259   1.521 -0.0701  0.4315  0.0623
   55c3c     C1  815   3.606   1.433   1.685  0.1997 -0.2060  0.4505
   55c3c     H1  816   3.774   1.193   1.718  1.7286  0.1885  1.9908
   55c3c     H1  817   3.843   1.352   1.755 -0.8840 -0.2530 -0.0238
   55c3c     H1  818   3.734   1.479   1.414  0.7690  1.3126 -0.6296
   55c3c     H1  819   3.811   1.535   1.560 -0.9373  1.0556 -0.6026
   55c3c     HC  820   3.922   1.160   1.539  0.7010 -0.6316  0.9448
   55c3c     HC  821   4.015   1.264   1.643  0.7498 -0.4319 -1.5704
   55c3c     HC  822   3.889   1.311   1.384 -0.4706 -0.5935 -0.4164
   55c3c     HC  823   3.997   1.431   1.475 -0.4980  0.7107 -1.2717
   55c3c     H1  824   3.582   1.174   1.571 -0.5018  0.6299 -0.0019
   55c3c     H1  825   3.543   1.301   1.468 -0.1885 -1.6285 -1.4433
   55c3c     H1  826   3.704   1.209   1.461  0.3517 -2.5462  2.9483
   55c3c     H1  827   3.539   1.488   1.619  3.3738  2.4386 -0.6947
   55c3c     H1  828   3.546   1.357   1.735  0.6647 -1.2811 -0.5883
   55c3c     C2  829   3.662   1.552   1.764  0.3959 -0.1513 -0.0358
   55c3c     HC  830   3.668   1.640   1.699  1.2595 -0.8028 -0.8355
   55c3c     HC  831   3.761   1.529   1.803 -0.2874 -1.8945  0.7210
   55c3c     CT  832   3.577   1.589   1.883  0.1036 -0.4584 -0.1505
   55c3c     HC  833   3.603   1.689   1.917 -0.7953  0.1656 -1.2684
   55c3c     HC  834   3.590   1.526   1.970 -0.2210 -0.5195 -0.1460
   55c3c     HC  835   3.473   1.582   1.852 -0.5733  0.6736  1.8435
   56c3c     N4  836   3.185   1.312   3.530  0.3133  0.0901  0.0663
   56c3c     C1  837   3.272   1.273   3.634 -0.4909 -0.1713 -0.4911
   56c3c     C1  838   3.230   1.228   3.417  0.3163  0.3288 -0.0301
   56c3c     C2  839   3.258   1.120   3.625 -0.5905  0.8741 -0.3898
   56c3c     C2  840   3.242   1.082   3.480 -0.6242  0.1948  1.3340
   56c3c     C1  841   3.038   1.285   3.562  0.4533  0.1570  0.0800
   56c3c     C1  842   3.177   1.455   3.505 -0.8075  0.7563 -0.2005
   56c3c     H1  843   3.252   1.305   3.736 -1.0660 -0.5741 -0.4727
   56c3c     H1  844   3.375   1.303   3.615 -0.9228  0.3043 -2.1330
   56c3c     H1  845   3.176   1.232   3.322 -0.6430  1.6762  0.5489
   56c3c     H1  846   3.336   1.239   3.394  0.2375 -1.2465 -1.2244
   56c3c     HC  847   3.171   1.091   3.683 -0.9596 -0.3633 -1.5321
   56c3c     HC  848   3.342   1.066   3.669 -1.4161 -2.2587 -2.4451
   56c3c     HC  849   3.155   1.017   3.474 -1.1386  1.0394 -0.8386
   56c3c     HC  850   3.330   1.023   3.454  0.2123  1.4764  1.2194
   56c3c     H1  851   3.021   1.325   3.661 -0.1295  1.7925 -0.6635
   56c3c     H1  852   2.975   1.336   3.489 -1.4203 -4.5229 -1.7757
   56c3c     H1  853   3.020   1.178   3.566 -2.1077  0.6386  3.1711
   56c3c     H1  854   3.116   1.462   3.415 -1.6751  0.0493  0.3141
   56c3c     H1  855   3.122   1.509   3.583  0.3794  1.4351  0.1728
   56c3c     C2  856   3.322   1.516   3.479 -0.1028  0.1260 -0.8664
   56c3c     HC  857   3.390   1.454   3.421 -1.0273 -1.0487 -0.7155
   56c3c     HC  858   3.371   1.533   3.574  1.9115 -0.3242 -1.8092
   56c3c     CT  859   3.316   1.660   3.419  0.6360 -0.2369 -0.0274
   56c3c     HC  860   3.399   1.721   3.452  0.5459 -0.4017  0.5066
   56c3c     HC  861   3.223   1.707   3.451 -0.3727 -0.3543 -2.6113
   56c3c     HC  862   3.303   1.656   3.311 -0.8136 -1.3508  0.1631
   57c3c     N4  863   5.199   0.696   1.273  0.3630 -0.0274  0.2044
   57c3c     C1  864   5.185   0.664   1.127  1.0627 -0.1417 -0.5300
   57c3c     C1  865   5.060   0.697   1.317  0.5620  0.2639  0.4425
   57c3c     C2  866   5.082   0.550   1.125 -0.0706  0.1202 -0.6724
   57c3c     C2  867   4.987   0.581   1.240  0.4965 -0.2081  0.7147
   57c3c     C1  868   5.276   0.587   1.333  0.0229 -0.3404  0.2204
   57c3c     C1  869   5.273   0.816   1.298  0.0023 -0.3566  0.3386
   57c3c     H1  870   5.278   0.638   1.076  1.8537  0.3759  0.6298
   57c3c     H1  871   5.136   0.744   1.072  1.9084  3.5896  3.8310
   57c3c     H1  872   5.040   0.689   1.423 -0.6908  1.9071  0.3344
   57c3c     H1  873   5.006   0.785   1.285  0.2495 -0.1782 -0.2651
   57c3c     HC  874   5.130   0.454   1.140  0.8932  1.0497  2.5106
   57c3c     HC  875   5.017   0.533   1.039 -2.0139 -0.1713  0.8244
   57c3c     HC  876   4.980   0.497   1.310  0.2043 -0.6087  0.2082
   57c3c     HC  877   4.886   0.617   1.219  0.0323 -0.8830  1.7637
   57c3c     H1  878   5.372   0.581   1.282  0.4261  1.1086  0.7852
   57c3c     H1  879   5.302   0.613   1.435  0.3345 -1.8688  0.5359
   57c3c     H1  880   5.219   0.494   1.334 -3.0856  1.4834 -0.2419
   57c3c     H1  881   5.285   0.835   1.405 -0.2768  0.1865  0.2779
   57c3c     H1  882   5.376   0.813   1.263  0.4456 -0.2279  1.6154
   57c3c     C2  883   5.203   0.945   1.248  0.2271  0.4565 -0.0699
   57c3c     HC  884   5.110   0.970   1.298 -0.9931  0.5124 -2.3239
   57c3c     HC  885   5.193   0.939   1.140  2.2709  0.2094 -0.2723
   57c3c     CT  886   5.309   1.065   1.259 -0.6797  0.2589  0.1886
   57c3c     HC  887   5.264   1.155   1.219  0.3823  1.5849  1.9318
   57c3c     HC  888   5.394   1.055   1.192 -0.0473  0.8930  0.8931
   57c3c     HC  889   5.333   1.072   1.365 -0.1058 -0.5263  0.1168
   58c3c     N4  890   3.323   0.996   4.145  0.9597 -0.0360 -0.0292
   58c3c     C1  891   3.276   1.014   4.008  0.5682  0.1185  0.8756
   58c3c     C1  892   3.195   1.002   4.226  0.1861 -0.3411 -0.0488
   58c3c     C2  893   3.150   0.922   3.996  0.1589 -0.2786 -0.5849
   58c3c     C2  894   3.092   0.923   4.138 -0.4771 -0.0031 -0.6759
   58c3c     C1  895   3.391   0.864   4.163 -0.2969 -0.3533 -0.4621
   58c3c     C1  896   3.423   1.094   4.197  0.6921  0.1471 -0.4057
   58c3c     H1  897   3.346   0.986   3.930  1.6400 -3.3202  2.9531
   58c3c     H1  898   3.242   1.117   3.997 -0.7637 -0.2368  1.5019
   58c3c     H1  899   3.203   0.979   4.332  1.8011  0.9404  0.1180
   58c3c     H1  900   3.163   1.106   4.222 -2.7530 -1.2608 -4.2405
   58c3c     HC  901   3.174   0.822   3.963  1.1306  0.2704 -1.5737
   58c3c     HC  902   3.072   0.965   3.932 -1.6111  0.6342  2.0578
   58c3c     HC  903   3.106   0.820   4.171  1.0624  1.1676  2.5779
   58c3c     HC  904   2.990   0.956   4.161 -0.1280 -0.8266  2.2536
   58c3c     H1  905   3.491   0.863   4.120 -0.1435  1.8227 -0.2370
   58c3c     H1  906   3.402   0.840   4.269  0.1470 -1.0622 -0.6661
   58c3c     H1  907   3.337   0.778   4.126 -2.8449  0.5405  1.0942
   58c3c     H1  908   3.440   1.075   4.302  0.8131  0.0621 -0.4409
   58c3c     H1  909   3.520   1.073   4.151  0.6851  0.2146 -0.4514
   58c3c     C2  910   3.387   1.248   4.184  0.0867 -0.1939 -0.2070
   58c3c     HC  911   3.314   1.274   4.260 -0.5415 -1.7088 -0.2714
   58c3c     HC  912   3.348   1.266   4.083 -1.0302  0.2393  0.2987
   58c3c     CT  913   3.511   1.336   4.200  0.6348 -0.1169 -0.4104
   58c3c     HC  914   3.584   1.308   4.124 -0.0256 -0.4929 -0.9153
   58c3c     HC  915   3.546   1.324   4.303  1.5960  0.6197 -0.6491
   58c3c     HC  916   3.486   1.441   4.183 -0.3596 -0.2867 -0.0323
   59c3c     N4  917   5.388   0.527   3.552  0.5775 -0.2329  0.9349
   59c3c     C1  918   5.394   0.651   3.631  0.7920  0.1451  0.2096
   59c3c     C1  919   5.250   0.532   3.497 -0.5235 -0.3621 -1.3809
   59c3c     C2  920   5.338   0.753   3.534  0.5459  1.0936  1.2051
   59c3c     C2  921   5.228   0.679   3.462 -0.2353  0.0237  0.8610
   59c3c     C1  922   5.494   0.532   3.445  0.2002  0.8172  0.5301
   59c3c     C1  923   5.412   0.399   3.626 -0.9354 -0.6526  0.1119
   59c3c     H1  924   5.494   0.675   3.666  1.6951 -1.0773 -1.4389
   59c3c     H1  925   5.330   0.646   3.719  0.2662 -3.1313 -0.2813
   59c3c     H1  926   5.232   0.467   3.411 -0.3543 -0.1548 -1.5775
   59c3c     H1  927   5.168   0.520   3.567  0.4686 -0.5050 -0.2339
   59c3c     HC  928   5.414   0.788   3.465 -0.6479 -1.6699 -1.6342
   59c3c     HC  929   5.309   0.846   3.584 -1.3906 -0.4810  3.0815
   59c3c     HC  930   5.237   0.681   3.353 -0.7519  0.1291  0.8199
   59c3c     HC  931   5.128   0.704   3.497  0.0775  0.5322  1.3872
   59c3c     H1  932   5.594   0.526   3.487  0.7221  2.8338 -0.3730
   59c3c     H1  933   5.500   0.444   3.382 -2.0216  0.5549  0.6480
   59c3c     H1  934   5.496   0.616   3.376  1.1675  0.5593  0.2434
   59c3c     H1  935   5.399   0.316   3.557 -0.8154 -0.4891 -0.1081
   59c3c     H1  936   5.517   0.402   3.656 -0.2986 -0.6771 -2.0901
   59c3c     C2  937   5.334   0.377   3.763 -0.2607 -0.2674  0.3516
   59c3c     HC  938   5.228   0.401   3.748 -0.8113 -1.0207  2.7690
   59c3c     HC  939   5.370   0.454   3.831 -0.8163 -0.2535  0.6382
   59c3c     CT  940   5.349   0.238   3.836 -0.4122 -0.1283  0.1218
   59c3c     HC  941   5.447   0.234   3.882 -0.6063 -1.2314  0.4369
   59c3c     HC  942   5.337   0.155   3.767  0.1885 -0.0854 -0.0367
   59c3c     HC  943   5.276   0.236   3.917 -0.7502 -3.6266 -0.1887
   60c3c     N4  944   4.769   0.704   3.465 -0.1367 -0.5529  0.2352
   60c3c     C1  945   4.793   0.832   3.536 -0.9471  0.4689 -0.0222
   60c3c     C1  946   4.623   0.700   3.452 -0.2767 -0.0384 -0.8593
   60c3c     C2  947   4.677   0.935   3.501 -0.7759  0.7735  0.0159
   60c3c     C2  948   4.581   0.848   3.419 -0.3016 -0.4718 -0.6768
   60c3c     C1  949   4.826   0.711   3.338 -0.1245 -0.0825  0.3481
   60c3c     C1  950   4.816   0.582   3.535 -0.2557  0.4474  0.1051
   60c3c     H1  951   4.892   0.872   3.511 -0.5360 -0.5141  0.0159
   60c3c     H1  952   4.792   0.827   3.645 -1.2185 -0.7175 -0.0725
   60c3c     H1  953   4.589   0.623   3.382 -0.2769 -0.5439 -0.3153
   60c3c     H1  954   4.567   0.679   3.543  0.3382  2.0990  0.0269
   60c3c     HC  955   4.712   1.002   3.422  0.3069 -1.3393 -1.3119
   60c3c     HC  956   4.638   0.987   3.589 -1.2327  0.4622 -0.0044
   60c3c     HC  957   4.590   0.861   3.311  0.9991  2.4886 -0.2565
   60c3c     HC  958   4.479   0.878   3.443 -0.4336 -1.7039  0.3483
   60c3c     H1  959   4.932   0.689   3.341 -0.6954 -3.3231 -1.5382
   60c3c     H1  960   4.786   0.631   3.275  0.3649  0.3235 -0.4910
   60c3c     H1  961   4.803   0.801   3.279 -0.5165  0.1782  0.8922
   60c3c     H1  962   4.801   0.505   3.459 -1.2677 -0.2429  0.9889
   60c3c     H1  963   4.925   0.587   3.530 -0.3133  0.1182 -2.1993
   60c3c     C2  964   4.776   0.543   3.679  0.0564  0.8326 -0.3096
   60c3c     HC  965   4.676   0.499   3.670 -0.5129  1.4919  2.5159
   60c3c     HC  966   4.771   0.624   3.751  1.2677  0.8113 -0.1934
   60c3c     CT  967   4.866   0.428   3.734  0.4983  0.1436  0.0900
   60c3c     HC  968   4.887   0.349   3.661 -0.5870 -2.0267  2.0516
   60c3c     HC  969   4.819   0.380   3.819  2.4105 -1.8058  0.1107
   60c3c     HC  970   4.966   0.459   3.766  1.1846  0.5728 -2.3447
   61c3c     N4  971   2.567   0.573   3.070 -0.2727 -0.2863  0.5798
   61c3c     C1  972   2.487   0.620   3.185  0.1572  0.0253  0.1278
   61c3c     C1  973   2.555   0.669   2.961 -0.2749  0.5205  0.3379
   61c3c     C2  974   2.517   0.767   3.185  0.3308  0.2538  0.4054
   61c3c     C2  975   2.556   0.806   3.036  0.5391 -0.4631 -0.7809
   61c3c     C1  976   2.701   0.568   3.123  0.3365  0.4081  0.1350
   61c3c     C1  977   2.533   0.437   3.020 -0.2651 -0.2698 -0.0183
   61c3c     H1  978   2.519   0.574   3.278 -1.0916  1.0818  1.1073
   61c3c     H1  979   2.382   0.610   3.157  0.2506 -0.7490  0.0681
   61c3c     H1  980   2.627   0.658   2.880 -1.2519  0.9354 -0.5988
   61c3c     H1  981   2.468   0.654   2.897 -0.7692  2.2642  0.5868
   61c3c     HC  982   2.597   0.798   3.252  0.0548 -0.8758  1.2724
   61c3c     HC  983   2.427   0.821   3.214  1.0667  1.4035  0.5450
   61c3c     HC  984   2.659   0.839   3.030  1.2562 -2.4854 -0.0162
   61c3c     HC  985   2.491   0.881   2.991  0.5497 -0.5322 -0.9114
   61c3c     H1  986   2.710   0.482   3.190  0.3418  0.3864  0.1068
   61c3c     H1  987   2.762   0.530   3.041 -1.0878 -0.1680 -0.6810
   61c3c     H1  988   2.748   0.654   3.170 -0.7380  0.2185  1.6103
   61c3c     H1  989   2.594   0.409   2.934 -1.1387  1.9349 -1.4098
   61c3c     H1  990   2.550   0.367   3.102 -0.6330 -0.0898  0.2107
   61c3c     C2  991   2.390   0.409   2.973  0.7513  0.2161  0.0352
   61c3c     HC  992   2.371   0.464   2.881  0.9089  0.6944  0.2829
   61c3c     HC  993   2.316   0.453   3.041  0.0617 -3.9086  2.0939
   61c3c     CT  994   2.351   0.269   2.948  0.2004  0.0188  0.1678
   61c3c     HC  995   2.250   0.263   2.909  0.1221  0.5548  0.2857
   61c3c     HC  996   2.358   0.216   3.043 -2.4525 -0.4214  0.1464
   61c3c     HC  997   2.428   0.219   2.890 -0.6006 -0.4686 -0.4773
   62c3c     N4  998   0.458   0.748   2.393  0.0349 -0.0657  0.0179
   62c3c     C1  999   0.524   0.871   2.442  0.2126  0.0067  0.5406
   62c3c     C1 1000   0.536   0.699   2.277  0.4890  0.5867  0.6382
   62c3c     C2 1001   0.669   0.856   2.410  0.2194 -0.6218  0.1299
   62c3c     C2 1002   0.678   0.737   2.319  0.1198  0.7537  0.2323
   62c3c     C1 1003   0.459   0.650   2.501 -0.2449 -0.1761 -0.0634
   62c3c     C1 1004   0.317   0.791   2.353  0.1510  0.1100 -0.2921
   62c3c     H1 1005   0.521   0.877   2.551  0.7704  0.4755  0.5304
   62c3c     H1 1006   0.477   0.961   2.403  3.3109  0.5583 -2.0698
   62c3c     H1 1007   0.520   0.594   2.255  0.3568  1.0537 -1.5882
   62c3c     H1 1008   0.528   0.753   2.183 -2.0851  0.1995  0.5993
   62c3c     HC 1009   0.724   0.838   2.503 -1.0699 -0.8657  0.8534
   62c3c     HC 1010   0.714   0.940   2.356  0.1129 -1.0945 -0.6977
   62c3c     HC 1011   0.726   0.648   2.360 -0.3238 -0.2616 -1.4153
   62c3c     HC 1012   0.740   0.758   2.232 -1.0083 -0.2776 -0.8419
   62c3c     H1 1013   0.412   0.694   2.589 -0.0572 -2.0692  0.9949
   62c3c     H1 1014   0.407   0.557   2.480  2.0016 -1.8156  1.4731
   62c3c     H1 1015   0.560   0.618   2.527 -0.9028 -0.9921  1.5375
   62c3c     H1 1016   0.257   0.709   2.314  0.7703 -1.7865  2.6295
   62c3c     H1 1017   0.263   0.821   2.443 -1.4120  1.6708 -1.6903
   62c3c     C2 1018   0.295   0.902   2.248 -0.3055  0.2066  0.5042
   62c3c     HC 1019   0.317   0.843   2.159 -2.6564  0.6529 -0.4249
   62c3c     HC 1020   0.371   0.980   2.250 -0.5909  0.4723  1.0969
   62c3c     CT 1021   0.152   0.944   2.229 -0.0186 -0.1423  0.2043
   62c3c     HC 1022   0.147   1.018   2.149 -1.9402 -1.5372 -1.0079
   62c3c     HC 1023   0.105   0.976   2.322  0.2436  0.4599  0.1367
   62c3c     HC 1024   0.090   0.864   2.190  0.5806  0.1382 -1.3560
   63c3c     N4 1025   3.897   0.276   1.337  0.2354  0.3630 -0.5687
   63c3c     C1 1026   3.950   0.323   1.207  0.4794 -0.0949  0.6928
   63c3c     C1 1027   3.921   0.131   1.336 -0.2368 -0.3322  0.1622
   63c3c     C2 1028   4.071   0.225   1.180  0.4487 -0.2324 -0.1913
   63c3c     C2 1029   4.061   0.113   1.282 -0.2801 -0.0470  0.7625
   63c3c     C1 1030   3.960   0.346   1.444  0.1810 -0.2261  0.6197
   63c3c     C1 1031   3.750   0.307   1.348  0.2809 -0.6260 -0.8496
   63c3c     H1 1032   3.989   0.424   1.211 -0.2612  0.1575  1.6744
   63c3c     H1 1033   3.880   0.309   1.125  0.0923  2.8239  0.4875
   63c3c     H1 1034   3.902   0.078   1.430  1.0259 -1.4887 -0.2216
   63c3c     H1 1035   3.862   0.084   1.257  1.4459 -1.3650 -0.5086
   63c3c     HC 1036   4.162   0.283   1.193 -0.2435  0.7142  0.4359
   63c3c     HC 1037   4.066   0.191   1.076 -2.3753  0.7079 -0.3930
   63c3c     HC 1038   4.131   0.124   1.365  1.5412 -1.2903 -0.5637
   63c3c     HC 1039   4.063   0.020   1.226  2.1634  0.5854 -0.2398
   63c3c     H1 1040   3.958   0.455   1.443  2.1124 -0.1034  3.5998
   63c3c     H1 1041   3.916   0.328   1.542 -1.0965 -3.0362 -0.4137
   63c3c     H1 1042   4.067   0.326   1.452 -0.2479 -2.1939  2.0729
   63c3c     H1 1043   3.703   0.282   1.444 -1.4973 -0.8335 -1.7487
   63c3c     H1 1044   3.742   0.416   1.346  0.9419 -0.5558  0.0201
   63c3c     C2 1045   3.657   0.247   1.242  0.1954 -0.2802 -0.1160
   63c3c     HC 1046   3.645   0.138   1.248 -1.9493 -0.3082 -3.8296
   63c3c     HC 1047   3.690   0.280   1.144  0.8763 -2.9874 -0.8471
   63c3c     CT 1048   3.514   0.308   1.259 -0.3224  0.4795  0.7863
   63c3c     HC 1049   3.481   0.282   1.360  0.2144  0.2836  0.9126
   63c3c     HC 1050   3.443   0.267   1.186  0.8388 -0.6193  0.2594
   63c3c     HC 1051   3.503   0.416   1.258 -4.1053  0.2185 -2.7936
   64c3c     N4 1052   0.018   0.216   2.762  0.1253  0.0057  0.0988
   64c3c     C1 1053  -0.101   0.130   2.746 -0.2851 -1.0068  0.0886
   64c3c     C1 1054  -0.005   0.338   2.680  0.2290 -0.9860  0.7120
   64c3c     C2 1055  -0.212   0.243   2.747 -0.1575  0.0122  0.0406
   64c3c     C2 1056  -0.153   0.374   2.689  0.1193  1.3688 -0.6118
   64c3c     C1 1057   0.043   0.253   2.902  0.6851  0.4715  0.1399
   64c3c     C1 1058   0.141   0.152   2.722 -0.0204 -0.2584  0.1419
   64c3c     H1 1059  -0.110   0.059   2.828  0.6996 -0.1597  0.9364
   64c3c     H1 1060  -0.097   0.077   2.652  1.3935  0.3096 -0.6042
   64c3c     H1 1061   0.064   0.414   2.716 -0.2504 -0.2714  0.1424
   64c3c     H1 1062   0.013   0.314   2.575 -0.9669  1.6310 -0.1446
   64c3c     HC 1063  -0.238   0.259   2.852 -0.3647 -0.4034  0.0514
   64c3c     HC 1064  -0.302   0.203   2.700 -0.2050  0.2509 -0.0743
   64c3c     HC 1065  -0.180   0.450   2.763 -0.0949  2.6855 -2.0133
   64c3c     HC 1066  -0.201   0.401   2.595 -0.3418 -1.6030 -1.2962
   64c3c     H1 1067   0.046   0.174   2.976 -0.3231  0.1390 -0.1604
   64c3c     H1 1068   0.139   0.301   2.915  0.4157  1.6813 -2.0989
   64c3c     H1 1069  -0.031   0.323   2.941  1.0136  2.9296 -3.3622
   64c3c     H1 1070   0.226   0.217   2.741  0.5401 -0.3433 -1.9115
   64c3c     H1 1071   0.154   0.059   2.779 -3.0612 -1.3155 -0.7783
   64c3c     C2 1072   0.154   0.111   2.573  0.6037  0.7469 -0.5902
   64c3c     HC 1073   0.178   0.204   2.521 -2.6262  0.9422 -1.8050
   64c3c     HC 1074   0.059   0.073   2.535  0.7129 -2.3984  2.0188
   64c3c     CT 1075   0.258  -0.001   2.556  0.4723  0.3094  0.1905
   64c3c     HC 1076   0.237  -0.066   2.471 -1.6936  0.5052  0.5425
   64c3c     HC 1077   0.243  -0.074   2.636 -2.8214  3.2319  2.3988
   64c3c     HC 1078   0.361   0.034   2.551  0.2347  1.0698  0.5644
   65c3c     N4 1079   5.738   0.340   2.081  0.1161 -0.1384 -0.4768
   65c3c     C1 1080   5.870   0.375   2.144  0.4266  0.5749  0.2450
   65c3c     C1 1081   5.743   0.194   2.086  0.1519  0.6817  0.1402
   65c3c     C2 1082   5.882   0.294   2.267 -0.3680 -0.0175 -0.4008
   65c3c     C2 1083   5.815   0.153   2.214 -0.2989  0.2099 -0.7443
   65c3c     C1 1084   5.628   0.395   2.155  0.4849  0.1658  0.0373
   65c3c     C1 1085   5.711   0.395   1.941 -0.1975 -0.5110  1.0846
   65c3c     H1 1086   5.895   0.481   2.147  0.1274  0.6801 -0.8432
   65c3c     H1 1087   5.954   0.337   2.087 -0.5028  0.1686 -0.8730
   65c3c     H1 1088   5.649   0.138   2.086  1.0034 -0.7997 -2.0845
   65c3c     H1 1089   5.793   0.158   1.996 -0.5624  2.0139 -0.7910
   65c3c     HC 1090   5.833   0.332   2.357  0.3997 -2.2628  1.0380
   65c3c     HC 1091   5.984   0.280   2.304 -1.3544 -0.6618  2.2620
   65c3c     HC 1092   5.744   0.113   2.287 -1.2139 -0.4192 -1.9733
   65c3c     HC 1093   5.885   0.071   2.201  1.5556  1.6976 -0.2248
   65c3c     H1 1094   5.637   0.503   2.161 -0.7227  0.2140  1.1975
   65c3c     H1 1095   5.539   0.365   2.100  0.9043  0.2239 -0.6776
   65c3c     H1 1096   5.616   0.354   2.255  1.1560  2.6773  1.1795
   65c3c     H1 1097   5.623   0.348   1.896  3.2242 -3.5283 -2.7794
   65c3c     H1 1098   5.688   0.501   1.951 -0.1192 -0.5267  1.4348
   65c3c     C2 1099   5.823   0.377   1.843 -0.4395  0.0048  0.1038
   65c3c     HC 1100   5.829   0.269   1.830 -1.3417 -0.1211  0.6764
   65c3c     HC 1101   5.914   0.412   1.890 -1.5787  0.9327  1.6818
   65c3c     CT 1102   5.809   0.456   1.707  0.1368 -0.5681  0.0920
   65c3c     HC 1103   5.883   0.432   1.630  2.5749  3.2209  1.0898
   65c3c     HC 1104   5.799   0.565   1.709 -0.5385 -0.6088 -0.7337
   65c3c     HC 1105   5.716   0.421   1.663  1.3042  0.1729 -3.1112
   66c3c     N4 1106   4.154   0.991   3.756  0.9029 -0.2791  0.1398
   66c3c     C1 1107   4.167   0.928   3.619 -0.2587 -0.9029  0.5851
   66c3c     C1 1108   4.028   0.937   3.809 -0.4153 -0.6002  0.0929
   66c3c     C2 1109   4.107   0.780   3.637 -0.7956  0.2918  0.1291
   66c3c     C2 1110   4.019   0.784   3.766  0.4516 -0.0287 -0.0679
   66c3c     C1 1111   4.270   0.943   3.826  0.3052 -0.3574  0.3984
   66c3c     C1 1112   4.167   1.141   3.743  0.1403  0.2621 -0.1077
   66c3c     H1 1113   4.271   0.928   3.589 -0.4294 -0.2922 -0.0324
   66c3c     H1 1114   4.107   0.985   3.547 -1.7190 -1.0681  1.6426
   66c3c     H1 1115   4.012   0.959   3.914  1.2880 -0.4910  0.3364
   66c3c     H1 1116   3.949   0.989   3.753 -0.3505  0.7141  1.1761
   66c3c     HC 1117   4.175   0.695   3.632 -0.6737  0.4146 -0.3187
   66c3c     HC 1118   4.034   0.775   3.556  0.4028  2.8187 -1.1632
   66c3c     HC 1119   4.070   0.726   3.842  0.1450  2.3667  2.0258
   66c3c     HC 1120   3.921   0.740   3.751 -0.1282  1.7423 -1.6598
   66c3c     H1 1121   4.360   0.990   3.787 -0.3452 -0.5466 -1.3378
   66c3c     H1 1122   4.250   0.974   3.929 -0.8510 -0.5598  0.2465
   66c3c     H1 1123   4.293   0.837   3.831  0.2736 -0.4126 -0.6035
   66c3c     H1 1124   4.172   1.184   3.843 -3.1240  1.0475 -0.1967
   66c3c     H1 1125   4.261   1.171   3.697  0.4943  1.3076  1.2760
   66c3c     C2 1126   4.056   1.214   3.677 -0.3555  0.5300 -0.4754
   66c3c     HC 1127   3.965   1.211   3.737 -0.3496  1.3754 -0.4242
   66c3c     HC 1128   4.028   1.177   3.578 -0.0557 -0.1688 -0.2984
   66c3c     CT 1129   4.084   1.368   3.665 -0.3213 -0.3985 -0.3423
   66c3c     HC 1130   4.106   1.425   3.755 -1.0755  0.0557 -0.4452
   66c3c     HC 1131   4.003   1.421   3.617  0.2176  0.0078 -0.8124
   66c3c     HC 1132   4.167   1.378   3.595 -0.7475  1.7675 -0.5518
   67c3c     N4 1133   1.021   0.890   3.574 -0.1937 -0.0976 -0.1325
   67c3c     C1 1134   1.019   0.977   3.697  0.4247 -0.0982 -0.1918
   67c3c     C1 1135   0.882   0.872   3.532  0.1877  0.4972  0.1563
   67c3c     C2 1136   0.888   1.059   3.690 -0.3380 -0.5482 -0.6830
   67c3c     C2 1137   0.805   0.990   3.585  0.1668  0.0865 -0.1845
   67c3c     C1 1138   1.094   0.958   3.467  0.1686  0.5025 -0.6200
   67c3c     C1 1139   1.103   0.773   3.607  0.5669  0.0844  0.1894
   67c3c     H1 1140   1.103   1.046   3.706  1.0527 -0.5478 -2.3130
   67c3c     H1 1141   1.019   0.921   3.790 -0.0518  0.8066  0.3686
   67c3c     H1 1142   0.869   0.861   3.424  0.0404  0.8512  0.1393
   67c3c     H1 1143   0.822   0.805   3.594 -0.0839  1.2341  0.6958
   67c3c     HC 1144   0.915   1.155   3.648  1.8463 -0.2625  1.2499
   67c3c     HC 1145   0.841   1.076   3.787  0.5909 -0.2069 -0.2895
   67c3c     HC 1146   0.791   1.060   3.503  0.2575 -0.1294 -0.3854
   67c3c     HC 1147   0.711   0.962   3.634  0.5633  1.4708  1.4183
   67c3c     H1 1148   1.193   0.988   3.501  0.3432 -2.3367  1.5943
   67c3c     H1 1149   1.095   0.893   3.380 -1.2471 -0.5426  0.1235
   67c3c     H1 1150   1.049   1.056   3.452  0.6656  1.0448  1.3504
   67c3c     H1 1151   1.128   0.718   3.516  0.7757 -0.5798  0.6469
   67c3c     H1 1152   1.193   0.812   3.656 -1.4450 -0.7681  4.7245
   67c3c     C2 1153   1.039   0.668   3.700 -0.1516 -0.0478 -0.1993
   67c3c     HC 1154   0.960   0.614   3.647  2.0136 -1.9531 -1.5487
   67c3c     HC 1155   0.983   0.715   3.781 -3.0338 -0.1992 -2.0315
   67c3c     CT 1156   1.142   0.578   3.760 -0.0735 -0.0731 -0.4671
   67c3c     HC 1157   1.210   0.518   3.699  3.3194  2.5208  0.6335
   67c3c     HC 1158   1.089   0.506   3.822  3.0350 -2.0668 -0.0267
   67c3c     HC 1159   1.211   0.621   3.833 -0.0501  0.5369 -0.8450
   68c3c     N4 1160   2.983   0.805   4.743 -0.4572 -0.1226 -0.0499
   68c3c     C1 1161   3.000   0.951   4.796 -0.4619  0.1526 -0.1205
   68c3c     C1 1162   2.853   0.811   4.681  0.8773  0.1238  0.4092
   68c3c     C2 1163   2.938   1.031   4.683 -0.3332 -0.5997  0.3821
   68c3c     C2 1164   2.860   0.943   4.594 -0.0770 -0.0822 -0.6142
   68c3c     C1 1165   3.090   0.776   4.650  0.1834  0.4558 -0.1111
   68c3c     C1 1166   2.996   0.699   4.844  0.9220  0.5954 -0.6692
   68c3c     H1 1167   3.099   0.989   4.824  0.2593 -0.3656 -1.8861
   68c3c     H1 1168   2.945   0.962   4.889  0.2294 -0.2220  0.3390
   68c3c     H1 1169   2.834   0.727   4.614  0.6857  2.0868 -2.0673
   68c3c     H1 1170   2.777   0.818   4.758 -0.6308 -0.1611 -1.0256
   68c3c     HC 1171   3.004   1.090   4.619 -1.2886  0.0520 -0.0235
   68c3c     HC 1172   2.891   1.117   4.730  0.6159  0.8553 -1.2621
   68c3c     HC 1173   2.904   0.914   4.498 -2.8626 -0.1157 -1.9407
   68c3c     HC 1174   2.764   0.984   4.561  0.0748 -0.2856 -1.3270
   68c3c     H1 1175   3.094   0.828   4.555 -0.5502 -1.4037 -1.1927
   68c3c     H1 1176   3.179   0.798   4.710 -0.5107  0.7939  0.8126
   68c3c     H1 1177   3.089   0.670   4.624  0.2861  0.1786  0.9644
   68c3c     H1 1178   2.988   0.603   4.792  0.6125  0.0621  0.3662
   68c3c     H1 1179   3.095   0.693   4.888  0.6632  0.2246 -0.1435
   68c3c     C2 1180   2.902   0.702   4.965 -0.1340 -0.2428  0.1562
   68c3c     HC 1181   2.797   0.693   4.937  0.4532  0.6932 -2.4261
   68c3c     HC 1182   2.908   0.797   5.018 -0.8896 -0.6000  0.8888
   68c3c     CT 1183   2.927   0.591   5.070 -0.7480 -0.6711 -0.2313
   68c3c     HC 1184   3.025   0.591   5.118  0.1651  1.8870 -1.9981
   68c3c     HC 1185   2.913   0.495   5.020 -1.5698 -0.5807 -0.1764
   68c3c     HC 1186   2.851   0.608   5.146 -1.0744 -0.1108 -0.6785
   69c3c     N4 1187   2.627   0.144   3.676 -0.4153  0.0697  0.5632
   69c3c     C1 1188   2.616   0.269   3.596  0.0364  0.9479 -0.5488
   69c3c     C1 1189   2.660   0.047   3.570  1.0201 -0.4043  0.1768
   69c3c     C2 1190   2.731   0.268   3.499 -0.1241  0.5251  0.0917
   69c3c     C2 1191   2.754   0.117   3.471 -0.2432 -0.4613 -0.2721
   69c3c     C1 1192   2.743   0.147   3.775  0.1069  0.2928  0.9752
   69c3c     C1 1193   2.507   0.119   3.757 -0.6170 -0.2368 -0.2201
   69c3c     H1 1194   2.604   0.357   3.659 -2.2390  0.2243  0.0850
   69c3c     H1 1195   2.523   0.283   3.541 -1.6684  0.6315  2.1170
   69c3c     H1 1196   2.698  -0.051   3.600  0.4607 -1.1987 -1.6978
   69c3c     H1 1197   2.572   0.017   3.514 -0.3474  1.6156  1.1743
   69c3c     HC 1198   2.822   0.306   3.545  1.4996 -1.1314 -1.6575
   69c3c     HC 1199   2.716   0.315   3.402  1.8638 -0.6298 -0.7906
   69c3c     HC 1200   2.855   0.091   3.502  0.0546 -0.2673 -1.0825
   69c3c     HC 1201   2.739   0.073   3.372  2.4082 -1.6425 -0.1768
   69c3c     H1 1202   2.731   0.061   3.840 -2.1688  1.3449  1.9998
   69c3c     H1 1203   2.838   0.131   3.724 -0.5476  0.6799 -0.3893
   69c3c     H1 1204   2.739   0.234   3.841  2.3598 -0.1518  1.7349
   69c3c     H1 1205   2.514   0.020   3.802 -0.1776 -1.0710 -2.1076
   69c3c     H1 1206   2.500   0.185   3.844  1.0629 -0.8815  0.4256
   69c3c     C2 1207   2.370   0.128   3.690  0.1623  0.0797 -0.0538
   69c3c     HC 1208   2.372   0.080   3.592  1.2964  0.3640 -0.1757
   69c3c     HC 1209   2.329   0.229   3.680  0.7688  0.2234 -1.1511
   69c3c     CT 1210   2.265   0.058   3.778 -0.5051  0.7010  0.2682
   69c3c     HC 1211   2.168   0.048   3.730  0.7511 -0.9366 -2.0467
   69c3c     HC 1212   2.242   0.117   3.866 -0.8446  0.9712  0.0016
   69c3c     HC 1213   2.295  -0.044   3.802 -1.6724 -0.0391 -1.3367
   70c3c     N4 1214   4.669   0.310   1.826 -0.5434  0.0044  0.2955
   70c3c     C1 1215   4.738   0.197   1.886 -0.9337 -0.0709  0.0645
   70c3c     C1 1216   4.529   0.262   1.821  0.4364 -0.2521 -0.0284
   70c3c     C2 1217   4.638   0.149   1.998  0.3381  0.6323  0.5673
   70c3c     C2 1218   4.502   0.181   1.944  0.1799 -0.1183 -0.3369
   70c3c     C1 1219   4.674   0.417   1.924  0.5242  1.1530 -0.0198
   70c3c     C1 1220   4.729   0.345   1.698 -0.0434 -0.1607 -0.3555
   70c3c     H1 1221   4.839   0.214   1.924 -0.0007 -2.1297 -1.3609
   70c3c     H1 1222   4.748   0.109   1.822  1.3234 -0.3242  0.7264
   70c3c     H1 1223   4.467   0.351   1.822 -1.8583 -1.7819 -1.2668
   70c3c     H1 1224   4.511   0.203   1.731 -0.0368  2.5537 -1.8430
   70c3c     HC 1225   4.665   0.196   2.093  2.0033  1.6301 -0.3882
   70c3c     HC 1226   4.645   0.043   2.023  1.8584  0.7812  0.7957
   70c3c     HC 1227   4.439   0.224   2.022  0.7275 -1.1158  0.6806
   70c3c     HC 1228   4.459   0.085   1.914 -1.6797  0.5786  0.0644
   70c3c     H1 1229   4.778   0.449   1.928  0.6207  0.7365  0.9883
   70c3c     H1 1230   4.613   0.499   1.888 -2.8692 -0.9791  0.6287
   70c3c     H1 1231   4.643   0.404   2.028 -1.7714  1.6993 -0.5948
   70c3c     H1 1232   4.694   0.445   1.671 -0.1715 -0.0302  0.3064
   70c3c     H1 1233   4.836   0.362   1.711 -0.4991  1.9153  0.9519
   70c3c     C2 1234   4.714   0.264   1.571  0.0630  0.3698 -0.0805
   70c3c     HC 1235   4.608   0.243   1.559  0.0640 -0.6946  1.6039
   70c3c     HC 1236   4.771   0.172   1.587 -1.6686 -0.9241 -1.3292
   70c3c     CT 1237   4.772   0.325   1.438 -0.5193  0.1159 -0.1469
   70c3c     HC 1238   4.836   0.411   1.459  0.7866 -0.9635  0.3697
   70c3c     HC 1239   4.685   0.364   1.386 -0.8041  0.3191  0.4848
   70c3c     HC 1240   4.820   0.262   1.363  1.9509  1.1169  0.5406
   71c3c     N4 1241   5.469   0.453   4.773 -1.2309  0.2665 -0.2736
   71c3c     C1 1242   5.593   0.500   4.835  0.7613 -0.2345  0.2032
   71c3c     C1 1243   5.373   0.457   4.882 -0.4808  0.0626 -0.5698
   71c3c     C2 1244   5.561   0.608   4.938  0.2185 -0.0235  0.7887
   71c3c     C2 1245   5.416   0.578   4.970 -0.4149  0.2126 -0.0208
   71c3c     C1 1246   5.430   0.557   4.674 -0.2973 -0.4498 -0.4377
   71c3c     C1 1247   5.481   0.320   4.708  0.2302  0.2399 -0.1437
   71c3c     H1 1248   5.656   0.545   4.759 -1.0448  2.5752  0.2820
   71c3c     H1 1249   5.648   0.432   4.900  0.3697  0.5407  1.3753
   71c3c     H1 1250   5.269   0.448   4.851 -0.1254  2.5110 -2.5992
   71c3c     H1 1251   5.382   0.369   4.945 -3.2109  1.3938  1.7746
   71c3c     HC 1252   5.572   0.706   4.893 -0.0657 -1.1027 -1.7320
   71c3c     HC 1253   5.620   0.591   5.028 -0.0887 -2.0898  0.6265
   71c3c     HC 1254   5.346   0.660   4.956  0.0972  0.5371 -0.7231
   71c3c     HC 1255   5.399   0.537   5.070 -0.8650 -1.4002 -0.7503
   71c3c     H1 1256   5.509   0.566   4.600  1.0131  0.6409  1.0564
   71c3c     H1 1257   5.338   0.531   4.622 -3.0419  0.7234  3.6267
   71c3c     H1 1258   5.420   0.658   4.715  0.2307 -0.3621 -0.5186
   71c3c     H1 1259   5.389   0.296   4.654 -0.0446  1.9129 -0.4327
   71c3c     H1 1260   5.552   0.330   4.626 -1.5148 -0.4271 -1.7961
   71c3c     C2 1261   5.531   0.199   4.801  0.4275 -0.2879  0.1434
   71c3c     HC 1262   5.466   0.178   4.885 -0.9099  0.5657 -0.6749
   71c3c     HC 1263   5.625   0.217   4.853  0.9182 -0.1222 -0.7786
   71c3c     CT 1264   5.548   0.067   4.724 -0.2098  0.3637 -0.6036
   71c3c     HC 1265   5.640   0.080   4.667  2.4265 -1.1543  3.1131
   71c3c     HC 1266   5.480   0.055   4.640 -0.6133 -1.2105 -0.0727
   71c3c     HC 1267   5.563  -0.025   4.780 -1.2448  0.1268 -0.6984
   72c3c     N4 1268   1.423   0.659   2.975  0.3775 -0.8597 -0.2157
   72c3c     C1 1269   1.292   0.719   2.940 -0.1952  1.2106 -0.2303
   72c3c     C1 1270   1.459   0.586   2.848 -0.9650 -0.2266 -0.0986
   72c3c     C2 1271   1.299   0.755   2.796 -0.1981 -0.7630  0.4897
   72c3c     C2 1272   1.404   0.664   2.729 -0.5664  0.1804  0.0760
   72c3c     C1 1273   1.519   0.765   3.006  0.1041 -0.0393  1.0341
   72c3c     C1 1274   1.414   0.570   3.094  0.4127  0.4868 -0.1095
   72c3c     H1 1275   1.264   0.805   3.000  1.1145  0.4200  1.5755
   72c3c     H1 1276   1.212   0.645   2.947  0.5525  0.5433  1.5691
   72c3c     H1 1277   1.566   0.570   2.844 -1.3351 -2.9603  0.2473
   72c3c     H1 1278   1.406   0.492   2.857  0.0982 -0.7080  1.4078
   72c3c     HC 1279   1.324   0.861   2.790 -1.4146 -0.2966  3.0626
   72c3c     HC 1280   1.200   0.733   2.757  0.5091 -1.6088 -0.9000
   72c3c     HC 1281   1.488   0.710   2.677  0.0905 -0.9818  0.0821
   72c3c     HC 1282   1.354   0.593   2.663 -1.1517 -0.0429  0.7596
   72c3c     H1 1283   1.514   0.826   3.096  2.2669 -1.4027  2.1282
   72c3c     H1 1284   1.618   0.721   3.017 -0.6608 -1.7594  1.2214
   72c3c     H1 1285   1.530   0.831   2.920 -0.5315 -0.5443  0.5617
   72c3c     H1 1286   1.509   0.518   3.104  0.7102  0.6337 -1.9947
   72c3c     H1 1287   1.406   0.615   3.192  0.2686 -0.1872  0.1866
   72c3c     C2 1288   1.295   0.459   3.099 -0.6590 -0.3527 -0.7734
   72c3c     HC 1289   1.296   0.397   3.010 -0.4807 -1.2997 -0.1203
   72c3c     HC 1290   1.197   0.506   3.105 -1.3222 -1.9777  2.6657
   72c3c     CT 1291   1.313   0.366   3.222 -0.0386  0.4898 -0.1078
   72c3c     HC 1292   1.308   0.412   3.320 -0.0372 -2.4681  1.3408
   72c3c     HC 1293   1.409   0.315   3.210 -1.6844 -2.1791 -2.9721
   72c3c     HC 1294   1.243   0.283   3.208 -0.3674  1.1431 -2.6191
   73c3c     N4 1295   4.710   1.171   4.099  0.0891  0.7104 -0.3919
   73c3c     C1 1296   4.639   1.294   4.072  0.1759  0.5170 -0.6861
   73c3c     C1 1297   4.605   1.085   4.163 -0.0547 -0.1884 -0.0458
   73c3c     C2 1298   4.494   1.265   4.040  0.4068 -0.2631  0.4008
   73c3c     C2 1299   4.466   1.129   4.109  0.5112 -0.0129  0.3291
   73c3c     C1 1300   4.745   1.111   3.966 -0.6311 -0.4398  0.3196
   73c3c     C1 1301   4.841   1.198   4.162  0.1559 -0.2531  0.2485
   73c3c     H1 1302   4.687   1.346   3.989 -0.9273  0.4438 -1.3765
   73c3c     H1 1303   4.644   1.355   4.163  4.0628  1.2876 -1.3105
   73c3c     H1 1304   4.632   0.979   4.164 -0.6988 -0.3440  1.8806
   73c3c     H1 1305   4.609   1.102   4.270 -0.1048  0.2651 -0.1140
   73c3c     HC 1306   4.483   1.262   3.931  1.2037 -0.7459  0.3318
   73c3c     HC 1307   4.435   1.346   4.083  0.9699  0.4007 -0.0534
   73c3c     HC 1308   4.431   1.053   4.039 -3.3125 -0.1691  2.2939
   73c3c     HC 1309   4.387   1.139   4.183 -0.4718 -1.7878 -0.4496
   73c3c     H1 1310   4.816   1.163   3.902  0.4740 -0.8612  1.1979
   73c3c     H1 1311   4.790   1.014   3.989  0.2718  0.0134  0.4722
   73c3c     H1 1312   4.651   1.095   3.913 -1.4366  0.5394  1.4115
   73c3c     H1 1313   4.906   1.111   4.174  0.2843 -0.0828  0.8019
   73c3c     H1 1314   4.901   1.257   4.093  2.1546 -2.0498  0.4255
   73c3c     C2 1315   4.834   1.254   4.305 -0.8400  0.0059  0.3972
   73c3c     HC 1316   4.782   1.194   4.379  0.4333 -0.7871  0.6697
   73c3c     HC 1317   4.768   1.341   4.300 -1.2583 -0.3537 -0.5011
   73c3c     CT 1318   4.974   1.289   4.365 -0.1100  0.3046  0.0421
   73c3c     HC 1319   5.054   1.217   4.348 -1.4552 -0.9501 -1.0275
   73c3c     HC 1320   4.985   1.322   4.469 -0.7891 -2.7356  1.1355
   73c3c     HC 1321   5.012   1.376   4.311  0.1029  0.8476  1.0478
   74c3c     N4 1322   5.404   0.519   3.003  0.0215 -0.0510 -0.4379
   74c3c     C1 1323   5.333   0.478   2.877  0.4041  0.1223  0.3389
   74c3c     C1 1324   5.489   0.630   2.957 -0.4600 -0.3186 -0.4201
   74c3c     C2 1325   5.303   0.610   2.804 -0.2398 -0.2059  0.2396
   74c3c     C2 1326   5.405   0.706   2.853 -0.2556  0.3243 -0.2579
   74c3c     C1 1327   5.306   0.559   3.108  0.3261 -0.3480 -0.0867
   74c3c     C1 1328   5.481   0.403   3.055  0.1239  0.0531 -0.2584
   74c3c     H1 1329   5.250   0.410   2.893 -0.4546  0.9031 -0.7569
   74c3c     H1 1330   5.396   0.418   2.812 -0.2084 -0.7711  0.5663
   74c3c     H1 1331   5.522   0.696   3.037 -1.0500  0.2330 -0.6263
   74c3c     H1 1332   5.581   0.591   2.915  1.5935  0.8148  2.7802
   74c3c     HC 1333   5.205   0.648   2.833 -0.2255  1.7068 -2.0505
   74c3c     HC 1334   5.297   0.607   2.696  1.1201 -1.5330  0.1906
   74c3c     HC 1335   5.344   0.782   2.901  0.1129  2.0784 -2.5120
   74c3c     HC 1336   5.458   0.756   2.772 -0.7426  1.5536  0.1752
   74c3c     H1 1337   5.223   0.488   3.111  0.5924 -0.6115  1.9268
   74c3c     H1 1338   5.340   0.561   3.212  0.7240  0.9452 -0.2241
   74c3c     H1 1339   5.260   0.658   3.097 -1.2784 -1.0091  0.4632
   74c3c     H1 1340   5.558   0.373   2.984  1.5194  2.0408  0.3598
   74c3c     H1 1341   5.532   0.444   3.142 -1.4533 -0.8292  1.0912
   74c3c     C2 1342   5.413   0.270   3.100  0.1157 -0.0312  0.0831
   74c3c     HC 1343   5.369   0.211   3.019  0.5542  1.8876 -1.6100
   74c3c     HC 1344   5.324   0.287   3.161  0.5705  0.9420  0.4917
   74c3c     CT 1345   5.509   0.188   3.192  0.6482  0.1791 -0.7225
   74c3c     HC 1346   5.449   0.104   3.228  1.1553  0.3519  0.5269
   74c3c     HC 1347   5.539   0.261   3.266 -0.2173  2.4381 -2.5194
   74c3c     HC 1348   5.601   0.158   3.141  1.6016  0.1020  1.0407
   75c3c     N4 1349   4.188   0.859   0.805  0.0739 -0.6423 -0.7191
   75c3c     C1 1350   4.291   0.964   0.824  0.1831 -0.2195  0.4043
   75c3c     C1 1351   4.271   0.738   0.791 -0.4233 -0.3393  0.0906
   75c3c     C2 1352   4.396   0.906   0.919 -0.0426 -0.4446 -0.7180
   75c3c     C2 1353   4.388   0.755   0.893 -0.0297  0.0385 -0.2682
   75c3c     C1 1354   4.102   0.848   0.928 -0.0630 -0.3185 -0.0215
   75c3c     C1 1355   4.101   0.888   0.691  0.1200 -0.7366  0.2857
   75c3c     H1 1356   4.263   1.061   0.865  2.1836  0.5371  0.0315
   75c3c     H1 1357   4.342   0.986   0.731  1.1534 -2.9403  0.2376
   75c3c     H1 1358   4.218   0.643   0.802  0.2943 -0.8028 -0.4747
   75c3c     H1 1359   4.320   0.738   0.694 -1.2546  0.4030 -0.3339
   75c3c     HC 1360   4.375   0.929   1.024  3.2943 -0.8946  0.0865
   75c3c     HC 1361   4.491   0.952   0.895 -0.4608 -0.1321 -1.7752
   75c3c     HC 1362   4.385   0.695   0.983  0.0715  1.8773  0.9962
   75c3c     HC 1363   4.479   0.717   0.848  1.8057  2.5546  1.1887
   75c3c     H1 1364   4.048   0.942   0.943  2.0117  1.0147 -0.6839
   75c3c     H1 1365   4.034   0.763   0.923 -0.3042  0.0017 -2.9181
   75c3c     H1 1366   4.152   0.830   1.023  0.4268 -0.4006 -0.2947
   75c3c     H1 1367   4.015   0.822   0.680 -0.3819  0.0310 -0.4890
   75c3c     H1 1368   4.053   0.982   0.718 -1.7950 -1.5822 -0.1269
   75c3c     C2 1369   4.176   0.904   0.552  0.1137 -0.3428  0.3744
   75c3c     HC 1370   4.195   0.806   0.510  1.2340 -0.4315  1.0573
   75c3c     HC 1371   4.279   0.941   0.553 -0.6257  1.9311 -1.8420
   75c3c     CT 1372   4.096   1.000   0.465 -1.3123  0.8676  0.1409
   75c3c     HC 1373   4.004   0.949   0.436 -1.7551  1.7776 -0.0683
   75c3c     HC 1374   4.164   1.026   0.384  0.3119 -1.0420  0.8457
   75c3c     HC 1375   4.074   1.095   0.512  0.6679  0.9812  0.8767
   76fsi    FSI 1376   2.856   0.935   2.801  0.1557 -0.0810 -0.4042
   76fsi    SBT 1377   2.922   0.795   2.784 -0.0214 -0.0003 -0.1095
   76fsi    NBT 1378   3.060   0.826   2.719  0.7388  0.5228  0.3808
   76fsi    OBT 1379   2.924   0.737   2.917 -0.6565 -0.7329 -0.0341
   76fsi    OBT 1380   2.829   0.741   2.683  0.6649 -0.1593 -0.1281
   76fsi    SBT 1381   3.198   0.845   2.797  0.4680  0.0043  0.1366
   76fsi    OBT 1382   3.313   0.792   2.720  0.2456  0.4964 -1.2213
   76fsi    OBT 1383   3.205   0.814   2.940  0.0960 -0.0902  0.0367
   76fsi    FSI 1384   3.229   0.999   2.787 -0.0050 -0.2059 -0.0861
   77fsi    FSI 1385   1.996   0.350   2.863 -0.0898 -0.0385 -0.0229
   77fsi    SBT 1386   1.931   0.466   2.938 -0.3112 -0.3969  0.0717
   77fsi    NBT 1387   2.028   0.593   2.909  0.2079  0.1752 -0.5316
   77fsi    OBT 1388   1.805   0.485   2.869 -0.2892  0.0161 -0.2922
   77fsi    OBT 1389   1.941   0.418   3.075 -0.4257  0.8083  0.3230
   77fsi    SBT 1390   2.098   0.693   3.009 -0.3512  0.1384 -0.2792
   77fsi    OBT 1391   2.222   0.737   2.947  0.5082  0.2471 -0.1885
   77fsi    OBT 1392   2.099   0.652   3.146 -0.5618  0.2704  0.0747
   77fsi    FSI 1393   2.003   0.821   3.022  0.0520 -0.2964  0.1696
   78fsi    FSI 1394   4.866   1.155   1.219 -0.3330  0.0473 -0.5451
   78fsi    SBT 1395   4.775   1.035   1.263 -0.2924  0.1073 -0.2042
   78fsi    NBT 1396   4.830   0.922   1.175  0.4995  0.2444  1.2435
   78fsi    OBT 1397   4.818   1.006   1.399 -0.2532  0.2309  0.4076
   78fsi    OBT 1398   4.640   1.076   1.245 -0.5291  0.4899  0.2105
   78fsi    SBT 1399   4.805   0.892   1.019 -0.2860  0.4430  0.1464
   78fsi    OBT 1400   4.923   0.831   0.958 -0.8201 -0.3149 -0.2591
   78fsi    OBT 1401   4.735   0.994   0.953  0.1490  0.5084  0.0676
   78fsi    FSI 1402   4.702   0.760   1.018 -0.1891  0.0621 -0.4392
   79fsi    FSI 1403   2.202   0.240   3.439  0.2208 -0.5008  0.5416
   79fsi    SBT 1404   2.273   0.348   3.350 -0.0455 -0.1271  0.1886
   79fsi    NBT 1405   2.302   0.462   3.455 -0.1585  0.1917  0.0130
   79fsi    OBT 1406   2.389   0.277   3.309 -0.3051 -0.3308  0.2999
   79fsi    OBT 1407   2.173   0.372   3.252 -0.3563  0.1029 -0.0665
   79fsi    SBT 1408   2.202   0.582   3.495 -0.5744 -0.1117  0.0332
   79fsi    OBT 1409   2.068   0.566   3.444  0.2056  0.3801  0.5562
   79fsi    OBT 1410   2.262   0.711   3.478 -0.2510 -0.5720  0.6261
   79fsi    FSI 1411   2.182   0.568   3.647 -0.4339  0.3261  0.0530
   80fsi    FSI 1412   4.316   1.854   2.001 -0.6349 -0.1256  0.2527
   80fsi    SBT 1413   4.315   1.725   1.915 -0.2373  0.0187  0.0713
   80fsi    NBT 1414   4.195   1.647   1.984  0.4062 -0.1560 -0.3105
   80fsi    OBT 1415   4.278   1.770   1.785  0.2976 -0.0621 -0.1227
   80fsi    OBT 1416   4.445   1.662   1.938 -0.3084  0.3546  0.4418
   80fsi    SBT 1417   4.076   1.574   1.905 -0.0365 -0.2251  0.0673
   80fsi    OBT 1418   4.103   1.532   1.770 -0.0598 -0.2694  0.6152
   80fsi    OBT 1419   3.954   1.643   1.937 -0.3956 -0.1536 -0.3900
   80fsi    FSI 1420   4.064   1.438   1.989 -0.0905  0.3643  0.2886
   81fsi    FSI 1421   5.359   0.812   1.712  0.1239  0.0253 -0.1834
   81fsi    SBT 1422   5.496   0.878   1.663 -0.0300  0.1735 -0.4774
   81fsi    NBT 1423   5.600   0.815   1.764  0.3005 -0.0165 -0.0211
   81fsi    OBT 1424   5.500   0.823   1.529 -0.1414 -0.3686  0.8549
   81fsi    OBT 1425   5.486   1.024   1.659 -0.1964 -0.2038 -0.3985
   81fsi    SBT 1426   5.652   0.868   1.906 -0.3536 -0.2064  0.0381
   81fsi    OBT 1427   5.719   0.768   1.983  0.0105 -0.1669 -0.0122
   81fsi    OBT 1428   5.563   0.951   1.979 -0.2237  0.1622  0.3541
   81fsi    FSI 1429   5.761   0.962   1.869  0.3720  0.0196  0.3486
   82fsi    FSI 1430   4.020   0.530   3.395 -0.9695 -0.0491 -0.4082
   82fsi    SBT 1431   3.879   0.507   3.469  0.3117  0.1705  0.1011
   82fsi    NBT 1432   3.829   0.375   3.396 -0.1023 -0.9191 -0.6117
   82fsi    OBT 1433   3.920   0.488   3.606  0.1301 -0.1643  0.1353
   82fsi    OBT 1434   3.798   0.621   3.443  0.4859 -0.2534  0.8884
   82fsi    SBT 1435   3.800   0.229   3.439 -0.1399 -0.1349  0.2614
   82fsi    OBT 1436   3.786   0.208   3.582  0.0523 -0.5478  0.0218
   82fsi    OBT 1437   3.876   0.139   3.356  0.1047  0.1767 -0.2613
   82fsi    FSI 1438   3.648   0.220   3.384  0.0934  0.2295  0.8123
   83fsi    FSI 1439   4.973   0.806   1.656  0.2619 -0.2490  0.2320
   83fsi    SBT 1440   4.861   0.740   1.741 -0.6506  0.0366  0.0082
   83fsi    NBT 1441   4.789   0.861   1.808  0.1496  0.9278  0.8157
   83fsi    OBT 1442   4.776   0.685   1.639  0.8003 -0.5037  0.0325
   83fsi    OBT 1443   4.924   0.650   1.841 -0.2798  0.1871 -0.3406
   83fsi    SBT 1444   4.820   0.939   1.936  0.6824  0.4607  0.3988
   83fsi    OBT 1445   4.844   1.079   1.896  0.2243 -0.3263 -0.0331
   83fsi    OBT 1446   4.908   0.886   2.043  0.7340  0.1379  0.0971
   83fsi    FSI 1447   4.677   0.949   2.006  0.2836  0.5933  0.9458
   84fsi    FSI 1448   5.977   1.031   3.576  0.1601 -0.2707  0.3007
   84fsi    SBT 1449   5.907   1.080   3.700 -0.4352 -0.0684  0.1370
   84fsi    NBT 1450   5.855   0.943   3.758  0.1297 -0.4534  0.3357
   84fsi    OBT 1451   6.017   1.131   3.779 -0.2735  0.6052  0.4374
   84fsi    OBT 1452   5.812   1.168   3.647 -0.0515  0.0085 -0.2018
   84fsi    SBT 1453   5.732   0.859   3.712  0.3197 -0.0391 -0.3848
   84fsi    OBT 1454   5.744   0.723   3.759 -0.7041 -0.0640  0.6869
   84fsi    OBT 1455   5.688   0.869   3.575 -0.7426  0.8166 -0.0012
   84fsi    FSI 1456   5.616   0.927   3.789  0.1522 -0.3616 -0.7425
   85fsi    FSI 1457   4.773   1.047   4.629 -0.3087  0.3356  0.4962
   85fsi    SBT 1458   4.776   0.926   4.529 -0.0464  0.1604 -0.2041
   85fsi    NBT 1459   4.631   0.943   4.459 -0.2597  0.5075 -0.1320
   85fsi    OBT 1460   4.885   0.957   4.444 -0.0555 -0.5785 -0.2754
   85fsi    OBT 1461   4.788   0.813   4.617 -0.3931  0.0611 -0.1937
   85fsi    SBT 1462   4.500   0.859   4.467 -0.1948 -0.0807 -0.3471
   85fsi    OBT 1463   4.508   0.744   4.559 -0.0190 -0.3288  0.0826
   85fsi    OBT 1464   4.444   0.846   4.338  0.6047 -0.0831  0.6328
   85fsi    FSI 1465   4.398   0.964   4.527 -0.7030 -0.5283 -0.3002
   86fsi    FSI 1466   5.888   0.391   3.175 -0.0668  0.4871 -0.3373
   86fsi    SBT 1467   5.856   0.523   3.097 -0.0808  0.0785 -0.0963
   86fsi    NBT 1468   5.986   0.606   3.099 -0.3550 -1.0453 -0.3505
   86fsi    OBT 1469   5.819   0.475   2.966  0.4850  0.6258  0.4389
   86fsi    OBT 1470   5.752   0.580   3.177  0.3897 -0.0022 -0.0196
   86fsi    SBT 1471   6.097   0.630   2.985  0.1083 -0.0932 -0.3586
   86fsi    OBT 1472   6.168   0.750   3.009 -0.4988  0.5721  0.4761
   86fsi    OBT 1473   6.057   0.610   2.849  0.0569  0.3154 -0.5715
   86fsi    FSI 1474   6.207   0.520   3.004  0.1526  0.3680 -0.3459
   87fsi    FSI 1475   6.389   1.163   2.884  0.0792 -0.0317  0.3476
   87fsi    SBT 1476   6.419   1.060   2.994 -0.0567  0.3705 -0.4727
   87fsi    NBT 1477   6.414   0.914   2.919 -0.3403  0.3929  0.0095
   87fsi    OBT 1478   6.549   1.098   3.038 -0.2317  0.4597  0.0163
   87fsi    OBT 1479   6.308   1.068   3.088  0.2581  0.2885  0.5698
   87fsi    SBT 1480   6.525   0.808   2.904 -0.2965  0.2398  0.3961
   87fsi    OBT 1481   6.475   0.676   2.894 -0.0541 -0.1435 -0.0429
   87fsi    OBT 1482   6.628   0.820   3.001 -0.1430 -0.1612  0.4086
   87fsi    FSI 1483   6.594   0.837   2.774 -0.3254  0.4780  0.2019
   88fsi    FSI 1484   2.746   1.356   4.278  0.2943 -0.0809  0.4225
   88fsi    SBT 1485   2.797   1.223   4.200  0.1598  0.3360 -0.2340
   88fsi    NBT 1486   2.935   1.265   4.136  0.0298  0.7154 -0.0152
   88fsi    OBT 1487   2.825   1.123   4.302  0.3630 -0.4275 -0.0156
   88fsi    OBT 1488   2.682   1.202   4.113  0.0405 -0.2228  0.4083
   88fsi    SBT 1489   2.966   1.313   3.991  0.2374 -0.4500  0.1549
   88fsi    OBT 1490   2.892   1.243   3.887 -0.1852 -0.2255  0.2717
   88fsi    OBT 1491   3.104   1.337   3.970 -0.4027 -0.2041  0.3844
   88fsi    FSI 1492   2.915   1.466   3.992 -0.5207 -0.0751  0.3393
   89fsi    FSI 1493   3.859   0.634   2.636 -0.4847 -0.3872  0.1242
   89fsi    SBT 1494   3.914   0.663   2.776 -0.5876  0.0083 -0.2956
   89fsi    NBT 1495   3.933   0.515   2.819 -0.0825  0.4993 -0.0250
   89fsi    OBT 1496   4.031   0.743   2.744  0.0729 -0.3487  0.3379
   89fsi    OBT 1497   3.802   0.727   2.842 -0.7056  0.6258  0.4324
   89fsi    SBT 1498   4.063   0.426   2.825  0.1714 -0.6980 -0.0105
   89fsi    OBT 1499   4.183   0.494   2.779 -0.1621  0.1951 -0.2067
   89fsi    OBT 1500   4.043   0.295   2.775  0.2725  0.0116  0.1651
   89fsi    FSI 1501   4.085   0.403   2.982 -0.5527 -0.1356  0.4726
   90fsi    FSI 1502   4.262   0.199   1.670 -0.0652  0.1681 -0.7639
   90fsi    SBT 1503   4.151   0.186   1.779  0.1570  0.3206  0.0692
   90fsi    NBT 1504   4.168   0.311   1.872 -0.2119  0.2721  0.2485
   90fsi    OBT 1505   4.021   0.168   1.716 -0.3983 -0.0174 -0.5099
   90fsi    OBT 1506   4.194   0.063   1.843  0.0156  0.3077  0.1395
   90fsi    SBT 1507   4.120   0.451   1.849 -0.0405 -0.0912 -0.0701
   90fsi    OBT 1508   4.050   0.476   1.725 -0.3764 -0.2417  0.1412
   90fsi    OBT 1509   4.217   0.540   1.904  0.0015 -0.6514 -0.3019
   90fsi    FSI 1510   4.000   0.458   1.948  0.0542 -0.4214 -0.4508
   91fsi    FSI 1511   5.176   1.491   4.115 -0.0005  0.0687 -0.5469
   91fsi    SBT 1512   5.182   1.431   3.972  0.2457 -0.3542  0.0363
   91fsi    NBT 1513   5.097   1.538   3.885 -0.4658  0.1207  0.0325
   91fsi    OBT 1514   5.321   1.429   3.951  0.8512 -0.2354 -0.2769
   91fsi    OBT 1515   5.126   1.301   3.981  0.3277  0.2473 -0.0529
   91fsi    SBT 1516   4.946   1.560   3.885 -0.0232  0.0293  0.3309
   91fsi    OBT 1517   4.883   1.506   4.002 -0.4928 -0.0225 -0.2482
   91fsi    OBT 1518   4.886   1.532   3.754  0.5367  0.2675 -0.2535
   91fsi    FSI 1519   4.928   1.717   3.909  0.7434 -0.4160  0.3149
   92fsi    FSI 1520   5.199   0.996   4.608  0.0200 -0.2880 -0.0305
   92fsi    SBT 1521   5.285   1.011   4.474 -0.0554  0.1770 -0.1542
   92fsi    NBT 1522   5.402   0.906   4.497  0.5129  0.2933 -0.0667
   92fsi    OBT 1523   5.195   0.970   4.370 -0.1312 -0.1525 -0.7405
   92fsi    OBT 1524   5.331   1.146   4.472  0.6782  0.1413  0.3746
   92fsi    SBT 1525   5.513   0.920   4.603 -0.0189 -0.2513  0.2731
   92fsi    OBT 1526   5.601   0.802   4.602 -0.1232  0.7573  0.1989
   92fsi    OBT 1527   5.472   0.977   4.727  0.1223 -0.7451  0.0960
   92fsi    FSI 1528   5.610   1.026   4.544 -0.2787  0.0412 -0.2001
   93fsi    FSI 1529   3.348   0.668   4.553 -0.2261 -0.6419  0.1873
   93fsi    SBT 1530   3.483   0.751   4.546  0.0274 -0.4367  0.0764
   93fsi    NBT 1531   3.423   0.893   4.516 -0.5552 -0.1316  0.2295
   93fsi    OBT 1532   3.553   0.739   4.673  0.5204 -0.1163 -0.6508
   93fsi    OBT 1533   3.553   0.696   4.431 -0.1224  0.4346  0.5284
   93fsi    SBT 1534   3.404   1.016   4.612  0.7559 -0.0113  0.1384
   93fsi    OBT 1535   3.434   1.003   4.752 -0.1987 -0.6394 -0.1431
   93fsi    OBT 1536   3.287   1.092   4.576 -0.5756  0.1382 -0.1107
   93fsi    FSI 1537   3.516   1.110   4.560 -0.1268 -0.0501  0.6930
   94fsi    FSI 1538   3.729   1.247   3.858 -0.0867 -0.4540  0.4743
   94fsi    SBT 1539   3.619   1.156   3.791 -0.0927  0.0905  0.0748
   94fsi    NBT 1540   3.638   1.158   3.635 -0.7963  0.9643 -0.4216
   94fsi    OBT 1541   3.632   1.029   3.857 -0.2039  0.8494  0.4637
   94fsi    OBT 1542   3.501   1.226   3.831  0.8379  0.1606  0.1055
   94fsi    SBT 1543   3.684   1.039   3.543  0.0701  0.1090  0.1932
   94fsi    OBT 1544   3.612   0.918   3.560  0.4536 -0.5086 -0.0155
   94fsi    OBT 1545   3.831   1.035   3.531  0.3303 -0.1301 -0.3784
   94fsi    FSI 1546   3.640   1.086   3.408 -0.3160 -0.0590 -0.1930
   95fsi    FSI 1547   2.962   0.883   3.554 -0.0521 -0.0543  0.5699
   95fsi    SBT 1548   2.899   0.852   3.410  0.0800  0.4129  0.1306
   95fsi    NBT 1549   2.861   1.001   3.364  0.0365 -0.3345  0.3933
   95fsi    OBT 1550   3.008   0.801   3.328  0.5373  0.4398 -0.0131
   95fsi    OBT 1551   2.778   0.772   3.432 -0.1037 -0.5107 -0.0697
   95fsi    SBT 1552   2.896   1.086   3.240 -0.3730  0.2043  0.4932
   95fsi    OBT 1553   2.970   1.012   3.143  0.1302  0.1124 -0.4255
   95fsi    OBT 1554   2.937   1.222   3.269  0.1330  0.3697  0.0486
   95fsi    FSI 1555   2.752   1.100   3.173  0.0567 -0.0404 -0.4362
   96fsi    FSI 1556   0.533   0.709   4.235  0.3585 -0.6868  0.1806
   96fsi    SBT 1557   0.447   0.675   4.101  0.0854 -0.0441 -0.0043
   96fsi    NBT 1558   0.562   0.675   3.993  0.1786 -0.4430 -0.9048
   96fsi    OBT 1559   0.406   0.545   4.132 -0.6134 -0.0235 -0.2135
   96fsi    OBT 1560   0.345   0.776   4.097 -0.3229 -0.0165 -0.1145
   96fsi    SBT 1561   0.649   0.791   3.932 -0.3107  0.1471 -0.1928
   96fsi    OBT 1562   0.584   0.920   3.933 -0.2762  0.2871  0.2125
   96fsi    OBT 1563   0.716   0.750   3.809  0.1474 -0.3728  0.0153
   96fsi    FSI 1564   0.773   0.803   4.024  0.5239  0.2167 -0.3826
   97fsi    FSI 1565   4.501   1.503   3.562 -0.7674 -0.5984 -0.7193
   97fsi    SBT 1566   4.549   1.365   3.516 -0.1400 -0.1886 -0.2137
   97fsi    NBT 1567   4.415   1.291   3.504  0.5304  0.5022  0.3482
   97fsi    OBT 1568   4.619   1.398   3.394 -0.1127  0.8499 -0.3811
   97fsi    OBT 1569   4.630   1.322   3.624 -0.6355  0.4120 -0.2716
   97fsi    SBT 1570   4.356   1.227   3.371  0.0251 -0.2858  0.1149
   97fsi    OBT 1571   4.225   1.177   3.388  0.2838  0.0971 -0.1501
   97fsi    OBT 1572   4.456   1.159   3.295  0.2722  0.3972 -0.0507
   97fsi    FSI 1573   4.325   1.359   3.291  0.0472  0.2154 -0.2740
   98fsi    FSI 1574   3.783   1.072   4.133 -0.0876  0.3696  0.1511
   98fsi    SBT 1575   3.839   1.030   4.287  0.1281  0.5564 -0.1222
   98fsi    NBT 1576   3.960   0.926   4.262  0.7651  0.0537  0.4975
   98fsi    OBT 1577   3.886   1.147   4.347 -0.1982 -0.0148  0.3880
   98fsi    OBT 1578   3.721   0.971   4.349  0.5537 -0.0916  0.1127
   98fsi    SBT 1579   4.102   0.967   4.199  0.2769 -0.1099 -0.3066
   98fsi    OBT 1580   4.117   1.089   4.126 -0.6381 -0.3515  0.3407
   98fsi    OBT 1581   4.171   0.853   4.139 -0.2427  0.2438 -0.6137
   98fsi    FSI 1582   4.177   0.994   4.332 -0.4216  0.4171  0.0666
   99fsi    FSI 1583   3.246   1.221   1.975  0.0518  0.0339  0.6609
   99fsi    SBT 1584   3.358   1.117   1.941 -0.1004  0.5904  0.1733
   99fsi    NBT 1585   3.490   1.200   1.958  0.3257  0.4488  0.1625
   99fsi    OBT 1586   3.343   1.012   2.040  0.2355  0.2662 -0.0347
   99fsi    OBT 1587   3.330   1.074   1.803  0.2438 -0.3670  0.0084
   99fsi    SBT 1588   3.617   1.167   2.042  0.0312 -0.3194  0.0028
   99fsi    OBT 1589   3.732   1.235   1.999  0.2951  0.1786  0.1513
   99fsi    OBT 1590   3.629   1.029   2.083  0.0735 -0.2771 -0.0068
   99fsi    FSI 1591   3.567   1.242   2.169 -0.2140 -0.3207 -0.5894
  100fsi    FSI 1592   3.602   0.459   2.524  0.3422  0.0924 -0.3738
  100fsi    SBT 1593   3.602   0.301   2.476  0.1776  0.0462  0.1495
  100fsi    NBT 1594   3.653   0.319   2.329 -0.6722 -1.0307 -0.5044
  100fsi    OBT 1595   3.695   0.236   2.564  0.7310 -0.2604  0.3662
  100fsi    OBT 1596   3.465   0.267   2.484  0.0098 -0.2198 -0.6391
  100fsi    SBT 1597   3.568   0.288   2.194 -0.1776 -0.0623 -0.1738
  100fsi    OBT 1598   3.646   0.309   2.078 -0.2952 -0.3087  0.2380
  100fsi    OBT 1599   3.435   0.343   2.189 -0.4088  0.4024 -0.1641
  100fsi    FSI 1600   3.548   0.129   2.190  0.4186  0.0572  0.4318
  101fsi    FSI 1601   3.259   0.837   5.591 -0.2428 -0.1676 -0.0216
  101fsi    SBT 1602   3.327   0.709   5.639  0.4907 -0.3803  0.3126
  101fsi    NBT 1603   3.462   0.760   5.706  0.0272 -0.5413 -0.2258
  101fsi    OBT 1604   3.226   0.656   5.727 -0.0616  0.4532 -0.4087
  101fsi    OBT 1605   3.338   0.636   5.517  0.1267  0.0689 -0.9353
  101fsi    SBT 1606   3.600   0.796   5.637 -0.0054 -0.1143  0.4370
  101fsi    OBT 1607   3.602   0.801   5.494  0.2540  0.4122 -0.1679
  101fsi    OBT 1608   3.716   0.745   5.705  0.3378 -0.2813  0.2293
  101fsi    FSI 1609   3.600   0.941   5.674 -0.5152 -0.2951 -0.3672
  102fsi    FSI 1610   3.467   0.981   3.007  0.0970 -0.4609  0.0947
  102fsi    SBT 1611   3.422   1.037   3.147 -0.0213  0.5558 -0.1496
  102fsi    NBT 1612   3.476   0.922   3.237 -0.0835  0.3064 -0.0874
  102fsi    OBT 1613   3.495   1.159   3.154  0.2539  0.3619 -0.3698
  102fsi    OBT 1614   3.277   1.039   3.147 -0.1390  0.2769  0.4426
  102fsi    SBT 1615   3.422   0.782   3.276  0.1714 -0.3574 -0.2079
  102fsi    OBT 1616   3.526   0.704   3.337  0.3063 -0.8503 -0.1844
  102fsi    OBT 1617   3.340   0.711   3.182 -0.9447  0.1348  0.1981
  102fsi    FSI 1618   3.317   0.809   3.385  0.4756  0.2643  0.1519
  103fsi    FSI 1619   4.106   0.993   1.654 -0.6762 -0.1671  0.0495
  103fsi    SBT 1620   4.153   0.847   1.665 -0.0802  0.0383 -0.0697
  103fsi    NBT 1621   4.295   0.848   1.602  0.2432 -0.0212 -0.5185
  103fsi    OBT 1622   4.150   0.808   1.804  0.3864 -0.1521 -0.4039
  103fsi    OBT 1623   4.061   0.780   1.581  0.3143  0.6393  0.1584
  103fsi    SBT 1624   4.428   0.885   1.680  0.6758  0.2899 -0.1863
  103fsi    OBT 1625   4.403   0.978   1.795  0.3059  0.2801 -0.0679
  103fsi    OBT 1626   4.531   0.922   1.590 -0.1346 -0.9607  0.3082
  103fsi    FSI 1627   4.481   0.744   1.741 -0.1568 -1.3832 -0.0312
  104fsi    FSI 1628   3.788   0.596   1.143 -0.0502 -0.3334  0.3774
  104fsi    SBT 1629   3.854   0.725   1.199  0.0441  0.2136  0.2549
  104fsi    NBT 1630   3.760   0.763   1.316  0.0756  0.4755 -0.2793
  104fsi    OBT 1631   3.986   0.691   1.244  0.4329  0.0207 -0.1048
  104fsi    OBT 1632   3.846   0.819   1.088  0.1688 -0.1366  0.2840
  104fsi    SBT 1633   3.624   0.839   1.308 -0.4215 -0.2682  0.1072
  104fsi    OBT 1634   3.542   0.817   1.419  0.8345 -0.1544 -0.1677
  104fsi    OBT 1635   3.559   0.844   1.181 -0.6515  0.6740 -0.2512
  104fsi    FSI 1636   3.682   0.980   1.336 -0.1233 -0.0742  0.5824
  105fsi    FSI 1637   0.023   0.676   4.347  0.5765  0.1567  0.5516
  105fsi    SBT 1638  -0.053   0.556   4.299  0.1738  0.3299 -0.0704
  105fsi    NBT 1639  -0.120   0.608   4.165  0.6057 -0.1257  0.4231
  105fsi    OBT 1640   0.044   0.451   4.280 -0.5021 -0.0870  0.6482
  105fsi    OBT 1641  -0.146   0.533   4.408  0.1156 -0.2344  0.3131
  105fsi    SBT 1642  -0.263   0.680   4.150 -0.2662 -0.2260 -0.4407
  105fsi    OBT 1643  -0.280   0.759   4.029  0.1457 -0.4338  0.2778
  105fsi    OBT 1644  -0.310   0.734   4.276 -0.1216  0.1518  0.0671
  105fsi    FSI 1645  -0.359   0.555   4.135 -0.2881  0.1451  0.1899
  106fsi    FSI 1646   4.561   0.903   3.030  0.5550  0.5160 -0.5735
  106fsi    SBT 1647   4.555   0.752   3.002  0.4289 -0.0109  0.2525
  106fsi    NBT 1648   4.486   0.698   3.129  0.2794 -0.1484  0.1794
  106fsi    OBT 1649   4.477   0.731   2.882 -0.2095 -0.3506  0.0385
  106fsi    OBT 1650   4.691   0.717   2.999 -0.1842 -0.6713 -0.4932
  106fsi    SBT 1651   4.336   0.673   3.160  0.2573 -0.8277 -0.3338
  106fsi    OBT 1652   4.247   0.723   3.055 -0.3322  0.3055  0.2429
  106fsi    OBT 1653   4.292   0.687   3.298 -0.1811  0.4345 -0.0184
  106fsi    FSI 1654   4.319   0.514   3.136  0.4607  0.0321 -0.3789
  107fsi    FSI 1655   3.908   0.804   0.268 -0.2920 -0.3196  0.0351
  107fsi    SBT 1656   3.795   0.788   0.158 -0.2198 -0.1983 -0.4900
  107fsi    NBT 1657   3.671   0.779   0.256  0.5704  0.4747  0.5212
  107fsi    OBT 1658   3.803   0.913   0.092 -0.7913  0.0603 -0.2465
  107fsi    OBT 1659   3.839   0.674   0.087  0.0819 -0.3399 -0.2027
  107fsi    SBT 1660   3.530   0.847   0.246 -0.2639  0.1168  0.2323
  107fsi    OBT 1661   3.507   0.894   0.114  0.1882 -0.0581  0.4092
  107fsi    OBT 1662   3.489   0.932   0.358  0.2401  0.0878  0.1146
  107fsi    FSI 1663   3.429   0.723   0.256  0.2112  0.3519 -0.6105
  108fsi    FSI 1664   0.941   0.204   2.791 -0.1808 -0.5133  0.2216
  108fsi    SBT 1665   1.010   0.337   2.849  0.7712  0.2600  0.4460
  108fsi    NBT 1666   0.919   0.452   2.791 -0.7991 -0.3015  1.3328
  108fsi    OBT 1667   0.982   0.319   2.990 -0.1981  0.0309 -0.0897
  108fsi    OBT 1668   1.147   0.328   2.812  0.0921  0.4899  0.3239
  108fsi    SBT 1669   0.937   0.538   2.658 -0.0415  0.2889  0.0667
  108fsi    OBT 1670   1.070   0.557   2.606 -0.5327 -0.5319  0.4807
  108fsi    OBT 1671   0.852   0.653   2.659 -0.4232 -0.0347  0.5751
  108fsi    FSI 1672   0.868   0.444   2.551 -0.4499  0.0813 -0.1405
  109fsi    FSI 1673   3.447   0.313   3.715  0.5071 -0.4109  0.8539
  109fsi    SBT 1674   3.449   0.406   3.593  0.6911 -0.4654 -0.3441
  109fsi    NBT 1675   3.345   0.518   3.643  0.3347 -0.0722 -0.2944
  109fsi    OBT 1676   3.582   0.450   3.586 -0.1567  0.3379  0.1584
  109fsi    OBT 1677   3.386   0.335   3.487 -0.0824 -0.2193  0.0648
  109fsi    SBT 1678   3.380   0.650   3.727 -0.2724  0.3224  0.2360
  109fsi    OBT 1679   3.282   0.752   3.700  0.5118  0.5520  0.2005
  109fsi    OBT 1680   3.521   0.692   3.732 -0.4077 -0.4238  0.6090
  109fsi    FSI 1681   3.343   0.612   3.871  0.0542  0.1930 -0.0018
  110fsi    FSI 1682   3.303   0.445   4.198  0.0293 -0.6231 -0.5593
  110fsi    SBT 1683   3.196   0.410   4.304 -0.1359  0.0444 -0.2380
  110fsi    NBT 1684   3.114   0.543   4.312 -0.2322 -0.0735  0.7413
  110fsi    OBT 1685   3.134   0.289   4.252 -0.2391  0.0648 -0.5474
  110fsi    OBT 1686   3.265   0.385   4.427 -0.0463 -0.2054 -0.1188
  110fsi    SBT 1687   2.969   0.573   4.263  0.4061  0.1463 -0.2443
  110fsi    OBT 1688   2.913   0.698   4.324 -0.2795  0.4686  0.0690
  110fsi    OBT 1689   2.872   0.466   4.262  0.7439 -0.1804  0.6662
  110fsi    FSI 1690   2.987   0.615   4.112  0.0974 -0.3014  0.1028
  111fsi    FSI 1691   2.984   6.360   4.585  0.4426 -0.0222  0.5898
  111fsi    SBT 1692   3.047   6.491   4.522 -0.4008 -0.0162 -0.3088
  111fsi    NBT 1693   2.924   6.589   4.527  0.1498 -0.5342 -0.4656
  111fsi    OBT 1694   3.161   6.526   4.604  0.0406  0.4226  0.5920
  111fsi    OBT 1695   3.080   6.448   4.388  0.2049 -0.4119  0.3444
  111fsi    SBT 1696   2.902   6.724   4.604  0.3403 -0.1922  0.0626
  111fsi    OBT 1697   2.799   6.814   4.548 -0.5144  0.2789  0.2379
  111fsi    OBT 1698   3.017   6.792   4.662  0.0469 -0.5091  0.3386
  111fsi    FSI 1699   2.837   6.667   4.736 -0.0563 -0.0104  0.1138
  112fsi    FSI 1700   2.655   6.396   2.849 -0.4379 -0.4539  0.1263
  112fsi    SBT 1701   2.754   6.442   2.961 -0.0615  0.7030  0.1298
  112fsi    NBT 1702   2.770   6.593   2.919 -0.1152  0.0205  0.8928
  112fsi    OBT 1703   2.680   6.439   3.083 -0.0327 -0.5534  0.0362
  112fsi    OBT 1704   2.872   6.355   2.943 -0.2235 -0.1779 -0.0913
  112fsi    SBT 1705   2.907   6.649   2.869 -0.1880 -0.2084  0.0774
  112fsi    OBT 1706   3.025   6.568   2.890  0.4454 -0.2824  0.1698
  112fsi    OBT 1707   2.924   6.786   2.904 -0.0594  0.2749 -0.0016
  112fsi    FSI 1708   2.903   6.653   2.705  0.2750  0.0686  0.6277
  113fsi    FSI 1709   4.475   0.065   4.011 -0.3821 -0.2470  0.3518
  113fsi    SBT 1710   4.522   0.225   4.019  0.1643 -0.2084 -0.0347
  113fsi    NBT 1711   4.392   0.301   3.976  0.6476  1.1148 -0.2754
  113fsi    OBT 1712   4.560   0.256   4.153 -0.1122  0.0115 -0.2138
  113fsi    OBT 1713   4.628   0.242   3.917  0.7724 -0.0419 -0.0107
  113fsi    SBT 1714   4.291   0.397   4.049  0.0904  0.0148  0.2719
  113fsi    OBT 1715   4.211   0.469   3.954 -0.5486  0.0425 -0.2161
  113fsi    OBT 1716   4.355   0.476   4.150 -0.0698 -0.1127  0.2727
  113fsi    FSI 1717   4.190   0.309   4.128 -0.3984  1.0568 -0.5608
  114fsi    FSI 1718   6.256   0.638   1.880 -0.0514 -0.3401 -0.2575
  114fsi    SBT 1719   6.146   0.648   1.992 -0.3554  0.2069 -0.2490
  114fsi    NBT 1720   6.212   0.744   2.092 -0.3961 -0.1718 -0.1126
  114fsi    OBT 1721   6.025   0.690   1.925 -0.8883 -0.1482  0.4590
  114fsi    OBT 1722   6.138   0.522   2.057  0.3040 -0.3306  0.5965
  114fsi    SBT 1723   6.151   0.886   2.135 -0.3218 -0.3689 -0.2227
  114fsi    OBT 1724   6.233   0.950   2.242 -0.2042 -0.3079  0.7925
  114fsi    OBT 1725   6.008   0.897   2.144 -0.6309 -0.1858 -0.8406
  114fsi    FSI 1726   6.188   0.975   2.005  0.0807  0.6114  0.0508
  115fsi    FSI 1727   4.247   1.297   0.995 -0.6986 -0.4047 -0.6315
  115fsi    SBT 1728   4.104   1.267   1.027 -0.1361  0.0068 -0.3355
  115fsi    NBT 1729   4.130   1.133   1.110 -0.3669  0.6146  0.5774
  115fsi    OBT 1730   4.068   1.387   1.104 -0.7267 -0.1786  0.1784
  115fsi    OBT 1731   4.051   1.247   0.896  0.1662 -0.5322 -0.5743
  115fsi    SBT 1732   4.100   1.097   1.263 -0.1042 -0.2696  0.1987
  115fsi    OBT 1733   4.137   1.203   1.353  0.1108 -0.2956 -0.0377
  115fsi    OBT 1734   4.146   0.966   1.304 -0.3039 -0.0466 -0.1154
  115fsi    FSI 1735   3.939   1.077   1.267  0.8380  0.0814 -0.2841
  116fsi    FSI 1736   2.927   0.504   3.295  0.3517  0.2066 -0.0391
  116fsi    SBT 1737   3.063   0.469   3.231 -0.1012 -0.1815 -0.8248
  116fsi    NBT 1738   3.047   0.312   3.200 -0.5455  0.6685  0.2630
  116fsi    OBT 1739   3.074   0.557   3.120  0.6708  0.0814  0.0349
  116fsi    OBT 1740   3.158   0.493   3.340  0.0528 -0.0127  0.1165
  116fsi    SBT 1741   3.099   0.198   3.289 -0.1399  0.1733  0.0778
  116fsi    OBT 1742   3.059   0.069   3.239 -0.9595 -0.0397  0.0671
  116fsi    OBT 1743   3.092   0.223   3.428  0.2482  0.3725  0.3336
  116fsi    FSI 1744   3.253   0.191   3.271  0.2897  0.1071 -0.0884
  117fsi    FSI 1745   4.803   0.522   4.143 -0.1071 -0.0123 -0.1780
  117fsi    SBT 1746   4.735   0.650   4.185  0.3737  0.1445 -0.1323
  117fsi    NBT 1747   4.708   0.726   4.050 -0.5257  0.4948 -0.2692
  117fsi    OBT 1748   4.614   0.605   4.244 -0.5028 -0.5129  0.0357
  117fsi    OBT 1749   4.831   0.713   4.269  0.0325 -0.4764 -0.4506
  117fsi    SBT 1750   4.579   0.727   3.960 -0.0910  0.1271  0.2235
  117fsi    OBT 1751   4.598   0.806   3.838  0.0269  0.3568  0.1748
  117fsi    OBT 1752   4.457   0.745   4.034  0.6002  0.0208 -0.1963
  117fsi    FSI 1753   4.575   0.574   3.911  1.1693  0.1604  0.4733
  118fsi    FSI 1754   3.515   6.366   4.401 -0.0746 -0.1409 -0.0036
  118fsi    SBT 1755   3.509   6.516   4.345  0.2780  0.1331 -0.2410
  118fsi    NBT 1756   3.379   6.522   4.257  0.0974  0.3012  0.5817
  118fsi    OBT 1757   3.496   6.599   4.462  0.0486 -0.5852 -0.3877
  118fsi    OBT 1758   3.629   6.531   4.270  0.3902 -0.2368 -0.6766
  118fsi    SBT 1759   3.371   6.478   4.106  0.2440  0.0485 -0.2671
  118fsi    OBT 1760   3.239   6.441   4.063  0.4318 -0.3874  0.2010
  118fsi    OBT 1761   3.472   6.394   4.058 -0.7773  0.1966 -0.0289
  118fsi    FSI 1762   3.389   6.619   4.036 -0.2023  0.4680 -0.5801
  119fsi    FSI 1763   5.219   0.948   3.850  0.1388 -0.2463 -0.2878
  119fsi    SBT 1764   5.102   0.851   3.834 -0.0552  0.1507 -0.4979
  119fsi    NBT 1765   5.169   0.723   3.907  0.3412  0.3184 -0.0581
  119fsi    OBT 1766   4.994   0.915   3.902  0.1575 -0.2715 -0.3462
  119fsi    OBT 1767   5.082   0.838   3.696  0.2407  0.1266  0.2877
  119fsi    SBT 1768   5.161   0.665   4.052 -0.3122  0.3731  0.6027
  119fsi    OBT 1769   5.109   0.764   4.145  0.1052  0.3005  0.0516
  119fsi    OBT 1770   5.277   0.581   4.072 -0.2268 -0.0191 -0.3060
  119fsi    FSI 1771   5.046   0.560   4.029  0.2071 -0.0101  0.0546
  120fsi    FSI 1772   6.075   1.430   4.452 -0.0208  0.2764 -0.1374
  120fsi    SBT 1773   6.147   1.297   4.425 -0.0663 -0.3010 -0.3921
  120fsi    NBT 1774   6.035   1.197   4.386  0.3947 -0.3548  0.8109
  120fsi    OBT 1775   6.234   1.337   4.320  0.1676 -0.2072 -0.2348
  120fsi    OBT 1776   6.213   1.266   4.552 -0.6246  0.5428  0.0262
  120fsi    SBT 1777   5.975   1.180   4.242  0.0203 -0.3731 -0.1104
  120fsi    OBT 1778   5.992   1.286   4.146  0.7777 -0.3511 -0.3558
  120fsi    OBT 1779   5.849   1.120   4.245  0.4294  0.4062  0.0019
  120fsi    FSI 1780   6.059   1.059   4.174 -0.5464  0.4934  0.0114
  121fsi    FSI 1781   4.076   0.822   2.334  0.2271  0.1345 -0.0477
  121fsi    SBT 1782   3.975   0.799   2.225  0.1263 -0.5857  0.3425
  121fsi    NBT 1783   3.948   0.943   2.172 -0.4618 -0.1925  0.7773
  121fsi    OBT 1784   4.049   0.716   2.140 -0.8814  0.0526 -0.8516
  121fsi    OBT 1785   3.864   0.736   2.286 -0.8420  0.0715 -0.8931
  121fsi    SBT 1786   4.038   1.026   2.073  0.0043 -0.3031 -0.2008
  121fsi    OBT 1787   3.966   1.057   1.953  0.1370 -0.0792  0.0543
  121fsi    OBT 1788   4.167   0.983   2.054  0.3011 -0.4495  0.0722
  121fsi    FSI 1789   4.049   1.170   2.138  0.2619 -0.0280 -0.0044
  122fsi    FSI 1790   4.807   0.244   4.555 -0.1855 -0.3491  0.0165
  122fsi    SBT 1791   4.774   0.399   4.537 -0.4108 -0.1252 -0.5245
  122fsi    NBT 1792   4.892   0.456   4.458  0.2294 -0.5819  0.0610
  122fsi    OBT 1793   4.651   0.395   4.462  0.8331  0.4733  0.1342
  122fsi    OBT 1794   4.760   0.456   4.669 -0.1600 -0.2444  0.6873
  122fsi    SBT 1795   5.042   0.484   4.500 -0.2156  0.0434  0.4383
  122fsi    OBT 1796   5.063   0.440   4.631  0.1381 -0.8552 -0.0888
  122fsi    OBT 1797   5.093   0.617   4.468  0.8255 -0.2018 -0.2379
  122fsi    FSI 1798   5.132   0.391   4.411 -0.1939 -0.4768 -0.4091
  123fsi    FSI 1799   5.701   0.878   2.666  0.3060 -0.2052  0.3217
  123fsi    SBT 1800   5.758   0.912   2.813  0.3111  0.3333  0.2754
  123fsi    NBT 1801   5.840   1.043   2.799  0.4267 -0.0437  0.0678
  123fsi    OBT 1802   5.641   0.939   2.890 -0.7480  0.0522 -0.1059
  123fsi    OBT 1803   5.823   0.791   2.852  0.4162 -0.3572 -0.3939
  123fsi    SBT 1804   5.986   1.066   2.749 -0.0351  0.1080  0.0609
  123fsi    OBT 1805   6.060   0.945   2.746 -0.3282 -0.0391 -0.6302
  123fsi    OBT 1806   6.052   1.185   2.804  0.4026 -0.1056 -0.0312
  123fsi    FSI 1807   5.952   1.096   2.595  0.2862  0.1724  0.2478
  124fsi    FSI 1808   3.431   6.183   2.992  0.0549 -0.5741 -0.6655
  124fsi    SBT 1809   3.391   6.257   3.130 -0.2049  0.3863 -0.1105
  124fsi    NBT 1810   3.302   6.156   3.212 -0.4682  0.1805 -0.2443
  124fsi    OBT 1811   3.512   6.289   3.203 -0.8950 -0.0684 -0.6052
  124fsi    OBT 1812   3.321   6.371   3.081 -0.2208 -0.7173  0.4498
  124fsi    SBT 1813   3.152   6.116   3.208 -0.1892 -0.2413  0.0210
  124fsi    OBT 1814   3.091   6.152   3.082  0.0804 -0.2234 -0.1879
  124fsi    OBT 1815   3.084   6.132   3.330 -0.3189  0.2928 -0.0023
  124fsi    FSI 1816   3.147   5.957   3.196 -0.0489  0.6600 -0.2294
  125fsi    FSI 1817   4.801   0.095   2.325 -0.4939 -0.3587  0.0589
  125fsi    SBT 1818   4.726   0.155   2.441 -0.0947 -0.2398  0.1108
  125fsi    NBT 1819   4.657   0.032   2.502  0.3389 -0.2866  0.0027
  125fsi    OBT 1820   4.827   0.194   2.529 -0.4237 -0.8736 -0.2430
  125fsi    OBT 1821   4.634   0.255   2.385 -0.5347  0.0716  0.0313
  125fsi    SBT 1822   4.520  -0.039   2.467 -0.1310 -0.2378  0.0154
  125fsi    OBT 1823   4.460  -0.003   2.344 -0.5262 -0.3273  0.0640
  125fsi    OBT 1824   4.446  -0.051   2.588  0.3758 -0.1440  0.1401
  125fsi    FSI 1825   4.559  -0.189   2.421 -0.2728  0.0954 -0.0543
  126fsi    FSI 1826   5.931   0.812   2.488 -0.1185 -0.1785 -0.1989
  126fsi    SBT 1827   6.011   0.682   2.439  0.1558 -0.1648 -0.3578
  126fsi    NBT 1828   6.158   0.725   2.422  0.3696  0.2203  0.2826
  126fsi    OBT 1829   5.989   0.596   2.549  0.2727  0.3034 -0.2094
  126fsi    OBT 1830   5.950   0.653   2.315  0.2012  0.3797 -0.0094
  126fsi    SBT 1831   6.283   0.717   2.520  0.3770  0.5768  0.0725
  126fsi    OBT 1832   6.400   0.645   2.474  0.1850 -0.0796  0.0823
  126fsi    OBT 1833   6.246   0.698   2.658 -0.3946 -0.7163 -0.5118
  126fsi    FSI 1834   6.344   0.858   2.534 -0.2068 -0.8060  0.4395
  127fsi    FSI 1835   5.685   0.477   2.452 -0.3628 -0.1877 -0.5002
  127fsi    SBT 1836   5.590   0.483   2.580  0.1052 -0.3576 -0.0155
  127fsi    NBT 1837   5.602   0.341   2.641  0.1760 -0.2470 -0.0338
  127fsi    OBT 1838   5.650   0.585   2.658 -0.2483 -0.0117 -0.1331
  127fsi    OBT 1839   5.455   0.504   2.527 -0.2327 -0.8390  0.0728
  127fsi    SBT 1840   5.729   0.274   2.711 -0.1599 -0.1128  0.1304
  127fsi    OBT 1841   5.690   0.208   2.832 -0.0596 -0.2155 -0.2645
  127fsi    OBT 1842   5.848   0.352   2.710 -0.5322 -0.1104  0.3760
  127fsi    FSI 1843   5.772   0.156   2.615  0.7937 -0.5556  0.5432
  128fsi    FSI 1844   2.408   0.291   4.063 -0.4465  0.1089  0.0655
  128fsi    SBT 1845   2.554   0.348   4.079 -0.2786  0.3114  0.2043
  128fsi    NBT 1846   2.640   0.220   4.077  0.2245  0.5027  0.0039
  128fsi    OBT 1847   2.566   0.425   3.962 -0.2996 -0.1281 -0.5255
  128fsi    OBT 1848   2.539   0.416   4.206  0.4409  0.0860 -0.0190
  128fsi    SBT 1849   2.694   0.138   4.198 -0.1807 -0.6468  0.1027
  128fsi    OBT 1850   2.675   0.198   4.328 -0.0172  0.3902 -0.0538
  128fsi    OBT 1851   2.817   0.073   4.175  0.6689 -0.3513 -0.0608
  128fsi    FSI 1852   2.588   0.023   4.200  0.1398  0.0731  0.1265
  129fsi    FSI 1853   6.038   0.402   4.621  0.4916  0.0300  0.1617
  129fsi    SBT 1854   5.896   0.388   4.679  0.0296  0.1604  0.0833
  129fsi    NBT 1855   5.909   0.478   4.805 -0.0156  0.2877 -0.2647
  129fsi    OBT 1856   5.810   0.445   4.581 -0.7806  0.4252  0.2532
  129fsi    OBT 1857   5.883   0.248   4.701 -0.4679 -0.1455 -0.7442
  129fsi    SBT 1858   5.935   0.445   4.956  0.1894 -0.1054 -0.2133
  129fsi    OBT 1859   5.881   0.319   5.000 -0.0137 -0.2743  0.3556
  129fsi    OBT 1860   5.899   0.560   5.033  0.0618 -0.1883  0.5954
  129fsi    FSI 1861   6.090   0.439   4.962 -0.0187  0.4292 -0.2516
  130fsi    FSI 1862   3.527   1.209   4.985  0.6118  0.0662  0.0499
  130fsi    SBT 1863   3.516   1.092   5.079 -0.2187 -0.2675  0.2740
  130fsi    NBT 1864   3.374   1.035   5.054  0.2149  0.6422 -0.0367
  130fsi    OBT 1865   3.609   0.993   5.029 -0.0216  0.0260  0.5523
  130fsi    OBT 1866   3.528   1.153   5.206 -0.4183  0.4679  0.3603
  130fsi    SBT 1867   3.285   0.935   5.144 -0.1312 -0.2551  0.5114
  130fsi    OBT 1868   3.358   0.849   5.238  0.2294 -0.7275 -0.4046
  130fsi    OBT 1869   3.180   0.875   5.065 -0.0474 -0.4106 -0.1549
  130fsi    FSI 1870   3.211   1.038   5.242 -0.5306 -0.3728 -0.2173
  131fsi    FSI 1871   1.007   0.888   3.063  0.1856  0.8774 -0.3464
  131fsi    SBT 1872   0.912   0.772   3.106 -0.2095  0.1167 -0.2846
  131fsi    NBT 1873   0.773   0.844   3.136 -0.8863  0.2256  0.1688
  131fsi    OBT 1874   0.912   0.685   2.992 -0.2757 -0.1792  0.0838
  131fsi    OBT 1875   0.982   0.723   3.221  0.2472 -0.3086  0.2148
  131fsi    SBT 1876   0.640   0.835   3.057 -0.0731  0.3211 -0.6322
  131fsi    OBT 1877   0.523   0.892   3.121  0.3504 -0.0979 -0.8426
  131fsi    OBT 1878   0.616   0.708   2.989 -0.1876 -0.0358  0.2400
  131fsi    FSI 1879   0.662   0.934   2.936  0.0868 -0.4340 -0.1126
  132fsi    FSI 1880   6.268   0.239   2.139  0.0724  0.5943  0.1602
  132fsi    SBT 1881   6.319   0.271   2.291  0.0452  0.1689 -0.0476
  132fsi    NBT 1882   6.475   0.288   2.284  0.2067 -1.0276 -0.1486
  132fsi    OBT 1883   6.251   0.390   2.320 -0.0608 -0.0613  0.1744
  132fsi    OBT 1884   6.267   0.158   2.363 -0.1053  0.5714 -0.0877
  132fsi    SBT 1885   6.548   0.409   2.210 -0.2474  0.0282 -0.1425
  132fsi    OBT 1886   6.647   0.468   2.295  0.1622 -0.4270 -0.2280
  132fsi    OBT 1887   6.454   0.505   2.157 -0.0449  1.0115 -0.1139
  132fsi    FSI 1888   6.627   0.354   2.092 -0.2128 -0.1104 -0.4396
  133fsi    FSI 1889   5.817   0.092   3.529  0.4381  0.0297 -0.5494
  133fsi    SBT 1890   5.735   0.225   3.559  0.4265  0.0070  0.1383
  133fsi    NBT 1891   5.820   0.316   3.661 -0.6006  0.3177 -0.2061
  133fsi    OBT 1892   5.726   0.285   3.431  0.4762  0.6390  0.4199
  133fsi    OBT 1893   5.613   0.176   3.620 -0.4514 -0.4398 -0.0042
  133fsi    SBT 1894   5.880   0.282   3.805  0.4294 -0.0299 -0.3706
  133fsi    OBT 1895   6.006   0.357   3.827  0.3015  0.7029  0.6795
  133fsi    OBT 1896   5.883   0.141   3.837  0.0424  0.5812 -0.1117
  133fsi    FSI 1897   5.777   0.345   3.913  0.2915 -0.0210 -0.4535
  134fsi    FSI 1898   5.466   0.819   2.484  0.8666  0.8881 -0.3317
  134fsi    SBT 1899   5.516   0.831   2.342 -0.0414  0.1862  0.2214
  134fsi    NBT 1900   5.520   0.983   2.312  0.4190 -1.1079 -0.6703
  134fsi    OBT 1901   5.649   0.767   2.339  0.1379 -0.1476  0.5086
  134fsi    OBT 1902   5.410   0.766   2.272 -0.0213 -0.7157  0.2528
  134fsi    SBT 1903   5.638   1.083   2.340 -0.1117 -0.0945  0.2738
  134fsi    OBT 1904   5.766   1.027   2.362 -0.4936  0.5533  0.5360
  134fsi    OBT 1905   5.594   1.187   2.425  0.7742 -0.1425  0.1285
  134fsi    FSI 1906   5.661   1.141   2.199  0.1957 -0.3792  0.1019
  135fsi    FSI 1907   3.234   0.461   4.939  0.2133  0.0404 -0.1220
  135fsi    SBT 1908   3.368   0.511   4.880  0.3536  0.0109 -0.3330
  135fsi    NBT 1909   3.457   0.453   4.984 -0.1009  0.2941  0.1651
  135fsi    OBT 1910   3.389   0.452   4.748  0.0074  0.4434  0.0978
  135fsi    OBT 1911   3.352   0.652   4.889  0.4168  0.1026 -0.5521
  135fsi    SBT 1912   3.572   0.530   5.062  0.1064 -0.1674 -0.0588
  135fsi    OBT 1913   3.548   0.542   5.205 -0.5342 -0.3994  0.3471
  135fsi    OBT 1914   3.627   0.648   4.996  0.1697 -0.2223  0.1468
  135fsi    FSI 1915   3.690   0.421   5.058  0.0306 -0.1951  0.1121
  136fsi    FSI 1916   5.339   1.120   3.176 -0.3794 -0.2395 -0.2548
  136fsi    SBT 1917   5.289   0.969   3.196 -0.2187  0.1673  0.0244
  136fsi    NBT 1918   5.206   0.954   3.064  1.3081  0.1049  0.3544
  136fsi    OBT 1919   5.414   0.898   3.199  0.3548 -0.2664  0.2037
  136fsi    OBT 1920   5.214   0.974   3.318 -0.1420 -0.0029 -0.2143
  136fsi    SBT 1921   5.052   0.925   3.050 -0.1795  0.1962 -0.4233
  136fsi    OBT 1922   5.008   0.909   2.918  0.1415  0.6973 -0.4155
  136fsi    OBT 1923   4.978   1.011   3.141 -1.0324 -0.4062 -0.4178
  136fsi    FSI 1924   5.042   0.781   3.115 -0.0977  1.1010 -0.0181
  137fsi    FSI 1925   4.918   1.550   2.592 -0.3661  0.5254 -0.4436
  137fsi    SBT 1926   4.910   1.415   2.502  0.0691 -0.0168  0.1421
  137fsi    NBT 1927   4.876   1.467   2.360 -0.1244 -0.5566 -0.0124
  137fsi    OBT 1928   5.039   1.359   2.529 -0.0727 -0.1666  0.1677
  137fsi    OBT 1929   4.796   1.351   2.553  0.6656 -0.3150 -0.0504
  137fsi    SBT 1930   4.979   1.523   2.256  0.1132  0.2214  0.6764
  137fsi    OBT 1931   4.933   1.511   2.120  0.3197  0.0813  0.2913
  137fsi    OBT 1932   5.119   1.502   2.279  0.2731  0.3045 -0.7156
  137fsi    FSI 1933   4.966   1.680   2.280 -0.1276 -0.5779  1.0166
  138fsi    FSI 1934   0.389   0.557   2.943  0.3273 -0.3072  0.5704
  138fsi    SBT 1935   0.437   0.451   2.827 -0.3916 -0.0163 -0.3947
  138fsi    NBT 1936   0.461   0.321   2.921 -0.0148 -0.1773  0.0009
  138fsi    OBT 1937   0.323   0.433   2.744 -0.3071  0.2809  0.1268
  138fsi    OBT 1938   0.554   0.508   2.770  0.4201  0.4327 -0.2066
  138fsi    SBT 1939   0.565   0.289   3.033 -0.1267  0.1216  0.1089
  138fsi    OBT 1940   0.515   0.235   3.156  0.2902 -0.1615  1.1461
  138fsi    OBT 1941   0.648   0.406   3.045 -0.3724 -0.5220 -0.2234
  138fsi    FSI 1942   0.660   0.177   2.979  0.1954  0.5637 -0.3807
  139fsi    FSI 1943   4.139   1.365   2.586  0.4114  0.1010  0.1345
  139fsi    SBT 1944   4.241   1.315   2.695 -0.4029  0.3449  0.5148
  139fsi    NBT 1945   4.310   1.184   2.630  0.4133  0.4130 -0.1279
  139fsi    OBT 1946   4.333   1.423   2.698 -0.0746 -0.5900  0.3032
  139fsi    OBT 1947   4.163   1.294   2.813  0.5685  0.0715  0.2173
  139fsi    SBT 1948   4.238   1.043   2.635  0.3946 -0.1418  0.0900
  139fsi    OBT 1949   4.096   1.050   2.618 -0.4311 -0.2664 -0.2017
  139fsi    OBT 1950   4.289   0.941   2.726 -0.1633  0.0136 -0.1597
  139fsi    FSI 1951   4.276   0.985   2.497  0.1172 -0.2250  0.8594
  140fsi    FSI 1952   4.141   0.432   0.642  0.0097  0.5036 -0.1179
  140fsi    SBT 1953   4.052   0.411   0.777 -0.0667 -0.3212  0.0194
  140fsi    NBT 1954   3.966   0.285   0.743 -0.0302  0.0255 -0.7314
  140fsi    OBT 1955   4.144   0.391   0.883  0.7802  0.6708 -0.0574
  140fsi    OBT 1956   3.979   0.536   0.786 -0.2416  0.3202 -0.0308
  140fsi    SBT 1957   3.811   0.267   0.741 -0.2631  0.0565 -0.2534
  140fsi    OBT 1958   3.737   0.342   0.840  0.2143 -0.0588  0.2053
  140fsi    OBT 1959   3.778   0.126   0.736  0.4489  0.3392 -0.2948
  140fsi    FSI 1960   3.771   0.325   0.600 -0.5729 -0.0738  0.0332
  141fsi    FSI 1961   5.376   0.079   1.576 -0.4402  1.0443 -0.1989
  141fsi    SBT 1962   5.223   0.134   1.565 -0.5395 -0.0714 -0.4147
  141fsi    NBT 1963   5.192   0.177   1.718  0.3146 -0.8539  0.2679
  141fsi    OBT 1964   5.239   0.243   1.475  0.1052  0.1201  0.0703
  141fsi    OBT 1965   5.140   0.030   1.516 -0.0481  0.2363  0.1003
  141fsi    SBT 1966   5.155   0.319   1.779 -0.2110  0.1908  0.0166
  141fsi    OBT 1967   5.081   0.311   1.906  0.6363  0.1045  0.4555
  141fsi    OBT 1968   5.106   0.411   1.682  0.0552 -0.3371  0.4935
  141fsi    FSI 1969   5.293   0.375   1.826  0.3399  0.1776 -0.3982
  142fsi    FSI 1970   3.175   0.397   3.920  0.3365 -0.3821  0.0357
  142fsi    SBT 1971   3.067   0.315   3.846 -0.3311 -0.0127 -0.5023
  142fsi    NBT 1972   2.941   0.404   3.827  0.8020 -0.1823 -0.3374
  142fsi    OBT 1973   3.129   0.273   3.726  0.5087  0.2354 -0.2252
  142fsi    OBT 1974   3.027   0.209   3.938  0.1300  0.1723  0.4377
  142fsi    SBT 1975   2.912   0.524   3.737  0.2753 -0.2657  0.2066
  142fsi    OBT 1976   2.773   0.553   3.714  0.4508 -0.1424  0.3257
  142fsi    OBT 1977   3.006   0.532   3.622  0.7166 -0.4671 -0.0937
  142fsi    FSI 1978   2.962   0.644   3.822 -0.1991 -0.0102 -0.4862
  143fsi    FSI 1979   5.021   0.165   3.326  0.3282 -0.1177 -0.2032
  143fsi    SBT 1980   4.986   0.293   3.229  0.1173  0.2904 -0.1675
  143fsi    NBT 1981   4.827   0.277   3.189  0.4327  0.6077  0.0386
  143fsi    OBT 1982   5.007   0.407   3.312  0.6367 -0.2442 -0.1280
  143fsi    OBT 1983   5.072   0.270   3.113  0.0297 -0.3418 -0.3468
  143fsi    SBT 1984   4.706   0.271   3.288  0.1257  0.0514 -0.2033
  143fsi    OBT 1985   4.599   0.367   3.258 -0.2404 -0.0631 -0.0018
  143fsi    OBT 1986   4.747   0.269   3.424  0.1588  0.0357  0.2410
  143fsi    FSI 1987   4.637   0.127   3.259  0.4529  0.2832  0.1772
  144fsi    FSI 1988   4.196   0.460   4.831  0.1759  0.7034 -0.1348
  144fsi    SBT 1989   4.294   0.552   4.759 -0.2504  0.0405  0.1005
  144fsi    NBT 1990   4.204   0.587   4.635 -0.5066 -0.1557 -0.0028
  144fsi    OBT 1991   4.301   0.674   4.840  0.3882  0.5309  0.4689
  144fsi    OBT 1992   4.410   0.468   4.743 -0.4576 -0.2845  0.5560
  144fsi    SBT 1993   4.222   0.551   4.485  0.1374  0.2502  0.2392
  144fsi    OBT 1994   4.335   0.474   4.447  0.2364  0.0477  0.1433
  144fsi    OBT 1995   4.192   0.657   4.397  0.0848  0.3950  0.0705
  144fsi    FSI 1996   4.099   0.448   4.476  1.0172  0.0612  0.6795
  145fsi    FSI 1997   6.318   0.387   3.866 -0.4342 -0.5689  0.8254
  145fsi    SBT 1998   6.467   0.370   3.824  0.2503 -0.2071 -0.2750
  145fsi    NBT 1999   6.484   0.218   3.866 -0.4840  0.0924 -0.0172
  145fsi    OBT 2000   6.473   0.384   3.684 -0.1415 -0.4029  0.4131
  145fsi    OBT 2001   6.538   0.455   3.911  0.0425 -0.2556 -0.6141
  145fsi    SBT 2002   6.587   0.148   3.962 -0.0777  0.1404  0.1537
  145fsi    OBT 2003   6.523   0.046   4.038  0.1345  0.4424  1.1146
  145fsi    OBT 2004   6.678   0.231   4.038  0.5230  0.2524 -0.2831
  145fsi    FSI 2005   6.683   0.066   3.862  0.1734  0.6985 -0.8915
  146fsi    FSI 2006   4.452   0.468   2.163  0.3230 -0.3963  0.0157
  146fsi    SBT 2007   4.488   0.621   2.206 -0.4543  0.1618 -0.1370
  146fsi    NBT 2008   4.412   0.627   2.340 -0.2495  0.6473  0.8944
  146fsi    OBT 2009   4.631   0.620   2.207 -0.2012 -0.0358  0.2300
  146fsi    OBT 2010   4.424   0.696   2.104  0.3553 -0.2763  0.0155
  146fsi    SBT 2011   4.468   0.655   2.482  0.2598  0.0029 -0.0096
  146fsi    OBT 2012   4.591   0.583   2.508  0.3362 -0.2503 -0.4008
  146fsi    OBT 2013   4.365   0.655   2.580  0.1592 -0.3975  0.5570
  146fsi    FSI 2014   4.513   0.815   2.480 -0.1436 -0.0194 -0.9128
  147fsi    FSI 2015   5.410   1.625   3.090 -0.5172 -0.3455 -0.4157
  147fsi    SBT 2016   5.436   1.508   3.193 -0.0741 -0.1563  0.5729
  147fsi    NBT 2017   5.592   1.518   3.203 -0.2632 -0.1539 -0.4497
  147fsi    OBT 2018   5.360   1.551   3.309  0.0436 -0.1351  0.5400
  147fsi    OBT 2019   5.385   1.389   3.133  0.3805  0.0147 -0.0112
  147fsi    SBT 2020   5.679   1.537   3.333  0.1567  0.0009 -0.2721
  147fsi    OBT 2021   5.822   1.536   3.307 -0.3144 -0.0746 -0.7190
  147fsi    OBT 2022   5.634   1.463   3.446 -0.1120 -0.1198  0.2514
  147fsi    FSI 2023   5.663   1.695   3.360 -0.4946  0.3714 -0.3872
  148fsi    FSI 2024   6.403   0.925   3.436  0.1746 -0.1823  0.3981
  148fsi    SBT 2025   6.537   0.849   3.456 -0.0722  0.2328  0.3684
  148fsi    NBT 2026   6.619   0.958   3.530  0.3962 -0.5949 -0.0733
  148fsi    OBT 2027   6.497   0.744   3.545 -0.0602 -0.1849 -0.2220
  148fsi    OBT 2028   6.571   0.822   3.320  0.1480  0.2128 -0.2604
  148fsi    SBT 2029   6.736   1.053   3.472 -0.6018 -0.0864  0.0503
  148fsi    OBT 2030   6.773   1.014   3.339  0.3488  0.2838 -0.0658
  148fsi    OBT 2031   6.849   1.091   3.561 -0.1628  0.3607 -0.3895
  148fsi    FSI 2032   6.662   1.195   3.441 -0.3004  0.2498 -0.2865
  149fsi    FSI 2033   4.538   0.588   1.194  0.2653 -0.0712 -0.3553
  149fsi    SBT 2034   4.515   0.663   1.326  0.0470  0.1249  0.2034
  149fsi    NBT 2035   4.475   0.546   1.416  0.5011 -0.5099  0.5520
  149fsi    OBT 2036   4.651   0.705   1.354  0.9963  0.2410 -0.1426
  149fsi    OBT 2037   4.415   0.754   1.292 -0.6969  0.3952 -0.0012
  149fsi    SBT 2038   4.333   0.478   1.437 -0.3967  0.1547 -0.0890
  149fsi    OBT 2039   4.328   0.344   1.391 -0.0198  0.1486  0.8449
  149fsi    OBT 2040   4.223   0.564   1.411 -0.1521 -0.1399  0.2479
  149fsi    FSI 2041   4.332   0.455   1.595  0.9995  0.1154  0.2845
  150fsi    FSI 2042   1.541   0.912   3.491  0.2462 -0.3745  0.3250
  150fsi    SBT 2043   1.490   0.773   3.434 -0.2335 -0.3028 -0.1044
  150fsi    NBT 2044   1.611   0.724   3.348  0.2431 -0.0805  0.0592
  150fsi    OBT 2045   1.462   0.691   3.551 -0.1256 -0.2622  0.2453
  150fsi    OBT 2046   1.377   0.809   3.349 -0.8609  0.4426 -0.1287
  150fsi    SBT 2047   1.743   0.659   3.407 -0.2347  0.4199 -0.0149
  150fsi    OBT 2048   1.797   0.549   3.331 -0.1165 -0.0925 -0.2713
  150fsi    OBT 2049   1.758   0.642   3.549  0.8008  0.0920  0.4063
  150fsi    FSI 2050   1.831   0.781   3.368 -0.4351  0.1156  0.0712
   6.41140   6.41140   6.41140
