L1P2 short trajectory practice
 2050
    1Li+     Li    1   2.593   2.839   0.760 -0.4826 -0.3966  0.0711
    2Li+     Li    2   1.377   0.380   1.750  0.5061  1.2302 -0.3817
    3Li+     Li    3   0.713   0.274   1.849 -0.2021  0.0309 -0.1833
    4Li+     Li    4   2.305   1.482   0.290  0.7253 -0.6344  0.1807
    5Li+     Li    5   0.655   0.953   1.967 -0.9725 -0.7940 -0.2679
    6Li+     Li    6   1.189   1.618   1.814  1.1310  0.0987  0.1975
    7Li+     Li    7   2.875   2.611   0.332  0.8447  0.9682 -0.2200
    8Li+     Li    8   1.822   2.740   2.580  0.3540  0.1139 -0.4838
    9Li+     Li    9   2.328   0.604   2.292  0.0897 -0.2961  0.8960
   10Li+     Li   10   1.209   0.595   2.134 -0.4342  0.7586  0.1289
   11Li+     Li   11   0.477   0.187   0.436  0.1254  1.2980 -0.7237
   12Li+     Li   12   2.786   0.971   0.979 -0.8195  0.7981  0.8394
   13Li+     Li   13   1.423   1.021   2.027 -0.1097 -1.4465  1.1492
   14Li+     Li   14   2.553   0.361   0.520  0.1364  0.2043  0.0754
   15Li+     Li   15   0.247   1.297   1.619 -0.7504  0.7434 -0.2011
   16Li+     Li   16   0.191   0.434   1.166  0.2910 -0.2625  0.5506
   17Li+     Li   17   2.014   2.854   1.057 -0.7906 -0.0244  0.4966
   18Li+     Li   18   2.003   1.766   2.003  0.1364  0.4382 -0.4379
   19Li+     Li   19   0.182   0.015   2.878 -0.3115  0.4696  0.0749
   20Li+     Li   20   1.298   1.174   0.121  0.5320  0.5137  0.3423
   21Li+     Li   21   0.104   2.595   2.557 -0.1310 -0.4213 -0.4070
   22Li+     Li   22   1.314   0.072   2.325 -0.3735 -0.0077 -0.3732
   23Li+     Li   23   1.687   1.971   1.707  0.5887 -0.0042  0.2959
   24Li+     Li   24   2.488   2.091   0.251 -0.7406  0.0592  0.4620
   25Li+     Li   25   0.753   1.451   1.779  0.0065 -0.6451 -0.4562
   26c3c     N4   26   2.599   0.835   1.770 -0.0461 -0.1149  0.1215
   26c3c     C1   27   2.562   0.733   1.666  0.6122 -0.7361 -0.0835
   26c3c     C1   28   2.472   0.880   1.821 -0.0340  0.0722  0.1619
   26c3c     C2   29   2.445   0.654   1.731  0.1630 -0.0026 -0.0682
   26c3c     C2   30   2.389   0.753   1.825  0.1076  0.7071 -0.1428
   26c3c     C1   31   2.676   0.768   1.875  0.4071 -0.6992  0.0429
   26c3c     C1   32   2.692   0.936   1.709 -0.1171  0.0464 -0.8935
   26c3c     H1   33   2.642   0.665   1.640  1.2605 -0.1055  0.2422
   26c3c     H1   34   2.521   0.784   1.578  1.1407 -0.4810 -0.1874
   26c3c     H1   35   2.475   0.932   1.917  0.4482  1.4188 -0.5768
   26c3c     H1   36   2.424   0.950   1.753 -2.0674 -0.3128  1.1656
   26c3c     HC   37   2.471   0.563   1.784 -1.0589 -0.1093  0.3617
   26c3c     HC   38   2.361   0.617   1.673 -0.6526  0.3745  0.8520
   26c3c     HC   39   2.394   0.707   1.924  1.0208 -0.0059 -0.5112
   26c3c     HC   40   2.282   0.771   1.811 -0.0584 -0.3409 -0.2408
   26c3c     H1   41   2.679   0.841   1.957  0.3047 -0.3585 -0.2562
   26c3c     H1   42   2.613   0.688   1.914 -0.1663  0.5995  1.8453
   26c3c     H1   43   2.774   0.725   1.855  1.4650  1.0731  1.2569
   26c3c     H1   44   2.729   0.998   1.791 -3.0676  1.2433 -0.4041
   26c3c     H1   45   2.780   0.883   1.672  0.9862  0.4489  1.0654
   26c3c     C2   46   2.633   1.036   1.612  0.1894  0.0200  0.8536
   26c3c     HC   47   2.560   1.108   1.650 -0.3313 -0.5075  0.8461
   26c3c     HC   48   2.591   0.984   1.527  0.9381 -2.9613  2.2537
   26c3c     CT   49   2.744   1.121   1.552 -0.4553 -0.8618 -0.6901
   26c3c     HC   50   2.796   1.168   1.636 -1.0459  0.0915 -0.8427
   26c3c     HC   51   2.715   1.208   1.493  1.9616  1.0435  0.7739
   26c3c     HC   52   2.798   1.058   1.481  1.0058 -0.7758  0.3151
   27c3c     N4   53   0.942   1.767   0.408  0.0264 -0.1002 -0.4906
   27c3c     C1   54   0.931   1.676   0.520 -0.3710 -0.7443  0.2099
   27c3c     C1   55   0.842   1.870   0.447  0.0423  0.0061  0.4686
   27c3c     C2   56   0.911   1.761   0.646 -0.1458 -0.3009  0.4202
   27c3c     C2   57   0.865   1.894   0.595 -0.1758 -0.1304 -0.3098
   27c3c     C1   58   1.075   1.824   0.410  0.5582 -0.1561 -0.2677
   27c3c     C1   59   0.901   1.701   0.286  0.2255  0.6156  0.2951
   27c3c     H1   60   1.013   1.604   0.523 -0.9157 -1.3791  0.0717
   27c3c     H1   61   0.843   1.611   0.511  0.0907 -1.2729 -0.4916
   27c3c     H1   62   0.852   1.957   0.381  1.8320  0.4368  1.2682
   27c3c     H1   63   0.742   1.829   0.442 -0.4767  1.1975  0.9668
   27c3c     HC   64   0.994   1.775   0.714  0.0880  1.3912 -0.1763
   27c3c     HC   65   0.831   1.725   0.710  0.1987 -0.0208  1.0112
   27c3c     HC   66   0.939   1.974   0.596 -0.8797  0.5606 -1.5023
   27c3c     HC   67   0.775   1.928   0.646  1.2740  4.0120 -0.3084
   27c3c     H1   68   1.144   1.742   0.388  1.4923  0.2473  1.0623
   27c3c     H1   69   1.093   1.907   0.342  1.0274 -0.4240 -0.4745
   27c3c     H1   70   1.115   1.865   0.503 -0.3355 -0.7334  0.3878
   27c3c     H1   71   0.951   1.605   0.274 -1.9834 -1.0318  3.5249
   27c3c     H1   72   0.793   1.684   0.290  0.2615  0.4063  0.3744
   27c3c     C2   73   0.914   1.797   0.168  0.3120 -0.5849 -0.1634
   27c3c     HC   74   1.018   1.809   0.138  0.0678 -0.8511 -1.1418
   27c3c     HC   75   0.883   1.901   0.180 -2.3503 -1.4842  1.1166
   27c3c     CT   76   0.864   1.739   0.041 -0.3650 -0.5081  0.0410
   27c3c     HC   77   0.760   1.708   0.048 -1.4929  2.4681 -2.4459
   27c3c     HC   78   0.916   1.650   0.004 -2.5386 -1.9355  0.3802
   27c3c     HC   79   0.861   1.807  -0.044 -1.0657 -3.0495 -2.0202
   28c3c     N4   80   0.377   1.442   0.152  0.2812  0.3957  0.2358
   28c3c     C1   81   0.341   1.347   0.040  0.1335 -0.2378  0.0205
   28c3c     C1   82   0.244   1.471   0.200 -0.2322  0.3499 -0.7049
   28c3c     C2   83   0.238   1.251   0.100 -0.5122 -0.2341 -0.8088
   28c3c     C2   84   0.163   1.337   0.203 -0.2829 -0.3535  0.3601
   28c3c     C1   85   0.476   1.379   0.246 -0.3189  0.3440  0.0429
   28c3c     C1   86   0.430   1.566   0.092  0.2822 -0.0719  0.4169
   28c3c     H1   87   0.425   1.292  -0.002 -0.3462  0.4627 -1.9354
   28c3c     H1   88   0.296   1.395  -0.047 -1.7641 -0.3513  0.9061
   28c3c     H1   89   0.248   1.527   0.294 -0.4416  2.2488 -1.8169
   28c3c     H1   90   0.196   1.528   0.121 -0.3928  0.9157 -0.2046
   28c3c     HC   91   0.293   1.177   0.159 -1.2128 -0.4543 -0.4223
   28c3c     HC   92   0.183   1.211   0.015  2.1541 -1.7157 -1.8799
   28c3c     HC   93   0.163   1.288   0.300  0.3181 -0.7697  0.1531
   28c3c     HC   94   0.063   1.354   0.164  1.0883  0.7176 -2.8881
   28c3c     H1   95   0.561   1.341   0.189  0.1310  1.6397 -0.1747
   28c3c     H1   96   0.512   1.433   0.333 -0.7405  0.1286  0.3538
   28c3c     H1   97   0.417   1.298   0.289 -1.8923  1.8234  0.7598
   28c3c     H1   98   0.514   1.542   0.026 -0.3004 -0.5499 -0.1534
   28c3c     H1   99   0.356   1.600   0.019  0.0065 -1.4520  0.0443
   28c3c     C2  100   0.472   1.673   0.196  0.3207  0.2482 -0.3036
   28c3c     HC  101   0.555   1.633   0.254 -0.0728 -0.6867 -0.3639
   28c3c     HC  102   0.388   1.701   0.259 -1.3999  0.7419 -2.7051
   28c3c     CT  103   0.511   1.810   0.136  0.0692  0.0788  0.4467
   28c3c     HC  104   0.586   1.857   0.200  1.1754  0.5586 -1.1726
   28c3c     HC  105   0.426   1.878   0.132  1.8841  2.4793  1.1126
   28c3c     HC  106   0.554   1.782   0.040  0.8617 -0.6318  1.0089
   29c3c     N4  107   0.069   1.824   2.034  0.5345 -0.2891  0.5735
   29c3c     C1  108   0.031   1.802   1.892  0.2934  0.7019  0.1841
   29c3c     C1  109   0.182   1.737   2.061  0.2312 -0.2635 -0.3070
   29c3c     C2  110   0.160   1.759   1.816 -0.4749 -0.3257 -0.1597
   29c3c     C2  111   0.250   1.722   1.929 -0.1764  0.3902 -0.4526
   29c3c     C1  112   0.132   1.959   2.040  0.6430 -0.0173 -0.0552
   29c3c     C1  113  -0.040   1.816   2.136  0.1287 -1.0320 -0.2700
   29c3c     H1  114  -0.004   1.897   1.852  2.6894  1.0596 -1.1435
   29c3c     H1  115  -0.053   1.734   1.881  0.8778  0.0850 -0.5555
   29c3c     H1  116   0.252   1.758   2.142  1.3248 -1.9879 -0.7716
   29c3c     H1  117   0.151   1.635   2.087  1.9432 -1.0138 -1.1280
   29c3c     HC  118   0.199   1.841   1.756  2.1479 -0.2549  1.5397
   29c3c     HC  119   0.143   1.670   1.755  0.1995 -1.2245  0.9315
   29c3c     HC  120   0.340   1.784   1.921 -0.1661  0.3033 -1.0042
   29c3c     HC  121   0.274   1.616   1.923  0.3383  0.5701 -1.7736
   29c3c     H1  122   0.071   2.043   2.006 -0.5052 -0.3883  1.0695
   29c3c     H1  123   0.167   1.979   2.141 -0.3111 -2.3311  0.7681
   29c3c     H1  124   0.217   1.970   1.972 -0.4968  1.7250 -1.2294
   29c3c     H1  125   0.003   1.833   2.234 -1.9440 -1.7096  0.7828
   29c3c     H1  126  -0.106   1.903   2.126  0.3114 -0.8334  0.2449
   29c3c     C2  127  -0.122   1.683   2.144  0.2184  0.3299  0.4535
   29c3c     HC  128  -0.053   1.601   2.166  1.0431  1.1720  1.0336
   29c3c     HC  129  -0.174   1.652   2.054  2.4461  0.1575 -0.8021
   29c3c     CT  130  -0.218   1.694   2.263  0.7655 -0.3444  0.3014
   29c3c     HC  131  -0.270   1.788   2.249  2.1080  0.3342 -0.2381
   29c3c     HC  132  -0.161   1.686   2.356  0.5349 -3.3040  0.2443
   29c3c     HC  133  -0.291   1.613   2.268 -0.4678  0.6486 -1.0316
   30c3c     N4  134   1.786   0.635   0.439  0.4592  0.5088 -0.9551
   30c3c     C1  135   1.910   0.716   0.438 -0.1135  0.3196 -0.9362
   30c3c     C1  136   1.775   0.607   0.583  0.1238 -0.0094 -0.0982
   30c3c     C2  137   1.892   0.813   0.553 -0.7298 -0.7326 -0.5654
   30c3c     C2  138   1.792   0.745   0.649 -0.0177 -0.3667 -0.2995
   30c3c     C1  139   1.671   0.710   0.382 -0.2576  0.3243 -0.2657
   30c3c     C1  140   1.801   0.512   0.360 -0.3191  0.5506 -0.6996
   30c3c     H1  141   1.908   0.769   0.343 -0.4279  0.0301 -1.0919
   30c3c     H1  142   2.003   0.658   0.442  1.9191  3.3752 -1.8392
   30c3c     H1  143   1.677   0.570   0.613 -0.2650 -0.5422 -2.0006
   30c3c     H1  144   1.851   0.537   0.617  0.9982  0.5161 -0.9478
   30c3c     HC  145   1.851   0.911   0.530  1.0824 -0.0709 -1.1286
   30c3c     HC  146   1.985   0.839   0.605 -2.1370  0.4207  1.4220
   30c3c     HC  147   1.691   0.787   0.646  0.2395  0.2420 -0.4538
   30c3c     HC  148   1.822   0.737   0.754 -0.7888  0.5241 -0.0027
   30c3c     H1  149   1.685   0.738   0.278  0.9492  3.2951  0.6318
   30c3c     H1  150   1.586   0.642   0.375 -0.5036  0.8063 -2.0778
   30c3c     H1  151   1.653   0.806   0.432 -0.7230  0.9969 -1.6985
   30c3c     H1  152   1.711   0.455   0.383 -1.2268  2.1299 -0.2858
   30c3c     H1  153   1.803   0.528   0.253 -1.0559 -1.4786 -1.0313
   30c3c     C2  154   1.927   0.424   0.386  0.5780 -0.6572  0.1360
   30c3c     HC  155   1.964   0.432   0.489 -0.5495 -0.7887  0.5508
   30c3c     HC  156   2.006   0.475   0.332  0.4154  0.5231  0.9867
   30c3c     CT  157   1.912   0.284   0.333  0.3729 -0.0687 -0.8649
   30c3c     HC  158   1.880   0.207   0.403  2.6409  0.1805  0.4906
   30c3c     HC  159   2.010   0.251   0.300  0.3162  1.7858 -2.9678
   30c3c     HC  160   1.856   0.279   0.239 -2.6348 -2.6872  0.9315
   31c3c     N4  161   0.671   0.614   0.196 -0.8901 -0.2148  0.4712
   31c3c     C1  162   0.697   0.543   0.316  0.6819 -0.9529  0.7471
   31c3c     C1  163   0.798   0.675   0.163 -0.4904 -1.0280  0.0943
   31c3c     C2  164   0.833   0.484   0.295  0.5814  0.0367 -0.4052
   31c3c     C2  165   0.897   0.576   0.200 -0.4890  0.2745 -0.2123
   31c3c     C1  166   0.637   0.516   0.090 -0.3843  0.0194 -0.3959
   31c3c     C1  167   0.564   0.721   0.208 -0.3649  0.4163  0.6223
   31c3c     H1  168   0.619   0.476   0.351 -0.3448 -0.4361 -0.4915
   31c3c     H1  169   0.706   0.615   0.397 -2.8578  0.6454 -0.1563
   31c3c     H1  170   0.816   0.713   0.062  0.8051 -2.9477 -0.4233
   31c3c     H1  171   0.814   0.758   0.231  0.8231  0.8298 -2.3779
   31c3c     HC  172   0.835   0.380   0.260  1.5690 -0.9693  2.4511
   31c3c     HC  173   0.896   0.485   0.384  0.6216  0.8563 -0.4479
   31c3c     HC  174   0.921   0.505   0.120  1.0293  1.2965 -0.6799
   31c3c     HC  175   0.988   0.621   0.238  0.0847 -1.6797  0.8003
   31c3c     H1  176   0.712   0.440   0.070  0.2895  0.4205  0.5683
   31c3c     H1  177   0.552   0.458   0.124  0.3062 -0.6026  0.3039
   31c3c     H1  178   0.600   0.566   0.000  2.7200  2.1291 -0.5944
   31c3c     H1  179   0.564   0.776   0.114  0.2887  0.6794  0.7745
   31c3c     H1  180   0.467   0.671   0.207 -0.8399  1.3292  1.0102
   31c3c     C2  181   0.574   0.833   0.320 -0.5837 -0.6629 -0.2324
   31c3c     HC  182   0.677   0.861   0.342 -0.0927 -1.6259 -1.2271
   31c3c     HC  183   0.541   0.794   0.416  0.7932 -0.1059  0.4772
   31c3c     CT  184   0.498   0.957   0.286  0.1017  0.3318  0.0603
   31c3c     HC  185   0.396   0.919   0.275  0.0898 -0.1011  1.5965
   31c3c     HC  186   0.525   0.992   0.186  2.1187 -4.2727 -1.1295
   31c3c     HC  187   0.515   1.035   0.360  1.6736  1.0040 -0.9799
   32c3c     N4  188   2.258   1.374   1.614 -0.4104 -0.2236  0.7125
   32c3c     C1  189   2.365   1.305   1.546 -0.3138  0.3868 -0.5561
   32c3c     C1  190   2.324   1.505   1.654  0.5966 -0.8571 -0.0759
   32c3c     C2  191   2.455   1.414   1.475 -0.0012  0.1797  0.1851
   32c3c     C2  192   2.438   1.543   1.557  0.3811  1.0952 -0.0957
   32c3c     C1  193   2.149   1.404   1.524  0.2490  0.2839  0.4800
   32c3c     C1  194   2.185   1.295   1.716  0.0721 -0.7848  0.4248
   32c3c     H1  195   2.324   1.231   1.477 -0.6624 -1.7420  1.8607
   32c3c     H1  196   2.429   1.256   1.619 -0.7692 -0.5628 -0.7860
   32c3c     H1  197   2.251   1.584   1.670  2.1276  0.3816  0.8742
   32c3c     H1  198   2.370   1.492   1.752 -0.0414  0.8027  0.4505
   32c3c     HC  199   2.412   1.420   1.375 -1.2188 -0.6942  0.6434
   32c3c     HC  200   2.561   1.391   1.464  0.0407  0.3837  0.1524
   32c3c     HC  201   2.396   1.627   1.501  0.0794  1.3096  0.4491
   32c3c     HC  202   2.525   1.567   1.617  1.7558 -2.1576 -0.7145
   32c3c     H1  203   2.078   1.463   1.581 -0.4155 -1.8455  1.9030
   32c3c     H1  204   2.177   1.468   1.440  0.7330 -1.3208 -0.6090
   32c3c     H1  205   2.095   1.314   1.493 -0.8589  0.1982  2.5867
   32c3c     H1  206   2.107   1.358   1.758  0.1350  0.8747 -1.8655
   32c3c     H1  207   2.140   1.207   1.669  0.0812  0.9186 -2.9448
   32c3c     C2  208   2.270   1.245   1.838  0.6692  0.1760 -1.4192
   32c3c     HC  209   2.293   1.324   1.909 -2.6638  0.1761 -0.2529
   32c3c     HC  210   2.359   1.194   1.801  0.7807 -0.0980 -0.7692
   32c3c     CT  211   2.200   1.145   1.931  0.1709  0.7404 -0.5372
   32c3c     HC  212   2.280   1.121   2.001 -0.4243  0.3513  0.0176
   32c3c     HC  213   2.167   1.049   1.890  1.8108  0.0558 -0.2975
   32c3c     HC  214   2.105   1.179   1.972  0.1290 -0.8717  0.7536
   33c3c     N4  215   0.030   1.927   1.227 -0.9276  0.5661  0.3578
   33c3c     C1  216   0.058   2.049   1.305  0.0244  0.2859 -0.2580
   33c3c     C1  217  -0.048   1.835   1.312 -0.5901  1.1580 -0.4298
   33c3c     C2  218  -0.067   2.061   1.398 -0.8385  0.1835  0.2406
   33c3c     C2  219  -0.135   1.922   1.399 -0.4760 -1.0209  0.2318
   33c3c     C1  220  -0.049   1.976   1.110  0.0207 -0.1034  0.5175
   33c3c     C1  221   0.159   1.866   1.184 -0.3798 -0.8491  0.3982
   33c3c     H1  222   0.080   2.142   1.253  0.1859  0.1616 -0.4073
   33c3c     H1  223   0.139   2.045   1.378 -1.7768  0.6069  1.8400
   33c3c     H1  224  -0.100   1.777   1.235 -0.7787  1.1205 -0.2767
   33c3c     H1  225   0.005   1.768   1.379 -2.4000  0.0083 -0.0838
   33c3c     HC  226  -0.137   2.141   1.371 -1.3829 -1.2323 -2.6563
   33c3c     HC  227  -0.026   2.085   1.497 -2.4975 -0.7079  1.1729
   33c3c     HC  228  -0.238   1.929   1.363 -0.3887  3.6156  0.5912
   33c3c     HC  229  -0.131   1.896   1.505  0.8131 -2.5654 -0.1709
   33c3c     H1  230   0.007   2.052   1.055 -1.0170 -0.2703 -0.7839
   33c3c     H1  231  -0.070   1.893   1.043 -4.2553  2.3819 -1.4709
   33c3c     H1  232  -0.145   2.024   1.134 -0.3593 -1.2001  1.2368
   33c3c     H1  233   0.131   1.776   1.129  0.3946 -0.3420 -0.8362
   33c3c     H1  234   0.209   1.931   1.113 -0.6873  0.6568  1.5523
   33c3c     C2  235   0.258   1.826   1.301 -0.2898 -0.9055  0.2825
   33c3c     HC  236   0.206   1.777   1.383 -1.1936  1.1474  0.9679
   33c3c     HC  237   0.311   1.912   1.342 -1.5282  0.0173 -0.0206
   33c3c     CT  238   0.363   1.734   1.240 -0.2740  0.0646  0.3651
   33c3c     HC  239   0.309   1.650   1.196 -0.5835  0.2823  0.3300
   33c3c     HC  240   0.434   1.687   1.309 -0.5382 -0.9324 -0.0352
   33c3c     HC  241   0.424   1.788   1.168 -2.4656  1.2501 -0.6319
   34c3c     N4  242   2.828   0.571   2.806  0.7707 -0.3758 -0.4526
   34c3c     C1  243   2.849   0.435   2.755 -0.4928 -0.6114  0.0010
   34c3c     C1  244   2.710   0.619   2.737 -0.7133  0.2796  0.7054
   34c3c     C2  245   2.715   0.376   2.723  0.0285 -0.0637 -0.6465
   34c3c     C2  246   2.625   0.501   2.703 -0.0339  0.4741  0.1106
   34c3c     C1  247   2.802   0.550   2.955  0.7100  0.0303 -0.2427
   34c3c     C1  248   2.942   0.659   2.791  0.4252 -0.4403  0.0281
   34c3c     H1  249   2.921   0.372   2.807  0.6868  0.1640 -0.6679
   34c3c     H1  250   2.891   0.437   2.654 -0.5225  0.8731  0.0041
   34c3c     H1  251   2.655   0.703   2.781 -0.8698  0.7169 -0.3051
   34c3c     H1  252   2.743   0.672   2.647 -1.4526 -0.7020 -0.1498
   34c3c     HC  253   2.678   0.312   2.803 -1.1002  0.0916 -1.0364
   34c3c     HC  254   2.715   0.318   2.631  0.1975 -1.1705  0.0401
   34c3c     HC  255   2.535   0.502   2.764  0.5441 -1.5627  1.0315
   34c3c     HC  256   2.589   0.517   2.602  0.9712  0.5453 -0.2347
   34c3c     H1  257   2.882   0.486   2.993  0.2384  0.5968  1.7386
   34c3c     H1  258   2.799   0.636   3.022 -1.1308 -1.9155  2.2714
   34c3c     H1  259   2.708   0.497   2.970  0.2401  0.6943 -0.7817
   34c3c     H1  260   3.026   0.627   2.853 -0.6890  0.1077  1.8495
   34c3c     H1  261   2.982   0.638   2.691 -0.0065 -2.1258  0.1879
   34c3c     C2  262   2.926   0.804   2.832 -0.8097  0.3571 -0.0824
   34c3c     HC  263   2.911   0.814   2.939  2.6543 -2.1869  0.7307
   34c3c     HC  264   2.841   0.855   2.787 -0.7795  2.4077  2.0748
   34c3c     CT  265   3.055   0.886   2.800  0.3954 -0.3799  0.9127
   34c3c     HC  266   3.037   0.993   2.812  0.6970  0.0835 -2.3219
   34c3c     HC  267   3.098   0.877   2.700 -0.4653 -0.1483  0.5089
   34c3c     HC  268   3.141   0.864   2.863  0.6570 -0.2116  0.6180
   35c3c     N4  269   0.203   1.115   2.335 -0.2354  0.1846  0.0481
   35c3c     C1  270   0.096   1.091   2.431 -0.2948 -0.6055  0.0342
   35c3c     C1  271   0.200   1.259   2.298 -0.2648 -0.3681  0.3582
   35c3c     C2  272   0.095   1.220   2.519  0.4842  0.2298  0.4315
   35c3c     C2  273   0.145   1.333   2.427  0.0203  0.3175 -0.1067
   35c3c     C1  274   0.328   1.088   2.402  0.1162 -0.2410 -0.5354
   35c3c     C1  275   0.202   1.033   2.202 -0.2185  0.4162 -0.5029
   35c3c     H1  276   0.108   1.006   2.498  1.1762 -0.1821  0.3186
   35c3c     H1  277  -0.001   1.076   2.384 -0.0784 -1.4023 -0.1547
   35c3c     H1  278   0.295   1.293   2.259 -0.9036 -0.7767 -1.5819
   35c3c     H1  279   0.122   1.283   2.226 -0.0416  1.7836  0.7940
   35c3c     HC  280   0.175   1.209   2.592  2.2137  0.9506 -1.3276
   35c3c     HC  281   0.004   1.247   2.573  1.0358 -0.7974  1.9157
   35c3c     HC  282   0.226   1.394   2.465  2.2210 -1.9396 -1.0255
   35c3c     HC  283   0.061   1.394   2.392  0.1739  0.4613 -0.2248
   35c3c     H1  284   0.335   0.983   2.430  1.7032  0.3019  1.2231
   35c3c     H1  285   0.410   1.105   2.333  0.8342  0.4664  0.4672
   35c3c     H1  286   0.346   1.132   2.501 -1.9493  0.3525 -0.4124
   35c3c     H1  287   0.294   1.054   2.147  1.8931  1.9279  3.3654
   35c3c     H1  288   0.202   0.928   2.234  0.8447  0.4767 -0.2876
   35c3c     C2  289   0.088   1.046   2.103 -0.4411 -0.3492 -0.1325
   35c3c     HC  290   0.111   1.144   2.061  0.3939 -0.7428 -0.5996
   35c3c     HC  291  -0.012   1.041   2.146 -1.4771 -0.6405 -2.5025
   35c3c     CT  292   0.100   0.952   1.977 -0.0200  0.3418  0.5294
   35c3c     HC  293   0.051   1.001   1.893  0.5585  0.7918  0.4423
   35c3c     HC  294   0.054   0.854   1.988 -2.2332  1.3774  0.8042
   35c3c     HC  295   0.201   0.944   1.937 -0.0973 -1.2877  0.6583
   36c3c     N4  296   2.477   2.233   2.349  0.0834  0.2285  0.1479
   36c3c     C1  297   2.482   2.148   2.470  0.5372 -0.3748 -0.2605
   36c3c     C1  298   2.613   2.223   2.294  0.2942  0.0875  0.4028
   36c3c     C2  299   2.569   2.029   2.430  0.3173 -0.0100  0.3306
   36c3c     C2  300   2.653   2.075   2.314 -0.8029 -0.3687 -0.1534
   36c3c     C1  301   2.387   2.172   2.256  0.2230  0.2385  0.4737
   36c3c     C1  302   2.432   2.367   2.383 -0.0841 -0.3634 -0.5562
   36c3c     H1  303   2.379   2.123   2.496  0.3966  0.7086  0.2666
   36c3c     H1  304   2.522   2.196   2.559  1.2456  2.5657 -2.0880
   36c3c     H1  305   2.618   2.261   2.192 -0.3409 -0.4944  0.1503
   36c3c     H1  306   2.687   2.279   2.353 -1.0199  2.5378 -0.2050
   36c3c     HC  307   2.500   1.948   2.408 -1.6876  1.3902  1.3808
   36c3c     HC  308   2.636   2.000   2.511 -0.5649  0.0416  1.0869
   36c3c     HC  309   2.624   2.021   2.223  0.7404 -0.7571 -0.4386
   36c3c     HC  310   2.759   2.065   2.338 -1.0007 -2.1936  0.0445
   36c3c     H1  311   2.402   2.067   2.230  0.4579  0.0892  1.2152
   36c3c     H1  312   2.284   2.186   2.288 -0.3367  1.1257 -1.5974
   36c3c     H1  313   2.395   2.222   2.159 -2.7660  0.7139  0.4206
   36c3c     H1  314   2.430   2.420   2.287 -1.8583 -0.2863 -0.4894
   36c3c     H1  315   2.330   2.371   2.419 -0.6828  0.1100 -2.2527
   36c3c     C2  316   2.526   2.456   2.470  0.2480 -0.3780 -0.6657
   36c3c     HC  317   2.615   2.491   2.419  0.2172  0.3827 -0.2036
   36c3c     HC  318   2.559   2.407   2.562  0.1783  1.2025  0.2245
   36c3c     CT  319   2.463   2.576   2.528 -0.2483  0.0020  1.4114
   36c3c     HC  320   2.535   2.618   2.598  1.8531 -0.4215 -0.4576
   36c3c     HC  321   2.369   2.559   2.581 -2.0982  0.6537 -1.5905
   36c3c     HC  322   2.451   2.643   2.444 -0.9784 -0.6351  1.0042
   37c3c     N4  323   1.352   1.218   1.469 -0.6378 -0.3602 -0.8738
   37c3c     C1  324   1.314   1.289   1.347 -0.5603 -0.2268 -0.9295
   37c3c     C1  325   1.472   1.137   1.434 -0.3657 -0.2738  0.2523
   37c3c     C2  326   1.448   1.333   1.284  0.1678  0.6325 -0.3053
   37c3c     C2  327   1.545   1.231   1.339 -0.2826  0.1866  0.0726
   37c3c     C1  328   1.383   1.323   1.570 -0.4590 -0.0415 -0.4631
   37c3c     C1  329   1.247   1.140   1.524 -0.1680  0.0812  0.3676
   37c3c     H1  330   1.255   1.379   1.365  1.4151  1.0847 -0.8769
   37c3c     H1  331   1.268   1.220   1.277 -0.7798 -1.8668  0.8063
   37c3c     H1  332   1.523   1.108   1.526 -1.0497 -1.7481  0.1848
   37c3c     H1  333   1.464   1.042   1.381 -0.6773 -0.7967  1.2191
   37c3c     HC  334   1.469   1.435   1.316 -2.7715  1.7943 -1.9458
   37c3c     HC  335   1.449   1.331   1.175  0.3953 -1.0726 -0.2878
   37c3c     HC  336   1.633   1.273   1.388  0.1344 -0.2769 -0.2889
   37c3c     HC  337   1.588   1.172   1.259 -2.6701 -0.0185 -1.0918
   37c3c     H1  338   1.464   1.387   1.535  0.0102 -1.2024 -1.5556
   37c3c     H1  339   1.299   1.387   1.597 -0.9978 -0.1007 -1.9312
   37c3c     H1  340   1.408   1.276   1.665 -0.4625 -0.0908 -0.4863
   37c3c     H1  341   1.267   1.111   1.627  0.8860  0.6021  0.3206
   37c3c     H1  342   1.164   1.210   1.530  0.4988  0.8579  0.6090
   37c3c     C2  343   1.216   1.016   1.445 -0.3735 -0.2079 -0.8648
   37c3c     HC  344   1.290   0.943   1.477  0.2832  1.7681  2.3464
   37c3c     HC  345   1.218   1.034   1.337 -1.1519 -2.1764 -1.2314
   37c3c     CT  346   1.074   0.971   1.472  0.2813 -0.2907  0.3921
   37c3c     HC  347   1.063   0.944   1.577 -0.2908  2.2781  1.0259
   37c3c     HC  348   1.055   0.875   1.426  1.6793 -0.2943 -0.2264
   37c3c     HC  349   0.999   1.046   1.446 -1.1022 -1.4859  0.9151
   38c3c     N4  350   1.868   1.452   1.059 -0.2629 -0.6256  0.0021
   38c3c     C1  351   1.817   1.369   1.170  0.1423  0.0649 -0.1103
   38c3c     C1  352   1.893   1.582   1.120 -0.0065 -0.2967  0.5196
   38c3c     C2  353   1.913   1.401   1.282 -0.3731 -0.2939  0.0218
   38c3c     C2  354   1.960   1.541   1.248  0.2903  0.5653  0.1471
   38c3c     C1  355   1.988   1.400   0.998 -0.5337  1.0036 -0.7385
   38c3c     C1  356   1.772   1.479   0.948  0.1338 -0.0448  0.2077
   38c3c     H1  357   1.812   1.264   1.141  0.6811  0.1921 -0.6833
   38c3c     H1  358   1.718   1.403   1.200 -0.5724 -2.2214  0.2112
   38c3c     H1  359   1.948   1.656   1.062 -1.1475 -0.9783 -1.4775
   38c3c     H1  360   1.797   1.630   1.143 -0.4620 -1.2309  0.5777
   38c3c     HC  361   2.001   1.337   1.286  0.8923  1.3892 -0.4043
   38c3c     HC  362   1.881   1.399   1.386  1.0921  3.7166  0.6140
   38c3c     HC  363   2.068   1.543   1.230  0.2273 -0.2215 -0.3578
   38c3c     HC  364   1.945   1.607   1.333  1.5618 -1.0663  1.6737
   38c3c     H1  365   2.018   1.478   0.928  3.1522 -0.9558 -1.5086
   38c3c     H1  366   2.067   1.383   1.072 -2.1608  1.6288  1.1767
   38c3c     H1  367   1.986   1.296   0.965  0.7591  0.6514  0.2496
   38c3c     H1  368   1.682   1.524   0.990 -0.7216  0.4822 -2.0763
   38c3c     H1  369   1.813   1.558   0.884  2.2652 -1.8967 -0.7536
   38c3c     C2  370   1.721   1.362   0.858  0.8639 -0.4426  0.2478
   38c3c     HC  371   1.632   1.312   0.896  0.8553  0.3262  1.2701
   38c3c     HC  372   1.802   1.290   0.849  2.0546  0.7534  1.2702
   38c3c     CT  373   1.699   1.417   0.713  0.4944  0.1107 -0.2462
   38c3c     HC  374   1.667   1.521   0.721  2.7059  0.6532  2.3429
   38c3c     HC  375   1.647   1.349   0.645 -1.1133  0.7488  0.3258
   38c3c     HC  376   1.800   1.425   0.673  0.0991  1.5239 -1.0065
   39c3c     N4  377   1.749   2.027   0.382 -0.0224 -0.4904 -0.2953
   39c3c     C1  378   1.627   2.105   0.419 -0.1063  0.0509 -0.1995
   39c3c     C1  379   1.753   2.056   0.241 -0.0911  0.2586 -0.4827
   39c3c     C2  380   1.626   2.239   0.342  0.1864 -0.1623  0.2711
   39c3c     C2  381   1.731   2.208   0.234 -0.8803  0.2048 -0.4152
   39c3c     C1  382   1.868   2.074   0.456 -0.7651 -0.4209 -0.1084
   39c3c     C1  383   1.731   1.883   0.412  0.0142 -0.0948 -0.0293
   39c3c     H1  384   1.616   2.133   0.524 -2.0993  1.5138 -0.7948
   39c3c     H1  385   1.534   2.054   0.394  0.0728 -0.1638 -0.4380
   39c3c     H1  386   1.851   2.031   0.202 -0.1897  0.5126 -0.8933
   39c3c     H1  387   1.678   2.000   0.185  0.5361  0.4899 -1.5504
   39c3c     HC  388   1.662   2.311   0.415 -0.2772 -0.8440  1.1807
   39c3c     HC  389   1.530   2.269   0.301  0.1372  0.3977  0.7962
   39c3c     HC  390   1.823   2.266   0.245 -2.2649  2.3170  0.4697
   39c3c     HC  391   1.694   2.229   0.134 -1.2122  0.9641 -0.1363
   39c3c     H1  392   1.862   2.062   0.565 -0.6446  1.4913  0.1356
   39c3c     H1  393   1.961   2.030   0.419 -0.4074  0.6967 -0.5801
   39c3c     H1  394   1.873   2.183   0.451 -0.6753 -0.4569 -0.8190
   39c3c     H1  395   1.731   1.878   0.521 -1.5876  0.5382  0.0216
   39c3c     H1  396   1.629   1.855   0.383 -0.3537 -1.4220  2.3632
   39c3c     C2  397   1.819   1.773   0.352  0.4524  0.0441 -0.3621
   39c3c     HC  398   1.921   1.807   0.366  0.3272 -0.4003  1.8828
   39c3c     HC  399   1.804   1.773   0.245  1.9307  0.7374 -0.5785
   39c3c     CT  400   1.775   1.641   0.413 -1.1050  0.1984 -0.9859
   39c3c     HC  401   1.670   1.620   0.396 -2.1581  2.1782  2.5461
   39c3c     HC  402   1.777   1.651   0.521 -3.1050  0.9486 -0.9912
   39c3c     HC  403   1.829   1.553   0.377 -3.6045 -1.3922 -0.9844
   40c3c     N4  404   0.363   2.734   1.194  0.2236 -0.0486  0.1339
   40c3c     C1  405   0.301   2.817   1.091 -0.6326 -0.4826 -0.0201
   40c3c     C1  406   0.361   2.599   1.127 -0.1877 -0.3175  0.0668
   40c3c     C2  407   0.368   2.775   0.965  0.1875  0.4313 -0.4213
   40c3c     C2  408   0.387   2.623   0.978  0.0349 -0.6283  0.4396
   40c3c     C1  409   0.500   2.781   1.222  0.1384  0.0559 -0.4939
   40c3c     C1  410   0.294   2.729   1.321  0.3111 -0.0550 -0.4200
   40c3c     H1  411   0.310   2.925   1.102 -0.0832 -0.7954  2.8177
   40c3c     H1  412   0.194   2.799   1.093 -0.4364 -1.6958  0.1444
   40c3c     H1  413   0.429   2.525   1.166 -1.0234 -0.3954  1.3992
   40c3c     H1  414   0.266   2.546   1.131  0.0687 -0.8505 -0.6981
   40c3c     HC  415   0.463   2.824   0.949  1.0852 -0.7160  1.3171
   40c3c     HC  416   0.309   2.787   0.873 -0.3558 -2.2653 -0.4592
   40c3c     HC  417   0.486   2.596   0.942  0.1185 -0.6349  0.6773
   40c3c     HC  418   0.304   2.567   0.935  0.5892 -1.9723  1.1080
   40c3c     H1  419   0.495   2.888   1.243 -0.5662 -0.1209  0.3168
   40c3c     H1  420   0.518   2.735   1.319  4.8859  4.2357  0.8474
   40c3c     H1  421   0.581   2.756   1.154  0.7115  0.0916  0.1669
   40c3c     H1  422   0.337   2.646   1.377  2.8601  0.6926 -1.1765
   40c3c     H1  423   0.309   2.818   1.383 -0.4957 -0.6191  0.5931
   40c3c     C2  424   0.143   2.698   1.317  0.2316  0.7429 -0.0997
   40c3c     HC  425   0.116   2.616   1.383  0.5467  0.8469  0.1588
   40c3c     HC  426   0.103   2.659   1.223 -2.5374  2.3753  0.3378
   40c3c     CT  427   0.049   2.813   1.348  0.0574 -0.5212 -0.1748
   40c3c     HC  428   0.071   2.893   1.277 -1.1170 -0.9390 -1.0137
   40c3c     HC  429   0.074   2.862   1.442  2.3722 -0.7383 -0.6497
   40c3c     HC  430  -0.056   2.789   1.333  0.0220 -0.8120  0.5088
   41c3c     N4  431   0.982   0.444   1.217 -0.0412 -0.0561  0.5011
   41c3c     C1  432   0.901   0.335   1.165  0.6993 -0.3497 -0.3413
   41c3c     C1  433   0.881   0.522   1.295 -0.1934  0.7503 -0.7576
   41c3c     C2  434   0.811   0.293   1.283  0.4299  0.4724 -0.2404
   41c3c     C2  435   0.796   0.415   1.371 -0.1231  0.1060 -0.2955
   41c3c     C1  436   1.092   0.387   1.301 -0.2699  0.5814  0.1304
   41c3c     C1  437   1.059   0.525   1.114  0.3042  0.3745  0.1896
   41c3c     H1  438   0.956   0.250   1.126 -0.9592 -0.8197 -1.7366
   41c3c     H1  439   0.841   0.373   1.082  0.7119 -0.5828 -0.4566
   41c3c     H1  440   0.933   0.593   1.359  0.2152 -0.0408 -0.2143
   41c3c     H1  441   0.823   0.573   1.218  0.5331 -0.2077 -1.9690
   41c3c     HC  442   0.853   0.208   1.338 -1.5204 -0.0024  0.5333
   41c3c     HC  443   0.716   0.265   1.237  2.2224 -1.4790 -2.9538
   41c3c     HC  444   0.826   0.393   1.474 -0.6864  0.4616 -0.0575
   41c3c     HC  445   0.694   0.452   1.370 -0.0217  0.3770 -1.7586
   41c3c     H1  446   1.147   0.323   1.231 -0.4792 -1.7496  2.0087
   41c3c     H1  447   1.159   0.462   1.342  1.6902 -0.6206 -0.7653
   41c3c     H1  448   1.043   0.338   1.385  1.5620  1.2747  1.6394
   41c3c     H1  449   1.144   0.575   1.161  0.1500  3.8980 -3.0834
   41c3c     H1  450   1.101   0.456   1.041 -0.7231  1.1541 -1.1423
   41c3c     C2  451   0.986   0.625   1.019  0.2959  0.7537 -0.3018
   41c3c     HC  452   0.910   0.689   1.063 -0.3517 -2.6161  3.9093
   41c3c     HC  453   0.931   0.570   0.942 -1.6456  1.0546  0.8262
   41c3c     CT  454   1.076   0.724   0.949  0.1645 -0.3205 -0.5001
   41c3c     HC  455   1.154   0.751   1.020  0.3729 -1.1116 -0.4288
   41c3c     HC  456   1.025   0.815   0.918 -0.5728 -0.9624 -1.1970
   41c3c     HC  457   1.117   0.683   0.856 -1.2139  2.0728 -2.2341
   42c3c     N4  458   1.897   0.646   1.791 -0.1204  0.5487 -0.1131
   42c3c     C1  459   1.980   0.740   1.869 -0.6544  0.4974  0.2537
   42c3c     C1  460   1.897   0.525   1.878  0.3425  0.6781 -0.4707
   42c3c     C2  461   1.965   0.691   2.017  0.4316  0.2825 -0.0911
   42c3c     C2  462   1.870   0.577   2.015  0.7939  0.8174 -0.1092
   42c3c     C1  463   1.760   0.689   1.779 -0.2559 -0.0335 -0.7346
   42c3c     C1  464   1.966   0.626   1.663  0.3623  0.3084 -0.0976
   42c3c     H1  465   1.951   0.841   1.840  0.3220  0.4366 -0.9676
   42c3c     H1  466   2.084   0.732   1.839 -0.8592  0.9279 -0.6083
   42c3c     H1  467   1.821   0.450   1.852  1.1299 -0.2199 -0.1988
   42c3c     H1  468   1.996   0.481   1.883  1.0029  2.2912  1.0452
   42c3c     HC  469   1.927   0.773   2.079 -2.0356 -0.1624 -0.9586
   42c3c     HC  470   2.063   0.656   2.048  0.1056  0.6857  1.4426
   42c3c     HC  471   1.773   0.623   2.033  0.6300  0.4044  0.0719
   42c3c     HC  472   1.898   0.515   2.100  2.4213  1.6100 -0.0438
   42c3c     H1  473   1.704   0.606   1.737  0.6237 -1.8851  1.6740
   42c3c     H1  474   1.710   0.732   1.865 -1.5566  1.8164 -2.3705
   42c3c     H1  475   1.764   0.776   1.713  0.1452 -0.0362 -0.7161
   42c3c     H1  476   1.974   0.722   1.612 -2.8618  0.4336 -0.4682
   42c3c     H1  477   2.067   0.594   1.687  0.7201  1.7846  0.3884
   42c3c     C2  478   1.907   0.519   1.576 -0.2328  0.1643 -1.1030
   42c3c     HC  479   1.800   0.537   1.561 -0.4047 -0.3706 -0.5596
   42c3c     HC  480   1.897   0.421   1.623  1.0782  0.5325 -0.0442
   42c3c     CT  481   1.960   0.521   1.433  0.1893  0.6749  0.0187
   42c3c     HC  482   1.890   0.465   1.371  0.4328 -2.0203  2.0401
   42c3c     HC  483   2.055   0.477   1.403 -0.4521 -0.4925 -0.3425
   42c3c     HC  484   1.951   0.622   1.394 -1.2997  0.2628 -0.7241
   43c3c     N4  485   0.279   0.901   1.337  0.0510  0.5576  0.1355
   43c3c     C1  486   0.263   0.985   1.458  0.1829  0.5543 -0.1058
   43c3c     C1  487   0.283   0.765   1.402 -0.5835  0.5683 -0.3793
   43c3c     C2  488   0.165   0.923   1.557  0.4174 -0.2791  0.3926
   43c3c     C2  489   0.177   0.773   1.523 -0.6553 -0.8179 -0.0083
   43c3c     C1  490   0.159   0.921   1.250 -0.0972 -0.7542 -0.9212
   43c3c     C1  491   0.397   0.936   1.257 -0.0020  0.4532  0.5396
   43c3c     H1  492   0.238   1.088   1.431 -1.5959  0.0632 -0.3703
   43c3c     H1  493   0.358   0.976   1.512  1.2551  1.4728 -1.7790
   43c3c     H1  494   0.274   0.687   1.326 -1.3484  1.5558 -1.3289
   43c3c     H1  495   0.380   0.748   1.447 -0.5243  2.7287  0.3655
   43c3c     HC  496   0.066   0.958   1.527  0.7702  1.2522  0.9733
   43c3c     HC  497   0.192   0.959   1.656 -0.3620 -0.1015  0.5441
   43c3c     HC  498   0.083   0.729   1.491 -0.6801 -1.4768  0.9483
   43c3c     HC  499   0.205   0.717   1.612 -1.1774 -0.7645  0.1900
   43c3c     H1  500   0.063   0.893   1.292  0.4398 -1.7140 -0.3128
   43c3c     H1  501   0.141   1.027   1.237 -0.4859 -0.8816 -1.4289
   43c3c     H1  502   0.177   0.874   1.153 -0.8872  4.5534 -3.8520
   43c3c     H1  503   0.390   0.851   1.188 -1.1575 -0.1808  1.4150
   43c3c     H1  504   0.385   1.026   1.196  0.4872  0.2676  0.1644
   43c3c     C2  505   0.537   0.949   1.324 -0.1877  1.2086  0.3446
   43c3c     HC  506   0.564   0.868   1.393 -1.6212  1.4792  1.2378
   43c3c     HC  507   0.534   1.037   1.387 -0.7601  1.8634 -0.5884
   43c3c     CT  508   0.655   0.976   1.222 -0.3828  0.3553 -0.0889
   43c3c     HC  509   0.691   0.896   1.158  2.1137  1.8662 -0.6661
   43c3c     HC  510   0.742   0.999   1.284  0.6236 -1.5569 -0.7370
   43c3c     HC  511   0.639   1.071   1.171  1.4453  0.2736 -0.8610
   44c3c     N4  512   2.536   2.837   2.033 -0.1640 -0.4019 -0.9301
   44c3c     C1  513   2.417   2.920   2.044  0.1121  0.4389 -0.2341
   44c3c     C1  514   2.640   2.931   1.978  0.0700  0.1325  0.0017
   44c3c     C2  515   2.416   3.022   1.928 -0.2659  0.4314  0.4448
   44c3c     C2  516   2.565   3.029   1.883  0.1227 -0.5099 -0.4478
   44c3c     C1  517   2.585   2.790   2.163 -0.1555  0.0405 -0.3631
   44c3c     C1  518   2.518   2.716   1.937  0.6029  0.3483  0.3657
   44c3c     H1  519   2.414   2.980   2.135 -1.2630  1.3523 -0.8762
   44c3c     H1  520   2.321   2.869   2.060  0.3468 -0.0216 -0.2717
   44c3c     H1  521   2.691   2.979   2.061 -0.0491  1.3042 -0.6033
   44c3c     H1  522   2.723   2.887   1.922  0.2989 -0.0767  0.5080
   44c3c     HC  523   2.366   3.113   1.960  2.4728  1.5518  1.7383
   44c3c     HC  524   2.359   2.977   1.847 -0.5926  0.7413  0.5008
   44c3c     HC  525   2.599   3.132   1.889 -1.2072 -0.0532 -0.6924
   44c3c     HC  526   2.560   2.999   1.778  0.0716  2.0664 -1.1984
   44c3c     H1  527   2.611   2.865   2.238 -2.4090  2.5501 -1.9840
   44c3c     H1  528   2.514   2.727   2.216 -1.8820  2.5947  0.4450
   44c3c     H1  529   2.670   2.722   2.153 -1.3750 -1.3770 -1.3406
   44c3c     H1  530   2.472   2.755   1.847  1.8210  0.9435 -0.0170
   44c3c     H1  531   2.617   2.675   1.917 -0.1008 -1.3072  0.2306
   44c3c     C2  532   2.448   2.590   1.986 -0.4892 -0.0528 -0.4240
   44c3c     HC  533   2.346   2.613   2.017 -0.9356  0.4559 -2.2079
   44c3c     HC  534   2.503   2.556   2.074 -2.5353  0.8768  1.2634
   44c3c     CT  535   2.454   2.490   1.872 -0.6351  0.4547  0.0644
   44c3c     HC  536   2.391   2.520   1.788 -1.4955 -0.1176  0.4885
   44c3c     HC  537   2.415   2.392   1.900  1.3004 -0.4064 -0.1830
   44c3c     HC  538   2.558   2.477   1.842 -0.7489 -0.6390  0.1062
   45c3c     N4  539   2.427   0.317   1.299  0.1551  0.2594  0.0395
   45c3c     C1  540   2.409   0.246   1.169  0.9845  1.0901 -0.3043
   45c3c     C1  541   2.558   0.265   1.339  0.0652 -0.6856 -0.0164
   45c3c     C2  542   2.449   0.100   1.189  0.4675  0.5773 -0.6006
   45c3c     C2  543   2.559   0.119   1.294  0.3691 -0.1547 -0.6313
   45c3c     C1  544   2.428   0.462   1.285 -0.1508  0.0655 -0.2759
   45c3c     C1  545   2.324   0.276   1.391 -0.7092 -0.4242 -0.2862
   45c3c     H1  546   2.472   0.295   1.094  0.2810  0.0473 -1.5988
   45c3c     H1  547   2.306   0.248   1.134  1.4803 -1.7924 -2.1119
   45c3c     H1  548   2.636   0.309   1.277  0.8514  0.7146  1.9188
   45c3c     H1  549   2.584   0.284   1.443 -2.2498 -2.1639  0.8767
   45c3c     HC  550   2.501   0.052   1.107  0.7469  1.3527 -0.8760
   45c3c     HC  551   2.366   0.038   1.226  0.2940  1.9014  1.2897
   45c3c     HC  552   2.652   0.074   1.261  0.3343 -0.0525 -0.8740
   45c3c     HC  553   2.538   0.061   1.384  0.6827 -0.8841 -1.0309
   45c3c     H1  554   2.440   0.520   1.376 -0.8347  0.5550 -0.4972
   45c3c     H1  555   2.504   0.497   1.215 -0.5856 -0.1171 -0.8453
   45c3c     H1  556   2.339   0.503   1.238 -1.6358 -0.4987  1.9754
   45c3c     H1  557   2.234   0.299   1.333 -0.8896  1.1846  0.6213
   45c3c     H1  558   2.325   0.167   1.401  1.3739 -0.5610 -1.5961
   45c3c     C2  559   2.317   0.342   1.532 -0.2185  0.4779 -0.0634
   45c3c     HC  560   2.293   0.448   1.528  0.6903  0.7027  0.2224
   45c3c     HC  561   2.410   0.351   1.587 -0.7363 -0.5371  1.0081
   45c3c     CT  562   2.207   0.276   1.613  0.3741 -0.3226 -0.3583
   45c3c     HC  563   2.239   0.176   1.642 -0.9788 -1.1362 -1.6529
   45c3c     HC  564   2.117   0.279   1.552  0.0114  1.3553  0.2210
   45c3c     HC  565   2.181   0.330   1.704  1.7214 -0.9351  0.4109
   46c3c     N4  566   1.568   0.510   2.834  0.6269 -0.1135  0.3614
   46c3c     C1  567   1.576   0.623   2.741  0.1639 -1.0074 -0.4198
   46c3c     C1  568   1.594   0.576   2.964 -0.3032 -0.0277 -0.7559
   46c3c     C2  569   1.489   0.731   2.803  0.1053 -0.2447 -0.4756
   46c3c     C2  570   1.521   0.711   2.952  1.0171 -0.1161 -0.2099
   46c3c     C1  571   1.438   0.438   2.827 -0.6846 -0.1911 -0.2378
   46c3c     C1  572   1.673   0.404   2.811 -0.4364  0.1782  0.2795
   46c3c     H1  573   1.540   0.583   2.646  2.1711 -1.7143 -0.9018
   46c3c     H1  574   1.678   0.661   2.744 -0.2746  0.2718 -1.3105
   46c3c     H1  575   1.564   0.522   3.054 -0.9326 -0.2981 -1.1294
   46c3c     H1  576   1.700   0.593   2.982 -0.5917 -0.7379  1.9528
   46c3c     HC  577   1.381   0.724   2.791 -0.0187  0.5841  0.0825
   46c3c     HC  578   1.516   0.830   2.767  0.4334 -0.0013  0.4368
   46c3c     HC  579   1.429   0.697   3.010  2.0178 -1.1886  1.1569
   46c3c     HC  580   1.577   0.789   3.002  3.1626 -1.6564 -0.1454
   46c3c     H1  581   1.438   0.393   2.728 -0.3486 -2.6718  0.8724
   46c3c     H1  582   1.443   0.356   2.899  0.6747  0.0516 -0.0449
   46c3c     H1  583   1.349   0.499   2.845  0.5801  2.1552 -1.6461
   46c3c     H1  584   1.690   0.327   2.888  2.6900 -1.5183 -1.9749
   46c3c     H1  585   1.648   0.347   2.722  0.2280  2.7775 -1.6075
   46c3c     C2  586   1.818   0.461   2.779 -0.9051  0.6694  0.7804
   46c3c     HC  587   1.847   0.550   2.836  1.4324 -0.2646  1.0901
   46c3c     HC  588   1.832   0.494   2.677 -0.2508  3.8155  1.8267
   46c3c     CT  589   1.935   0.364   2.794  0.0010  0.2290 -0.0559
   46c3c     HC  590   1.938   0.314   2.891  0.1942  2.6811  1.2517
   46c3c     HC  591   2.015   0.438   2.785 -0.9308  1.3426  0.6435
   46c3c     HC  592   1.965   0.293   2.717  0.9907 -2.1541  2.4239
   47c3c     N4  593   1.899   1.242   2.408  0.4052 -0.6518 -0.1621
   47c3c     C1  594   2.033   1.263   2.451  0.0204 -0.1745 -0.3610
   47c3c     C1  595   1.830   1.372   2.425 -0.8276  0.0281  0.1618
   47c3c     C2  596   2.062   1.402   2.397  0.4865 -0.0155 -1.2660
   47c3c     C2  597   1.934   1.481   2.384  0.9754 -0.0108 -0.5992
   47c3c     C1  598   1.897   1.201   2.263  0.8084  0.1968  0.4211
   47c3c     C1  599   1.848   1.126   2.484 -0.1266 -0.4402  0.0857
   47c3c     H1  600   2.108   1.190   2.420 -1.3494 -1.6980 -0.0807
   47c3c     H1  601   2.041   1.265   2.559  0.8223 -0.9217 -0.3929
   47c3c     H1  602   1.729   1.381   2.385 -0.6470  2.2837  0.1679
   47c3c     H1  603   1.812   1.380   2.532 -2.4816  1.9137 -0.2270
   47c3c     HC  604   2.105   1.379   2.300  2.8394 -0.9804 -0.0336
   47c3c     HC  605   2.132   1.463   2.455 -0.1055 -0.0670 -0.4861
   47c3c     HC  606   1.926   1.515   2.281 -1.6654  0.7797 -0.1520
   47c3c     HC  607   1.923   1.561   2.456 -1.0301  0.1224 -1.0381
   47c3c     H1  608   1.912   1.285   2.195 -1.6930  1.1870  1.0182
   47c3c     H1  609   1.975   1.129   2.239  0.4953  0.1260 -0.4123
   47c3c     H1  610   1.808   1.149   2.229  0.0605  0.8419  1.3814
   47c3c     H1  611   1.903   1.036   2.457 -1.6091 -0.5461 -2.6607
   47c3c     H1  612   1.871   1.136   2.590 -1.2639 -1.8644  0.4667
   47c3c     C2  613   1.697   1.089   2.472 -0.2867  1.0422 -0.5534
   47c3c     HC  614   1.673   1.068   2.368 -0.0338  1.6003 -0.7231
   47c3c     HC  615   1.636   1.168   2.516 -1.6417 -0.4161  0.2601
   47c3c     CT  616   1.671   0.956   2.545 -0.0666  0.4249 -0.6642
   47c3c     HC  617   1.712   0.869   2.494  1.3047  0.8359 -0.2855
   47c3c     HC  618   1.565   0.942   2.569  0.4000 -0.7799  0.7755
   47c3c     HC  619   1.715   0.968   2.645 -0.9251 -1.2462 -0.0650
   48c3c     N4  620   2.070   0.811   1.008  0.1216 -0.2846 -0.2317
   48c3c     C1  621   1.938   0.752   1.043 -0.4150 -0.2402  0.7063
   48c3c     C1  622   2.153   0.716   1.077 -0.5668  0.1659  0.0086
   48c3c     C2  623   1.951   0.605   1.027  0.0461  0.1258  0.8876
   48c3c     C2  624   2.095   0.575   1.072 -0.1349 -0.5519 -0.0778
   48c3c     C1  625   2.087   0.820   0.865  0.3865  0.3345 -0.0085
   48c3c     C1  626   2.071   0.951   1.067  0.6454  1.0068 -0.2670
   48c3c     H1  627   1.856   0.796   0.986 -0.4789 -0.9144  0.2691
   48c3c     H1  628   1.918   0.767   1.149  1.4315 -0.9815  1.1786
   48c3c     H1  629   2.258   0.730   1.050 -0.8160 -0.0334 -1.1079
   48c3c     H1  630   2.149   0.753   1.179  0.5075 -0.2755  0.2160
   48c3c     HC  631   1.934   0.567   0.926  0.9594  1.3429  0.2755
   48c3c     HC  632   1.883   0.561   1.100 -1.1980  2.9370  1.4822
   48c3c     HC  633   2.129   0.518   0.986  0.9043 -0.4702  0.2777
   48c3c     HC  634   2.104   0.518   1.164  1.2381  1.0886  0.8319
   48c3c     H1  635   2.069   0.721   0.823 -0.5045 -0.7364  2.7901
   48c3c     H1  636   2.028   0.902   0.825  1.1383  1.5306  1.2759
   48c3c     H1  637   2.188   0.841   0.829  0.5372  0.5744  0.5557
   48c3c     H1  638   1.978   1.001   1.043  0.3551 -0.4099 -2.1750
   48c3c     H1  639   2.060   0.957   1.175 -1.5186  1.1674 -0.4722
   48c3c     C2  640   2.190   1.044   1.030 -0.5681 -0.3097 -0.4072
   48c3c     HC  641   2.160   1.136   0.980  1.4174  1.4384  1.4982
   48c3c     HC  642   2.255   0.993   0.960  0.3921  2.2942 -1.4807
   48c3c     CT  643   2.266   1.091   1.157 -0.3609  0.3143  0.1715
   48c3c     HC  644   2.190   1.117   1.231  0.4576  2.0554  0.4287
   48c3c     HC  645   2.331   1.172   1.124 -2.6568  1.8120 -0.8030
   48c3c     HC  646   2.330   1.009   1.189 -0.5275 -0.0468 -0.4202
   49c3c     N4  647   0.792   1.982   1.628 -0.2442 -0.0519 -0.6454
   49c3c     C1  648   0.758   2.115   1.575 -0.4920  0.5678 -0.0154
   49c3c     C1  649   0.704   1.897   1.556  0.2695 -0.0916  0.9032
   49c3c     C2  650   0.742   2.092   1.423 -0.1110  0.6009  0.9186
   49c3c     C2  651   0.698   1.944   1.417  0.5988 -0.3911  0.1742
   49c3c     C1  652   0.934   1.946   1.603  0.3998  0.6536 -0.3161
   49c3c     C1  653   0.768   1.965   1.772 -0.4144  0.9736 -0.2968
   49c3c     H1  654   0.837   2.189   1.585 -0.3212  0.5317 -1.0413
   49c3c     H1  655   0.671   2.164   1.618 -0.7480 -0.6772  0.9242
   49c3c     H1  656   0.740   1.795   1.568 -0.3010 -0.2514  1.2514
   49c3c     H1  657   0.602   1.911   1.593 -0.3655 -2.6686  0.1665
   49c3c     HC  658   0.835   2.111   1.369  0.1950  0.6953  1.4825
   49c3c     HC  659   0.667   2.156   1.376  0.2242  0.5973  0.3630
   49c3c     HC  660   0.769   1.891   1.353  1.2472 -1.2006  1.5383
   49c3c     HC  661   0.602   1.927   1.369  0.7612 -0.8690  0.0114
   49c3c     H1  662   0.997   2.016   1.657 -0.0910 -1.2477  2.8613
   49c3c     H1  663   0.962   1.848   1.641  2.2496  0.8299 -1.1992
   49c3c     H1  664   0.969   1.965   1.502  4.3998  1.0265  1.0325
   49c3c     H1  665   0.773   1.860   1.802  1.4058  1.3797  0.9493
   49c3c     H1  666   0.851   2.009   1.828 -0.4013  0.2987  0.2296
   49c3c     C2  667   0.639   2.013   1.836 -0.1975  0.0490 -0.1594
   49c3c     HC  668   0.544   1.982   1.792  0.9390 -1.4657 -1.5779
   49c3c     HC  669   0.631   2.122   1.846 -1.1247 -0.2315  2.5894
   49c3c     CT  670   0.619   1.943   1.974 -0.6603 -0.9806  0.0775
   49c3c     HC  671   0.524   1.956   2.027 -1.5798  0.2021 -1.7843
   49c3c     HC  672   0.694   1.984   2.042  0.5335 -0.2028 -1.6805
   49c3c     HC  673   0.613   1.835   1.963 -3.3437 -0.9821  1.1690
   50c3c     N4  674   2.570   1.356   0.655  0.1729 -0.4705  0.2732
   50c3c     C1  675   2.429   1.388   0.689  0.0369 -0.1134  0.3766
   50c3c     C1  676   2.617   1.332   0.793  0.4687 -0.5666  0.6363
   50c3c     C2  677   2.384   1.292   0.797  0.0288 -0.1453  0.0289
   50c3c     C2  678   2.508   1.246   0.861 -0.0517 -0.3571  0.3142
   50c3c     C1  679   2.573   1.235   0.569  0.0496 -0.8020 -0.5546
   50c3c     C1  680   2.617   1.479   0.591  0.0896 -0.2143  0.3876
   50c3c     H1  681   2.364   1.385   0.602  0.4485 -0.8624  0.0882
   50c3c     H1  682   2.410   1.488   0.728  3.1225  0.8354 -0.4299
   50c3c     H1  683   2.719   1.294   0.803 -0.0174 -1.9490  0.3738
   50c3c     H1  684   2.618   1.430   0.842  0.0406 -0.2540  0.0195
   50c3c     HC  685   2.328   1.220   0.738  0.1524  0.1356 -0.4395
   50c3c     HC  686   2.323   1.350   0.867  0.1576  0.5222 -0.4048
   50c3c     HC  687   2.536   1.142   0.845 -1.5467 -0.7071 -0.0934
   50c3c     HC  688   2.510   1.267   0.967  0.0031 -0.2320  0.2887
   50c3c     H1  689   2.669   1.183   0.570  0.7364  0.4638  1.3385
   50c3c     H1  690   2.503   1.152   0.583 -0.4480 -0.4328 -0.8201
   50c3c     H1  691   2.567   1.275   0.467  0.8376  3.1320  0.8632
   50c3c     H1  692   2.566   1.490   0.496  1.1341  1.5525 -0.0032
   50c3c     H1  693   2.605   1.566   0.655  0.4517 -0.5487  0.9184
   50c3c     C2  694   2.771   1.464   0.562  0.1881  0.0424  0.1756
   50c3c     HC  695   2.798   1.365   0.526  1.3421  0.5957 -0.5045
   50c3c     HC  696   2.830   1.482   0.651  2.2692 -0.0911 -1.1524
   50c3c     CT  697   2.820   1.568   0.469  0.0911  0.1122 -0.4292
   50c3c     HC  698   2.739   1.588   0.399 -2.1837 -1.8609  1.5922
   50c3c     HC  699   2.913   1.539   0.419  0.7481  1.1424  0.1807
   50c3c     HC  700   2.850   1.654   0.529  0.0703 -1.3492  1.7351
   51c3c     N4  701   1.451   1.573   2.652 -0.2159 -0.1905 -0.1098
   51c3c     C1  702   1.552   1.608   2.554  0.1836 -0.0341 -0.1999
   51c3c     C1  703   1.537   1.562   2.770  0.4418 -0.1260  0.4391
   51c3c     C2  704   1.656   1.703   2.616 -0.1638 -0.2201  0.8173
   51c3c     C2  705   1.637   1.679   2.764  0.2454  0.7127 -0.4678
   51c3c     C1  706   1.353   1.691   2.663 -0.2135  0.0353 -0.3102
   51c3c     C1  707   1.366   1.461   2.614  0.2377 -1.4273  0.2244
   51c3c     H1  708   1.512   1.644   2.459  1.2110  1.3426 -0.1353
   51c3c     H1  709   1.611   1.521   2.527  0.3712  0.2679 -0.7776
   51c3c     H1  710   1.480   1.570   2.863  1.1471  3.2944  0.6475
   51c3c     H1  711   1.586   1.465   2.781 -2.0690 -1.3317  1.3542
   51c3c     HC  712   1.621   1.803   2.588  1.3564 -0.1424 -0.8529
   51c3c     HC  713   1.752   1.686   2.569 -0.0913 -0.6488  1.1243
   51c3c     HC  714   1.610   1.773   2.814 -1.3899  0.8233 -1.5328
   51c3c     HC  715   1.724   1.639   2.817  0.2729  1.4201  0.0399
   51c3c     H1  716   1.408   1.781   2.688  1.2785 -0.5782 -1.3032
   51c3c     H1  717   1.300   1.725   2.574 -2.0818 -2.0126 -0.0308
   51c3c     H1  718   1.281   1.678   2.743 -1.1813 -0.6339 -1.2833
   51c3c     H1  719   1.304   1.432   2.699 -1.1857  1.6131  0.2785
   51c3c     H1  720   1.294   1.493   2.539  0.8428 -0.6569 -0.0421
   51c3c     C2  721   1.435   1.337   2.557 -0.9351  0.5324 -0.1682
   51c3c     HC  722   1.521   1.317   2.622 -1.2106 -2.5050 -0.6893
   51c3c     HC  723   1.472   1.363   2.458  1.0244  2.6813  1.0753
   51c3c     CT  724   1.347   1.215   2.543  0.3065  0.5583 -0.8743
   51c3c     HC  725   1.406   1.128   2.513  1.1717  0.6364  0.5725
   51c3c     HC  726   1.273   1.238   2.466  1.2259  1.5704 -1.4719
   51c3c     HC  727   1.280   1.197   2.626 -0.3273  0.5143 -1.3894
   52c3c     N4  728   0.343   2.092   0.477  0.1368 -0.1366  0.2783
   52c3c     C1  729   0.297   2.232   0.447 -0.1891 -0.1835  0.3872
   52c3c     C1  730   0.320   2.022   0.350  0.9781 -0.0042  1.0059
   52c3c     C2  731   0.331   2.258   0.300 -0.2380  0.1975 -0.1256
   52c3c     C2  732   0.368   2.124   0.245 -0.0699 -0.3484  0.0042
   52c3c     C1  733   0.484   2.087   0.526 -0.5258 -0.0970  1.2900
   52c3c     C1  734   0.261   2.039   0.590 -0.4579  0.0135  0.7920
   52c3c     H1  735   0.338   2.297   0.524  0.4595  0.5495 -0.5818
   52c3c     H1  736   0.189   2.242   0.451 -0.0534  1.2922  0.5266
   52c3c     H1  737   0.373   1.927   0.354 -0.5439 -0.9249  0.1388
   52c3c     H1  738   0.216   2.001   0.325  0.9845 -1.8292  2.3585
   52c3c     HC  739   0.419   2.321   0.288 -0.7298  0.8716 -0.2262
   52c3c     HC  740   0.252   2.303   0.240 -0.5337  1.4734  1.1997
   52c3c     HC  741   0.474   2.109   0.224  0.2191  3.6272 -1.8257
   52c3c     HC  742   0.310   2.110   0.154 -1.4117  0.5858  0.6888
   52c3c     H1  743   0.491   2.132   0.625 -3.2062  1.5680  0.7615
   52c3c     H1  744   0.520   1.984   0.527 -0.1443 -0.0353 -1.8252
   52c3c     H1  745   0.548   2.142   0.457 -0.6565  1.0081  2.0356
   52c3c     H1  746   0.292   1.942   0.628 -1.2234 -0.5244  0.0522
   52c3c     H1  747   0.250   2.107   0.675 -0.4561  1.3733 -0.2730
   52c3c     C2  748   0.118   2.003   0.544 -0.6895 -0.3951  0.2301
   52c3c     HC  749   0.114   1.925   0.469  0.4058 -0.2362 -0.0003
   52c3c     HC  750   0.064   2.084   0.494  1.2741  1.2692  0.7080
   52c3c     CT  751   0.041   1.957   0.679  0.0674 -1.2880 -0.3736
   52c3c     HC  752  -0.053   1.908   0.652 -0.8504 -0.8652  1.9803
   52c3c     HC  753   0.026   2.036   0.751 -0.9443 -1.1358 -0.7439
   52c3c     HC  754   0.100   1.886   0.737  1.6368  0.4827  0.2300
   53c3c     N4  755   0.147   2.554   1.814 -0.4947  0.0498 -0.3185
   53c3c     C1  756   0.150   2.441   1.903 -0.0371  1.1294  0.2714
   53c3c     C1  757   0.108   2.666   1.899 -0.3638  0.0861 -0.1637
   53c3c     C2  758   0.213   2.492   2.032  1.0291  0.1475  0.5144
   53c3c     C2  759   0.174   2.639   2.034 -0.0715  0.7527 -0.5056
   53c3c     C1  760   0.277   2.585   1.756 -0.7514 -0.7621 -0.3020
   53c3c     C1  761   0.063   2.544   1.693  0.3431 -0.0280  0.4759
   53c3c     H1  762   0.214   2.359   1.870  1.6880  1.5779  2.3174
   53c3c     H1  763   0.051   2.399   1.920  0.8562 -1.9045 -1.6494
   53c3c     H1  764   0.129   2.766   1.860 -0.5469  1.0207  2.0100
   53c3c     H1  765   0.001   2.657   1.914 -0.4712 -0.4000 -1.1698
   53c3c     HC  766   0.321   2.481   2.027  0.9667 -0.2506 -0.0749
   53c3c     HC  767   0.182   2.446   2.126  1.3837 -0.2152  0.4523
   53c3c     HC  768   0.264   2.700   2.042 -0.6838  1.4571  1.1514
   53c3c     HC  769   0.103   2.665   2.113  1.4718  0.6668  0.9396
   53c3c     H1  770   0.316   2.506   1.692  2.3236  0.8005 -0.4323
   53c3c     H1  771   0.278   2.677   1.698  1.1747 -1.3160 -1.1900
   53c3c     H1  772   0.357   2.612   1.825  0.4280 -0.6590 -1.6898
   53c3c     H1  773   0.060   2.641   1.643 -0.8997  0.3707  1.3038
   53c3c     H1  774   0.103   2.480   1.613  2.1998  0.6854  0.8060
   53c3c     C2  775  -0.080   2.495   1.712 -0.2972 -0.6624  0.7049
   53c3c     HC  776  -0.130   2.551   1.791  0.4465  0.9139  0.0764
   53c3c     HC  777  -0.080   2.392   1.750  5.0363 -0.0305  2.8300
   53c3c     CT  778  -0.158   2.518   1.578  0.1081 -0.2989  0.0644
   53c3c     HC  779  -0.129   2.610   1.527  0.7332 -1.3288 -1.4651
   53c3c     HC  780  -0.267   2.518   1.575  0.1108  2.2427 -0.9946
   53c3c     HC  781  -0.129   2.440   1.507 -1.7099 -0.0806 -0.9297
   54c3c     N4  782   0.886   1.297   2.387  0.0651  0.1840 -0.1363
   54c3c     C1  783   0.759   1.234   2.415  0.6360 -0.1306 -0.1246
   54c3c     C1  784   0.972   1.178   2.384  0.1680 -0.4738 -0.3723
   54c3c     C2  785   0.749   1.104   2.330 -0.4715  0.7212  0.0850
   54c3c     C2  786   0.897   1.065   2.311 -0.0970 -0.4408 -0.1456
   54c3c     C1  787   0.889   1.361   2.256  0.1150 -0.0889 -0.6432
   54c3c     C1  788   0.929   1.397   2.486  0.4196 -0.3500 -0.0837
   54c3c     H1  789   0.677   1.304   2.399  1.1378 -0.0627 -2.4851
   54c3c     H1  790   0.748   1.207   2.520  0.6401  0.2675 -0.0232
   54c3c     H1  791   1.064   1.202   2.331  0.4295 -1.6301 -0.4411
   54c3c     H1  792   0.987   1.138   2.484 -1.8278  1.5449  0.7878
   54c3c     HC  793   0.705   1.130   2.234  0.0542 -0.3511 -0.4514
   54c3c     HC  794   0.691   1.028   2.381 -1.2125  1.6925  0.7193
   54c3c     HC  795   0.918   1.073   2.204 -0.8367  0.7057 -0.2091
   54c3c     HC  796   0.928   0.964   2.339  0.0357 -0.0437  1.1678
   54c3c     H1  797   0.873   1.288   2.178  3.6679 -1.1849 -0.4118
   54c3c     H1  798   0.811   1.438   2.251  0.6930  0.6484  1.0969
   54c3c     H1  799   0.985   1.408   2.238  1.5985 -2.3253  1.1274
   54c3c     H1  800   1.014   1.461   2.460  0.6302 -0.1929  0.9627
   54c3c     H1  801   0.850   1.473   2.482  0.4763 -0.2920 -0.1033
   54c3c     C2  802   0.955   1.358   2.634 -0.7581  0.4408 -0.4425
   54c3c     HC  803   1.040   1.290   2.635 -1.5726 -0.5952  2.0245
   54c3c     HC  804   0.870   1.296   2.664  0.0672  0.5053  2.1491
   54c3c     CT  805   0.957   1.474   2.732  0.1748 -0.3100 -0.1302
   54c3c     HC  806   1.050   1.530   2.728  1.1994 -2.0353 -1.4397
   54c3c     HC  807   0.945   1.430   2.831  1.1834 -2.0336 -0.7397
   54c3c     HC  808   0.885   1.552   2.708 -0.4933 -1.2817 -1.4050
   55c3c     N4  809   0.803   1.330   0.976  0.0081 -0.0438  0.1261
   55c3c     C1  810   0.900   1.435   0.950  0.3641 -0.1497  0.4297
   55c3c     C1  811   0.738   1.376   1.100  0.2227 -0.2345 -0.4548
   55c3c     C2  812   0.829   1.567   0.987 -0.6656 -0.4769  0.7106
   55c3c     C2  813   0.731   1.528   1.097  0.2106  0.8398 -0.8651
   55c3c     C1  814   0.698   1.323   0.871 -0.4611  0.6110  0.0758
   55c3c     C1  815   0.855   1.196   0.992 -0.7094  0.1965 -0.6126
   55c3c     H1  816   0.930   1.440   0.846  1.4214 -2.5634  0.5590
   55c3c     H1  817   0.987   1.431   1.016  0.7248  1.9391  0.0956
   55c3c     H1  818   0.643   1.324   1.097  0.6938 -1.1139 -0.4245
   55c3c     H1  819   0.795   1.344   1.188  1.4704 -0.8460 -1.4628
   55c3c     HC  820   0.780   1.606   0.898  1.0919 -0.8382 -0.4549
   55c3c     HC  821   0.901   1.645   1.013 -0.9768  0.2106 -0.4233
   55c3c     HC  822   0.639   1.578   1.065  0.2382  0.4183 -1.6292
   55c3c     HC  823   0.761   1.570   1.193 -0.2819  0.6639 -0.6318
   55c3c     H1  824   0.633   1.410   0.866 -3.2782 -1.4006  0.5977
   55c3c     H1  825   0.740   1.299   0.773 -0.4346 -0.6934  0.4074
   55c3c     H1  826   0.633   1.237   0.887  1.1024 -0.4359  0.9392
   55c3c     H1  827   0.772   1.126   0.996  1.5093 -2.5227 -0.8139
   55c3c     H1  828   0.917   1.177   0.904  0.8023 -1.6828  0.8124
   55c3c     C2  829   0.949   1.155   1.114 -0.4129 -0.0717 -0.1684
   55c3c     HC  830   0.903   1.147   1.213  1.8405 -0.5182  0.8883
   55c3c     HC  831   1.032   1.224   1.126  0.1716 -0.8539  0.3173
   55c3c     CT  832   1.001   1.017   1.088 -0.2690 -0.5626 -0.3765
   55c3c     HC  833   1.032   1.005   0.984  0.2487 -3.4592  0.0745
   55c3c     HC  834   0.927   0.940   1.108  0.0272 -1.0344 -1.0776
   55c3c     HC  835   1.092   1.002   1.147 -0.5797 -0.1807  0.2095
   56c3c     N4  836   1.295   2.086   2.152  0.3042  0.6593  0.4903
   56c3c     C1  837   1.218   2.034   2.270 -0.3586  0.1506 -0.0146
   56c3c     C1  838   1.359   2.204   2.207  0.3005  0.9065 -0.3720
   56c3c     C2  839   1.308   2.062   2.391 -0.0767  0.4466  0.0078
   56c3c     C2  840   1.407   2.168   2.346 -0.6099 -0.2084  0.3314
   56c3c     C1  841   1.408   2.001   2.101 -0.3510  0.4083 -0.0204
   56c3c     C1  842   1.216   2.114   2.029  0.0580  0.3583  0.0425
   56c3c     H1  843   1.194   1.930   2.250  0.6759  0.3461 -2.4057
   56c3c     H1  844   1.122   2.075   2.302  1.2893  2.6376  2.0232
   56c3c     H1  845   1.434   2.247   2.141  0.1629  0.8148 -0.5917
   56c3c     H1  846   1.281   2.280   2.216  0.6994  1.1517  1.0452
   56c3c     HC  847   1.345   1.966   2.426  2.2745  1.0697 -0.6515
   56c3c     HC  848   1.249   2.095   2.477 -0.5652  0.9262 -0.5092
   56c3c     HC  849   1.507   2.123   2.340 -0.6232 -0.0975 -1.0650
   56c3c     HC  850   1.408   2.251   2.416  0.6729  0.6708 -0.7056
   56c3c     H1  851   1.476   1.978   2.183 -0.1754  1.5067  0.1487
   56c3c     H1  852   1.377   1.907   2.055  0.2035  0.3407 -0.2595
   56c3c     H1  853   1.461   2.054   2.022 -0.2612 -0.5306 -0.5880
   56c3c     H1  854   1.279   2.158   1.952  1.2881 -1.3430  0.0437
   56c3c     H1  855   1.173   2.017   2.005  1.0157  0.2346 -1.1968
   56c3c     C2  856   1.091   2.200   2.042  0.1613  0.0768  0.3749
   56c3c     HC  857   1.113   2.301   2.076 -0.1739  0.1672  0.3177
   56c3c     HC  858   1.022   2.169   2.120  0.9559  2.3687  2.0495
   56c3c     CT  859   1.013   2.218   1.910 -0.4582 -0.3025  0.1174
   56c3c     HC  860   1.032   2.128   1.851 -0.1984  0.4818 -1.0222
   56c3c     HC  861   1.045   2.302   1.848 -2.3974  1.4477  1.4431
   56c3c     HC  862   0.908   2.239   1.930 -0.1030  1.1205  0.5502
   57c3c     N4  863   2.317   2.167   0.776 -0.5491 -0.1701  0.1053
   57c3c     C1  864   2.431   2.066   0.797  0.5842  0.2341 -0.4348
   57c3c     C1  865   2.377   2.295   0.793 -0.1126 -0.0729  0.4455
   57c3c     C2  866   2.570   2.140   0.779  0.3913  1.1948 -0.6247
   57c3c     C2  867   2.522   2.284   0.735 -0.3917  0.3269  0.4265
   57c3c     C1  868   2.260   2.170   0.641  0.1889  0.5234  0.2633
   57c3c     C1  869   2.215   2.133   0.876 -0.1502  0.3512  0.3977
   57c3c     H1  870   2.419   1.980   0.732 -0.5168  0.3128 -0.3472
   57c3c     H1  871   2.426   2.028   0.899  0.3997 -0.1507 -0.5890
   57c3c     H1  872   2.328   2.377   0.742 -0.5712  0.0399  1.0653
   57c3c     H1  873   2.384   2.328   0.896  0.2616  0.1894  0.3380
   57c3c     HC  874   2.641   2.090   0.713 -0.5431 -0.4323 -0.4454
   57c3c     HC  875   2.624   2.150   0.873  0.6924  0.1256 -0.6721
   57c3c     HC  876   2.521   2.292   0.627  1.1581  1.6108  0.4852
   57c3c     HC  877   2.587   2.365   0.770 -2.6815  2.3346  0.1448
   57c3c     H1  878   2.212   2.075   0.619  1.1404  0.1654 -0.2834
   57c3c     H1  879   2.180   2.243   0.623  0.8981  1.2711  0.0843
   57c3c     H1  880   2.333   2.183   0.561 -1.5297 -0.1795 -1.4442
   57c3c     H1  881   2.258   2.155   0.974  2.0734  0.3989 -0.5533
   57c3c     H1  882   2.130   2.201   0.872  1.2920  2.1690 -0.2876
   57c3c     C2  883   2.157   1.990   0.870 -0.1488  0.5777 -0.4803
   57c3c     HC  884   2.230   1.910   0.859 -0.9513 -0.3202  0.5572
   57c3c     HC  885   2.087   1.984   0.786  0.9287 -1.5306 -1.2861
   57c3c     CT  886   2.064   1.964   0.989  0.2710 -0.0295 -0.5087
   57c3c     HC  887   1.990   2.044   0.992  0.6395  0.3120 -0.4631
   57c3c     HC  888   2.112   1.960   1.086 -1.4616  2.0863  0.4966
   57c3c     HC  889   2.028   1.862   0.977 -1.3417  0.6923 -2.0482
   58c3c     N4  890   2.348   0.912   2.822  0.0503 -0.0902  0.2697
   58c3c     C1  891   2.351   0.804   2.718 -0.2999  0.1848 -0.2760
   58c3c     C1  892   2.210   0.898   2.863  0.6169 -0.7258  0.1836
   58c3c     C2  893   2.269   0.683   2.776  0.3321 -0.1364  0.0734
   58c3c     C2  894   2.174   0.749   2.881  1.0711 -0.9392 -0.1855
   58c3c     C1  895   2.439   0.875   2.927  0.4812 -0.2170 -0.0130
   58c3c     C1  896   2.376   1.052   2.781 -0.1625 -0.6588 -0.4260
   58c3c     H1  897   2.451   0.782   2.680 -0.5866  0.7775 -1.4108
   58c3c     H1  898   2.295   0.833   2.629  0.9239  0.2921 -1.0250
   58c3c     H1  899   2.196   0.962   2.950  0.9474 -0.0791 -0.2334
   58c3c     H1  900   2.135   0.930   2.790  0.7640 -0.2205  0.2527
   58c3c     HC  901   2.326   0.598   2.814  0.1880 -0.4553 -0.4179
   58c3c     HC  902   2.214   0.641   2.692  1.9233  1.4518 -1.7877
   58c3c     HC  903   2.203   0.722   2.982 -1.7231  1.6528  1.3711
   58c3c     HC  904   2.070   0.736   2.853  0.7817  1.0556 -0.1081
   58c3c     H1  905   2.431   0.932   3.019  0.0238 -0.1671 -0.0825
   58c3c     H1  906   2.419   0.773   2.960  0.4441  0.1501  1.1306
   58c3c     H1  907   2.540   0.877   2.884  0.4322  0.6260 -0.0890
   58c3c     H1  908   2.359   1.110   2.872 -2.5073 -0.8312 -0.7260
   58c3c     H1  909   2.480   1.054   2.749 -0.2166  0.1896 -0.5691
   58c3c     C2  910   2.286   1.125   2.681  0.1362  0.4068  0.9027
   58c3c     HC  911   2.184   1.119   2.721  0.0974 -0.6816  0.6620
   58c3c     HC  912   2.294   1.086   2.579  1.3344  0.0235  1.1344
   58c3c     CT  913   2.310   1.274   2.683  0.4434 -0.5186  0.5677
   58c3c     HC  914   2.292   1.307   2.785 -0.8595  0.5460  0.0020
   58c3c     HC  915   2.253   1.325   2.605 -0.0243 -0.5470  0.8911
   58c3c     HC  916   2.414   1.301   2.662  0.3304  0.2874  1.0247
   59c3c     N4  917   2.243   2.190   1.561 -0.2696  0.3874 -0.2671
   59c3c     C1  918   2.154   2.134   1.456 -0.5438  0.3303 -0.9833
   59c3c     C1  919   2.298   2.080   1.636  0.5105 -0.6182  0.7627
   59c3c     C2  920   2.227   2.001   1.415  0.6399 -0.3813  0.2828
   59c3c     C2  921   2.324   1.966   1.534  0.3166 -0.2452 -0.0303
   59c3c     C1  922   2.353   2.257   1.485 -0.2304 -0.4461  0.1997
   59c3c     C1  923   2.182   2.289   1.648  0.5794 -0.2076  0.2569
   59c3c     H1  924   2.128   2.197   1.372 -1.8925 -0.2353 -0.9939
   59c3c     H1  925   2.060   2.096   1.497 -0.0554 -1.0673 -1.1348
   59c3c     H1  926   2.390   2.106   1.689  1.3592  0.0062 -0.9827
   59c3c     H1  927   2.224   2.037   1.704  1.3775 -2.2234  0.7104
   59c3c     HC  928   2.281   2.016   1.322  1.6944 -0.4465  0.8804
   59c3c     HC  929   2.158   1.919   1.394  0.2178  0.0577 -0.0676
   59c3c     HC  930   2.424   1.968   1.491  0.2442  1.2014 -0.1820
   59c3c     HC  931   2.305   1.864   1.566  0.1043 -0.7289 -1.6687
   59c3c     H1  932   2.306   2.333   1.423 -1.1900 -2.0693 -1.1116
   59c3c     H1  933   2.426   2.312   1.545  1.5722 -2.8203  0.2882
   59c3c     H1  934   2.407   2.193   1.416  1.1006  0.6443  0.2048
   59c3c     H1  935   2.251   2.315   1.728 -1.3616 -1.2674  2.3506
   59c3c     H1  936   2.162   2.381   1.593  0.6937  0.0912  0.7148
   59c3c     C2  937   2.051   2.243   1.721  0.5105 -0.6064  0.5666
   59c3c     HC  938   2.062   2.149   1.775 -0.2850 -1.1459 -0.1970
   59c3c     HC  939   1.980   2.228   1.640  1.3975  0.2458 -0.3794
   59c3c     CT  940   1.989   2.350   1.815  0.2143  0.0040 -0.2686
   59c3c     HC  941   1.967   2.440   1.758 -1.1455 -2.1300 -3.2074
   59c3c     HC  942   2.051   2.382   1.899  0.6843  1.1556 -1.0350
   59c3c     HC  943   1.894   2.314   1.854  1.5511 -3.1119  0.2142
   60c3c     N4  944   1.832   0.000   2.021 -0.2517  0.2172  0.3885
   60c3c     C1  945   1.853  -0.050   2.157  0.0720  0.5940  0.1940
   60c3c     C1  946   1.700  -0.048   1.982 -0.3865  0.0543 -0.1321
   60c3c     C2  947   1.730  -0.139   2.197 -0.2084  0.4242 -0.2194
   60c3c     C2  948   1.623  -0.080   2.108 -0.2897 -0.0483  0.2292
   60c3c     C1  949   1.812   0.146   2.020  0.0865 -0.0807 -0.3682
   60c3c     C1  950   1.944  -0.021   1.919 -0.0504  0.0995  0.2550
   60c3c     H1  951   1.858   0.030   2.230  1.3430 -0.2415  1.0557
   60c3c     H1  952   1.950  -0.101   2.159  0.3399  1.1381  2.0836
   60c3c     H1  953   1.644   0.013   1.911  0.7102 -0.6815 -1.6536
   60c3c     H1  954   1.715  -0.142   1.928 -0.8011  0.2026 -0.5035
   60c3c     HC  955   1.705  -0.125   2.302  1.0321 -1.6667  0.3901
   60c3c     HC  956   1.746  -0.245   2.176  2.2296  1.0740 -1.8934
   60c3c     HC  957   1.596   0.015   2.152 -2.3016  0.6849 -2.4432
   60c3c     HC  958   1.535  -0.141   2.087 -0.4078  0.5549 -1.0951
   60c3c     H1  959   1.904   0.201   2.039  0.4405  0.1537 -2.6929
   60c3c     H1  960   1.772   0.175   1.923  0.5976  0.1113 -0.5218
   60c3c     H1  961   1.742   0.187   2.093 -0.6036  0.4646 -1.3314
   60c3c     H1  962   1.896   0.008   1.826  2.8278  0.3360 -1.2079
   60c3c     H1  963   2.028   0.046   1.935  0.5897 -1.2714  2.9225
   60c3c     C2  964   2.005  -0.165   1.921  0.2990  0.5339 -0.7949
   60c3c     HC  965   1.927  -0.241   1.910  0.2299  0.6845 -1.4046
   60c3c     HC  966   2.056  -0.195   2.012 -0.8393 -1.7563 -0.8586
   60c3c     CT  967   2.106  -0.184   1.809 -0.6225  0.1843 -0.1814
   60c3c     HC  968   2.196  -0.127   1.833  1.4148 -2.8515 -0.3771
   60c3c     HC  969   2.071  -0.147   1.713 -1.7507 -1.7054 -0.5294
   60c3c     HC  970   2.136  -0.288   1.814  0.5401  0.4516 -1.3113
   61c3c     N4  971   1.376   2.064   0.937  0.6195  0.2383  0.2100
   61c3c     C1  972   1.358   2.038   1.080 -0.6244  0.6410 -0.2089
   61c3c     C1  973   1.275   1.974   0.881  0.4597 -0.2502 -0.2897
   61c3c     C2  974   1.208   2.020   1.104 -0.9419 -0.0365  0.4880
   61c3c     C2  975   1.151   1.966   0.971  0.0394 -0.2757 -0.6822
   61c3c     C1  976   1.323   2.203   0.906 -0.0896  0.1429 -0.4301
   61c3c     C1  977   1.515   2.060   0.891 -0.6290 -0.1667  0.4403
   61c3c     H1  978   1.400   2.121   1.138 -1.2407 -0.5445  2.0064
   61c3c     H1  979   1.399   1.945   1.119 -1.1726 -0.0932 -1.3556
   61c3c     H1  980   1.242   2.002   0.781  0.4423  0.7407 -0.0162
   61c3c     H1  981   1.307   1.870   0.885 -0.9175 -0.6557  0.6718
   61c3c     HC  982   1.161   2.111   1.140  0.6310  0.0878  2.3369
   61c3c     HC  983   1.195   1.936   1.172  0.4770 -0.5575  0.1409
   61c3c     HC  984   1.065   2.026   0.942  0.8859  0.9118 -0.7707
   61c3c     HC  985   1.115   1.863   0.971 -1.4357  0.2324 -1.1914
   61c3c     H1  986   1.355   2.238   0.808 -1.1615 -0.5110 -1.0127
   61c3c     H1  987   1.215   2.207   0.917  0.3324  2.3845  4.0154
   61c3c     H1  988   1.362   2.274   0.979  1.9977  0.6400 -1.9710
   61c3c     H1  989   1.505   2.067   0.783  0.5271  1.2129  0.4064
   61c3c     H1  990   1.573   2.150   0.914  0.7608 -0.0746 -3.0352
   61c3c     C2  991   1.595   1.935   0.924  0.2628  0.1910  0.0694
   61c3c     HC  992   1.544   1.846   0.887 -0.3535  0.3261  0.5750
   61c3c     HC  993   1.616   1.927   1.031 -0.0841  1.5673  0.2572
   61c3c     CT  994   1.734   1.928   0.863 -0.2944 -0.9479  0.8852
   61c3c     HC  995   1.800   2.012   0.883 -1.0640  0.1746 -1.1831
   61c3c     HC  996   1.731   1.897   0.759 -3.2947 -2.0404  1.2452
   61c3c     HC  997   1.777   1.837   0.906 -2.9592 -3.2887 -1.1310
   62c3c     N4  998   0.071   0.682   0.602 -0.0295 -0.0652 -0.6895
   62c3c     C1  999   0.196   0.712   0.677 -0.1908 -1.0777 -0.8021
   62c3c     C1 1000   0.111   0.578   0.510  0.1701  0.4312  0.0386
   62c3c     C2 1001   0.245   0.574   0.718  0.4215 -0.2020 -0.5066
   62c3c     C2 1002   0.187   0.475   0.604 -0.5403 -0.0759 -0.0100
   62c3c     C1 1003  -0.038   0.636   0.690  0.1621 -0.0835  0.2244
   62c3c     C1 1004   0.026   0.804   0.521  0.0019  0.3721  0.2057
   62c3c     H1 1005   0.174   0.774   0.764  1.1123 -0.7076 -0.7192
   62c3c     H1 1006   0.271   0.763   0.616  0.6055 -0.9054  0.2878
   62c3c     H1 1007   0.022   0.530   0.469  0.2959  1.1230 -1.0528
   62c3c     H1 1008   0.183   0.599   0.432 -1.7196  2.1928 -1.2831
   62c3c     HC 1009   0.210   0.539   0.816 -0.5733  0.0178 -0.7757
   62c3c     HC 1010   0.353   0.567   0.720  0.3257 -1.9602  1.3382
   62c3c     HC 1011   0.126   0.396   0.650 -0.3931 -0.1487  0.0598
   62c3c     HC 1012   0.268   0.419   0.559  0.1273 -1.1758  2.4600
   62c3c     H1 1013  -0.022   0.544   0.746 -0.8282 -1.0733 -1.0800
   62c3c     H1 1014  -0.070   0.715   0.757 -1.0273 -0.2329 -0.1479
   62c3c     H1 1015  -0.123   0.617   0.624 -1.0718  1.4656  1.3472
   62c3c     H1 1016  -0.061   0.775   0.462  0.0754 -0.1570  0.3539
   62c3c     H1 1017  -0.003   0.877   0.597  0.7066  1.5430 -0.6288
   62c3c     C2 1018   0.134   0.888   0.440 -0.3854 -0.2814  0.4184
   62c3c     HC 1019   0.200   0.816   0.392 -1.9989 -1.7697  0.3620
   62c3c     HC 1020   0.198   0.941   0.511 -0.4281  0.2858  0.0376
   62c3c     CT 1021   0.092   1.004   0.348  0.4626 -0.5309  0.0111
   62c3c     HC 1022   0.181   1.042   0.298  0.8954  0.0937  1.2556
   62c3c     HC 1023   0.052   1.087   0.406  1.5870 -0.2463  0.3899
   62c3c     HC 1024   0.018   0.958   0.282  1.3185 -2.0961  0.1074
   63c3c     N4 1025   1.049   2.648   2.842 -0.7682 -0.0745  0.2426
   63c3c     C1 1026   0.982   2.674   2.968  0.2909  0.5804  0.5664
   63c3c     C1 1027   0.986   2.536   2.782  0.1165 -0.2439 -1.0322
   63c3c     C2 1028   0.835   2.652   2.932  0.6132 -0.0798 -0.0275
   63c3c     C2 1029   0.838   2.559   2.808  0.1101  0.0914  0.0892
   63c3c     C1 1030   1.038   2.766   2.751  0.1490  0.5382 -0.1545
   63c3c     C1 1031   1.197   2.629   2.865 -0.2091  0.1608 -0.4517
   63c3c     H1 1032   1.000   2.775   3.005  0.0826  1.0205 -0.4989
   63c3c     H1 1033   1.003   2.605   3.050  0.5443  0.7893  0.6786
   63c3c     H1 1034   1.012   2.525   2.677  0.6361 -0.4799 -0.8841
   63c3c     H1 1035   1.012   2.442   2.832  0.5002 -0.6220 -1.9355
   63c3c     HC 1036   0.779   2.743   2.908  0.3830 -0.1732  0.1535
   63c3c     HC 1037   0.791   2.609   3.022 -2.1655 -0.3422 -1.4599
   63c3c     HC 1038   0.787   2.608   2.725  1.6993  0.4618 -0.6969
   63c3c     HC 1039   0.788   2.464   2.827 -1.4448  0.5175 -1.7159
   63c3c     H1 1040   1.087   2.747   2.655 -0.1851 -2.0871  0.1800
   63c3c     H1 1041   0.934   2.797   2.739 -0.1415 -0.1142  0.6932
   63c3c     H1 1042   1.089   2.857   2.783 -1.9607  2.4196 -1.9038
   63c3c     H1 1043   1.237   2.595   2.769 -0.0276 -0.2774 -0.2237
   63c3c     H1 1044   1.242   2.725   2.891 -0.5126  0.1723  0.0312
   63c3c     C2 1045   1.242   2.531   2.972 -0.2948  0.6501  0.2092
   63c3c     HC 1046   1.207   2.429   2.956  1.0747  0.4358 -1.6660
   63c3c     HC 1047   1.195   2.556   3.067  0.4102  1.3138  0.3907
   63c3c     CT 1048   1.393   2.517   2.979 -0.2845  0.5621  0.4623
   63c3c     HC 1049   1.442   2.554   2.889 -0.2311  0.2747  0.3725
   63c3c     HC 1050   1.430   2.417   3.005 -1.4410  1.2023  5.0803
   63c3c     HC 1051   1.428   2.587   3.055  1.6639  0.5140 -0.3711
   64c3c     N4 1052   0.731   2.126   2.522  0.0139 -0.4790 -0.3046
   64c3c     C1 1053   0.614   2.079   2.598  0.6163 -0.3268 -0.6029
   64c3c     C1 1054   0.682   2.142   2.380 -0.1736  0.6529 -0.2547
   64c3c     C2 1055   0.501   2.161   2.538  0.4828  0.0896 -0.3052
   64c3c     C2 1056   0.536   2.191   2.391 -0.0094  0.6631 -0.3757
   64c3c     C1 1057   0.781   2.256   2.566 -0.2655 -0.2029  0.5449
   64c3c     C1 1058   0.838   2.025   2.543  0.1073  0.3885 -0.0346
   64c3c     H1 1059   0.615   2.094   2.706  3.0729 -0.2754 -0.6206
   64c3c     H1 1060   0.581   1.977   2.579  0.8318 -0.3193 -1.0121
   64c3c     H1 1061   0.750   2.205   2.322 -0.5235  0.9255 -0.3718
   64c3c     H1 1062   0.686   2.050   2.323  0.7288  0.9540 -0.6869
   64c3c     HC 1063   0.475   2.255   2.586 -3.6701  0.2634 -2.6442
   64c3c     HC 1064   0.410   2.101   2.541  0.6677 -0.1674  0.2006
   64c3c     HC 1065   0.523   2.298   2.373 -2.3773  0.6768  1.1148
   64c3c     HC 1066   0.463   2.139   2.328  0.0539  0.6611 -0.4471
   64c3c     H1 1067   0.870   2.289   2.513 -0.5903  0.0616  0.1702
   64c3c     H1 1068   0.703   2.331   2.554 -1.9355 -1.8203  1.0237
   64c3c     H1 1069   0.802   2.262   2.673  2.7315 -3.9976  0.2656
   64c3c     H1 1070   0.930   2.059   2.495  0.0053 -1.4214 -1.5670
   64c3c     H1 1071   0.869   2.018   2.648 -2.7704 -1.0155  0.7683
   64c3c     C2 1072   0.805   1.876   2.507  0.3072  0.1240 -0.0314
   64c3c     HC 1073   0.766   1.875   2.405  1.9154  0.8846 -0.6723
   64c3c     HC 1074   0.733   1.825   2.571  0.0769 -0.9140 -1.0944
   64c3c     CT 1075   0.941   1.802   2.502  0.1614  0.4005 -0.5805
   64c3c     HC 1076   0.975   1.781   2.603  0.5207 -0.9238 -0.9665
   64c3c     HC 1077   1.020   1.851   2.445  0.7193 -0.7973 -0.8537
   64c3c     HC 1078   0.927   1.701   2.465  0.8004  0.1310 -0.0972
   65c3c     N4 1079   1.256   0.950   0.601  0.7217 -0.1141 -0.7499
   65c3c     C1 1080   1.264   1.000   0.740  0.4396  0.3802 -0.7710
   65c3c     C1 1081   1.220   1.059   0.521 -0.0567 -0.3860  0.1582
   65c3c     C2 1082   1.322   1.139   0.732  0.0001  0.2336 -0.1263
   65c3c     C2 1083   1.287   1.174   0.586  0.2383 -0.2674  0.3649
   65c3c     C1 1084   1.387   0.900   0.560  0.6924  0.3419  0.3047
   65c3c     C1 1085   1.167   0.833   0.593  0.0444  0.2411  0.0931
   65c3c     H1 1086   1.325   0.948   0.813  0.0111  0.1125 -0.6004
   65c3c     H1 1087   1.166   1.000   0.788  0.6336 -1.2458 -0.3445
   65c3c     H1 1088   1.246   1.061   0.415 -1.0887  1.1572 -0.0947
   65c3c     H1 1089   1.112   1.072   0.523 -0.2153 -1.8383  1.1314
   65c3c     HC 1090   1.431   1.142   0.738  0.0334 -1.6542  0.7189
   65c3c     HC 1091   1.278   1.213   0.799 -1.3714 -0.3442 -0.3770
   65c3c     HC 1092   1.380   1.204   0.539  1.7963  1.4549  4.3016
   65c3c     HC 1093   1.223   1.261   0.578  0.3695 -0.1399  0.6788
   65c3c     H1 1094   1.424   0.827   0.631  1.0455  0.3801  0.1623
   65c3c     H1 1095   1.385   0.865   0.456 -1.8595  0.9862  0.1078
   65c3c     H1 1096   1.468   0.972   0.554  1.2993 -0.2356  1.5547
   65c3c     H1 1097   1.175   0.792   0.493 -0.3387  1.4418 -0.4339
   65c3c     H1 1098   1.209   0.754   0.656  2.3437  0.0603 -1.6136
   65c3c     C2 1099   1.016   0.844   0.620  0.7366 -0.5088  0.4476
   65c3c     HC 1100   0.970   0.907   0.544 -2.0472 -1.2218  1.5206
   65c3c     HC 1101   0.993   0.895   0.713  0.0946  0.5332 -0.2774
   65c3c     CT 1102   0.939   0.709   0.630  0.6290  0.0809  0.0695
   65c3c     HC 1103   0.834   0.710   0.660 -0.2593  0.8119 -2.9217
   65c3c     HC 1104   0.992   0.641   0.697  0.8480  0.5663  0.3939
   65c3c     HC 1105   0.949   0.659   0.534  1.9970  1.4134 -0.4911
   66c3c     N4 1106   1.181   0.210   0.792 -0.1387  0.6228 -0.4021
   66c3c     C1 1107   1.095   0.116   0.864 -0.1614  0.7009 -0.3030
   66c3c     C1 1108   1.219   0.144   0.666 -0.0061  0.0291  0.0422
   66c3c     C2 1109   1.028   0.027   0.760 -1.1174  0.0879 -0.2380
   66c3c     C2 1110   1.093   0.070   0.626 -0.3452  0.3090  0.1449
   66c3c     C1 1111   1.096   0.326   0.758 -0.8745  0.3242  0.6512
   66c3c     C1 1112   1.302   0.262   0.868  0.1016  0.7277 -0.2200
   66c3c     H1 1113   1.016   0.156   0.927 -0.6377 -2.4942  1.2102
   66c3c     H1 1114   1.161   0.050   0.920 -0.1421 -0.9417 -2.1979
   66c3c     H1 1115   1.245   0.216   0.589  2.0143  2.0825  2.5600
   66c3c     H1 1116   1.299   0.072   0.682 -0.8827 -0.9519  0.0485
   66c3c     HC 1117   0.920   0.030   0.747 -1.1828 -3.1727 -0.9621
   66c3c     HC 1118   1.043  -0.079   0.781 -0.4620 -0.3870 -2.9374
   66c3c     HC 1119   1.021   0.132   0.573 -0.6429  0.4177  0.6691
   66c3c     HC 1120   1.116  -0.010   0.555 -0.0516  0.9087 -0.4360
   66c3c     H1 1121   1.053   0.371   0.847 -0.5354  0.8516  0.5517
   66c3c     H1 1122   1.156   0.400   0.705  0.3215  1.9118  4.1254
   66c3c     H1 1123   1.012   0.306   0.692  1.6058  1.3131 -2.9913
   66c3c     H1 1124   1.362   0.321   0.799  0.3938  0.9004  0.1814
   66c3c     H1 1125   1.263   0.334   0.940  1.6288  0.8295  0.5198
   66c3c     C2 1126   1.400   0.161   0.932 -0.9673  0.4141  0.1699
   66c3c     HC 1127   1.413   0.088   0.852 -1.5807  0.4460  0.0361
   66c3c     HC 1128   1.339   0.114   1.009 -2.2175 -0.0593 -1.0992
   66c3c     CT 1129   1.529   0.211   0.999 -0.0292  0.3381  0.2672
   66c3c     HC 1130   1.608   0.232   0.927  3.4039 -2.8584  2.8774
   66c3c     HC 1131   1.581   0.140   1.063 -0.9213  2.4486  3.4533
   66c3c     HC 1132   1.522   0.304   1.054 -1.3019  0.2952  0.2021
   67c3c     N4 1133   0.330   0.249   2.194  0.3491 -0.0538  0.2779
   67c3c     C1 1134   0.391   0.325   2.080  0.0772 -0.3567 -0.7908
   67c3c     C1 1135   0.193   0.221   2.150  0.1121 -0.2692  0.6328
   67c3c     C2 1136   0.274   0.414   2.033  0.2146  0.8913  0.5104
   67c3c     C2 1137   0.145   0.349   2.074  0.5901  0.7038  0.4626
   67c3c     C1 1138   0.413   0.128   2.223  0.2739  0.6355 -0.3608
   67c3c     C1 1139   0.324   0.336   2.309 -0.6354 -0.0156 -0.9697
   67c3c     H1 1140   0.410   0.251   2.002  1.0507 -0.1029 -0.8038
   67c3c     H1 1141   0.477   0.383   2.114 -1.0613  0.5181  0.6538
   67c3c     H1 1142   0.206   0.139   2.080 -1.1135  0.5641 -0.5855
   67c3c     H1 1143   0.126   0.192   2.231 -1.1860  0.2631 -0.2322
   67c3c     HC 1144   0.280   0.414   1.924  0.2850  2.4042  0.5086
   67c3c     HC 1145   0.278   0.516   2.071  1.4870  0.6043  1.1870
   67c3c     HC 1146   0.081   0.328   1.989 -0.9670  0.8706  1.5671
   67c3c     HC 1147   0.097   0.424   2.138 -1.6988  0.6034 -1.0668
   67c3c     H1 1148   0.514   0.159   2.250 -0.4255  1.2011  1.6656
   67c3c     H1 1149   0.369   0.065   2.300  0.8971 -1.3197 -1.5790
   67c3c     H1 1150   0.424   0.067   2.133  1.5201  0.9477 -0.4332
   67c3c     H1 1151   0.425   0.366   2.339 -0.3306 -1.3141 -0.6670
   67c3c     H1 1152   0.277   0.430   2.282 -3.1588 -0.5758  1.2882
   67c3c     C2 1153   0.243   0.287   2.434  0.5684 -0.2148  0.4911
   67c3c     HC 1154   0.263   0.187   2.471 -0.7199 -0.7453 -0.2133
   67c3c     HC 1155   0.137   0.283   2.412  0.5564  0.5194  0.3741
   67c3c     CT 1156   0.255   0.371   2.566 -0.2998 -0.7145 -0.3142
   67c3c     HC 1157   0.177   0.352   2.640 -0.4704 -0.0150 -0.3125
   67c3c     HC 1158   0.240   0.472   2.530 -0.6063 -0.3838  0.7269
   67c3c     HC 1159   0.347   0.349   2.621  0.3933  0.1270 -1.1190
   68c3c     N4 1160   0.907   0.410   2.547  0.2306 -0.0784  0.1944
   68c3c     C1 1161   0.787   0.351   2.605 -0.4795 -0.6236  0.0206
   68c3c     C1 1162   1.012   0.373   2.643  0.2477 -0.5010 -0.0204
   68c3c     C2 1163   0.827   0.214   2.663 -0.1097  0.4270 -0.0238
   68c3c     C2 1164   0.979   0.235   2.685  0.3173 -0.1068 -0.6829
   68c3c     C1 1165   0.939   0.360   2.409  0.2288 -0.3916 -0.2295
   68c3c     C1 1166   0.907   0.551   2.540 -0.7168  0.3558 -0.6555
   68c3c     H1 1167   0.708   0.343   2.531  0.0121 -2.2442 -0.3376
   68c3c     H1 1168   0.739   0.410   2.683  0.9976  0.5570  0.0706
   68c3c     H1 1169   1.111   0.369   2.597  1.9285 -0.2892  3.4089
   68c3c     H1 1170   1.019   0.434   2.733 -1.1769  0.7979 -0.7734
   68c3c     HC 1171   0.802   0.150   2.578  0.9358  1.9836 -1.5514
   68c3c     HC 1172   0.776   0.176   2.751 -2.2346  0.5039 -1.1852
   68c3c     HC 1173   1.039   0.176   2.615 -0.0456  0.0500 -1.1241
   68c3c     HC 1174   1.008   0.207   2.786  1.1900  0.5891 -0.7339
   68c3c     H1 1175   0.955   0.252   2.400  0.3863 -0.2846 -1.2957
   68c3c     H1 1176   0.864   0.379   2.333  0.7661 -1.0822 -0.9447
   68c3c     H1 1177   1.033   0.401   2.373  0.1964 -1.1880 -1.2283
   68c3c     H1 1178   0.997   0.593   2.496 -0.6119  0.5743 -0.2334
   68c3c     H1 1179   0.822   0.570   2.474 -3.6054 -1.9172  2.1879
   68c3c     C2 1180   0.881   0.639   2.673  0.4030  0.1750 -0.2491
   68c3c     HC 1181   0.971   0.655   2.733 -0.2734  2.3295  0.2368
   68c3c     HC 1182   0.815   0.596   2.748  0.7727 -1.8128 -1.0373
   68c3c     CT 1183   0.828   0.775   2.633 -0.3482  0.3743 -0.2665
   68c3c     HC 1184   0.818   0.843   2.719 -0.2516 -0.5303  0.4669
   68c3c     HC 1185   0.733   0.776   2.579 -0.3962  0.5723 -0.1814
   68c3c     HC 1186   0.900   0.826   2.570 -0.1394  1.2291  0.6369
   69c3c     N4 1187   1.554   2.560   1.424 -0.2744  0.3623  0.0922
   69c3c     C1 1188   1.629   2.670   1.487  1.0115  0.2542  0.4316
   69c3c     C1 1189   1.630   2.437   1.457 -0.0326  0.3570 -0.0258
   69c3c     C2 1190   1.677   2.606   1.614 -0.4663 -0.4725 -0.2344
   69c3c     C2 1191   1.659   2.450   1.608  0.0846  0.6398 -0.9719
   69c3c     C1 1192   1.419   2.551   1.476  0.1858 -0.5727 -0.0021
   69c3c     C1 1193   1.544   2.586   1.279 -0.6263 -0.0902 -0.2987
   69c3c     H1 1194   1.564   2.754   1.508  0.7176  0.6647 -1.9960
   69c3c     H1 1195   1.719   2.703   1.435 -0.5294  1.6169 -1.4404
   69c3c     H1 1196   1.585   2.342   1.428  0.2404 -0.0517  0.8827
   69c3c     H1 1197   1.730   2.434   1.413  0.6223  0.6669  1.3982
   69c3c     HC 1198   1.635   2.646   1.707  0.0937  0.7411 -0.4822
   69c3c     HC 1199   1.779   2.644   1.622  0.1329 -2.2311  0.6170
   69c3c     HC 1200   1.569   2.418   1.661  0.0108 -0.1727 -1.5726
   69c3c     HC 1201   1.745   2.387   1.629 -0.0725  0.7643  0.0593
   69c3c     H1 1202   1.409   2.543   1.585 -0.8066 -0.1781 -0.0531
   69c3c     H1 1203   1.362   2.641   1.451  0.5795  0.3813  2.3855
   69c3c     H1 1204   1.373   2.466   1.427 -2.0554 -0.1499  1.2785
   69c3c     H1 1205   1.480   2.509   1.235 -1.6398  1.2972 -1.3080
   69c3c     H1 1206   1.498   2.684   1.267  1.6373  0.8408 -1.7969
   69c3c     C2 1207   1.675   2.583   1.199  0.2608 -0.4337  0.2145
   69c3c     HC 1208   1.715   2.482   1.192 -0.4500 -0.7316  0.3578
   69c3c     HC 1209   1.752   2.644   1.246 -0.7819  0.5258  0.7160
   69c3c     CT 1210   1.660   2.639   1.056  0.2541 -0.1874 -0.3357
   69c3c     HC 1211   1.751   2.656   0.998 -0.2943 -1.4936 -1.6349
   69c3c     HC 1212   1.608   2.734   1.056  0.2136 -0.2037 -0.9531
   69c3c     HC 1213   1.595   2.570   1.001 -0.0244  0.3885 -0.7374
   70c3c     N4 1214   1.800   2.731   0.456 -0.0548 -0.0347 -0.2346
   70c3c     C1 1215   1.800   2.586   0.479 -1.1752  0.3387 -0.3107
   70c3c     C1 1216   1.910   2.745   0.364 -0.1342 -0.3498  0.2273
   70c3c     C2 1217   1.947   2.557   0.508 -0.0923  1.3124  0.2444
   70c3c     C2 1218   2.021   2.656   0.412  0.0052 -0.2946 -0.1018
   70c3c     C1 1219   1.672   2.771   0.389  0.2612  0.0433  0.0656
   70c3c     C1 1220   1.809   2.808   0.582  0.3521 -0.3519 -0.0612
   70c3c     H1 1221   1.760   2.530   0.394 -0.8196 -0.8845  0.3219
   70c3c     H1 1222   1.738   2.547   0.559 -1.5691  0.4675 -0.5462
   70c3c     H1 1223   1.881   2.702   0.269 -0.0577 -1.8348  0.8669
   70c3c     H1 1224   1.954   2.844   0.349  1.1549 -0.8307  0.7673
   70c3c     HC 1225   1.974   2.453   0.496 -3.7492 -0.1829  3.6996
   70c3c     HC 1226   1.967   2.578   0.614  1.1242 -0.8906  0.4585
   70c3c     HC 1227   2.075   2.602   0.334 -1.0412 -0.2151 -0.8777
   70c3c     HC 1228   2.099   2.715   0.461  0.3651 -0.3946 -0.5522
   70c3c     H1 1229   1.682   2.869   0.341 -1.4560  0.6543  0.9061
   70c3c     H1 1230   1.646   2.696   0.315  2.4726 -0.5541 -0.1273
   70c3c     H1 1231   1.585   2.780   0.454  1.3487  2.4555  1.2779
   70c3c     H1 1232   1.912   2.804   0.617  1.2062 -0.9093 -2.5367
   70c3c     H1 1233   1.798   2.910   0.545  1.9578 -0.6936 -1.5438
   70c3c     C2 1234   1.713   2.777   0.701  0.4965  0.1740  0.3547
   70c3c     HC 1235   1.745   2.682   0.742 -1.3760 -0.4869  0.3256
   70c3c     HC 1236   1.610   2.762   0.669  0.3731  0.4509  0.6175
   70c3c     CT 1237   1.711   2.894   0.795  0.3081  0.5745 -0.4741
   70c3c     HC 1238   1.654   2.872   0.885  1.1924 -1.5641 -0.3933
   70c3c     HC 1239   1.671   2.977   0.737 -0.1952 -1.0240 -2.4983
   70c3c     HC 1240   1.806   2.937   0.825  0.9350  0.9378 -2.8723
   71c3c     N4 1241   0.925   2.704   1.665 -0.2626  0.2134 -0.1041
   71c3c     C1 1242   0.792   2.719   1.729 -0.4929 -0.1476 -0.3100
   71c3c     C1 1243   0.922   2.565   1.628 -0.7805  0.5365 -0.1073
   71c3c     C2 1244   0.685   2.631   1.669 -0.8050 -0.6476  0.1955
   71c3c     C2 1245   0.777   2.537   1.584 -0.1422  0.4361 -0.1488
   71c3c     C1 1246   0.933   2.784   1.540 -0.3433  0.5358  0.5815
   71c3c     C1 1247   1.042   2.744   1.748  0.1208  0.5298  0.0471
   71c3c     H1 1248   0.769   2.826   1.729  1.3055  0.2686  1.1184
   71c3c     H1 1249   0.809   2.689   1.832 -1.8447  2.7696  0.8193
   71c3c     H1 1250   1.006   2.535   1.566  0.3920  0.6148  1.3917
   71c3c     H1 1251   0.932   2.495   1.712 -0.8626 -1.1369 -1.4649
   71c3c     HC 1252   0.617   2.691   1.608 -1.9401 -0.9365  1.1589
   71c3c     HC 1253   0.620   2.581   1.740  0.4656 -0.0357  1.8038
   71c3c     HC 1254   0.761   2.552   1.477  1.0287 -2.0020 -0.6997
   71c3c     HC 1255   0.741   2.438   1.612  1.2036 -0.0179  0.0264
   71c3c     H1 1256   0.922   2.890   1.562 -0.0821  1.2682 -2.6275
   71c3c     H1 1257   1.029   2.766   1.492 -2.1177 -1.6540 -2.3209
   71c3c     H1 1258   0.849   2.763   1.474 -1.2923  1.4782  1.4716
   71c3c     H1 1259   1.130   2.740   1.685  0.3639 -3.1079  0.4701
   71c3c     H1 1260   1.032   2.849   1.772  1.3293  0.6272  0.1349
   71c3c     C2 1261   1.087   2.664   1.868 -0.3053 -0.7216 -0.3600
   71c3c     HC 1262   1.138   2.576   1.829  0.0924 -0.3267 -0.7288
   71c3c     HC 1263   0.993   2.633   1.915 -0.7086 -1.3493 -1.5522
   71c3c     CT 1264   1.180   2.745   1.958  0.4426 -0.1768  0.5612
   71c3c     HC 1265   1.131   2.838   1.986 -3.7276 -2.0282 -0.2997
   71c3c     HC 1266   1.286   2.760   1.937  0.8773 -0.4144  2.4954
   71c3c     HC 1267   1.191   2.681   2.046  1.1536 -1.0581 -0.1617
   72c3c     N4 1268   2.643   1.753   2.791 -0.1483  0.1417  0.1722
   72c3c     C1 1269   2.757   1.658   2.813 -0.2686 -0.3872 -0.5123
   72c3c     C1 1270   2.561   1.727   2.913  0.5454 -0.0101 -0.1143
   72c3c     C2 1271   2.792   1.661   2.962  0.1218  0.5354 -0.0773
   72c3c     C2 1272   2.664   1.707   3.024 -0.3511 -0.0854  0.1205
   72c3c     C1 1273   2.695   1.890   2.800 -0.6822 -0.9065  0.0176
   72c3c     C1 1274   2.569   1.728   2.664  0.1335 -0.2100 -0.4839
   72c3c     H1 1275   2.844   1.678   2.751 -1.8339  3.3897 -1.6278
   72c3c     H1 1276   2.728   1.553   2.800  1.9640 -0.7114 -3.2957
   72c3c     H1 1277   2.481   1.799   2.933 -2.2611 -2.5557 -1.7070
   72c3c     H1 1278   2.509   1.631   2.908  1.1044 -0.2345 -1.7908
   72c3c     HC 1279   2.874   1.729   2.988 -0.6138  1.1770  0.5590
   72c3c     HC 1280   2.826   1.568   3.007  0.2773  1.1102  1.0120
   72c3c     HC 1281   2.699   1.792   3.082  0.2556 -0.4051  0.2238
   72c3c     HC 1282   2.624   1.637   3.098  0.0308  0.9224  1.3049
   72c3c     H1 1283   2.734   1.924   2.896  0.5599  0.4105 -0.9318
   72c3c     H1 1284   2.773   1.900   2.724 -1.2496 -0.9740 -0.5764
   72c3c     H1 1285   2.621   1.967   2.777 -1.6117 -2.1120 -1.0938
   72c3c     H1 1286   2.479   1.789   2.666  0.7771  0.7555  2.8486
   72c3c     H1 1287   2.633   1.762   2.583 -0.4336  0.0012 -0.8501
   72c3c     C2 1288   2.535   1.580   2.637 -0.3775  0.1383  0.2802
   72c3c     HC 1289   2.480   1.532   2.718 -1.0795 -0.1050 -0.3350
   72c3c     HC 1290   2.627   1.523   2.622 -0.6706 -0.7250  1.6822
   72c3c     CT 1291   2.446   1.554   2.518 -0.4128 -0.5123 -0.9057
   72c3c     HC 1292   2.438   1.446   2.505  1.1551 -0.8703  0.9483
   72c3c     HC 1293   2.480   1.597   2.424  1.2667 -0.1998 -0.1790
   72c3c     HC 1294   2.345   1.584   2.546 -0.2787  0.1781 -1.1665
   73c3c     N4 1295   1.913   2.150   2.621  0.1352  0.2224  0.5590
   73c3c     C1 1296   1.894   2.106   2.764 -0.1930  0.5641 -0.0876
   73c3c     C1 1297   2.033   2.069   2.585  1.0718  0.3997 -0.6639
   73c3c     C2 1298   1.923   1.957   2.775 -0.0124  0.3218  0.4448
   73c3c     C2 1299   2.020   1.937   2.663  0.8999 -0.2481  0.7330
   73c3c     C1 1300   1.798   2.099   2.542 -0.4744  0.4693 -0.5298
   73c3c     C1 1301   1.937   2.294   2.612  0.6164  0.0242 -0.5845
   73c3c     H1 1302   1.800   2.134   2.812  0.4435  1.7470  0.4735
   73c3c     H1 1303   1.968   2.157   2.825 -1.4852  1.0615  1.1032
   73c3c     H1 1304   2.051   2.046   2.481 -1.4341  2.1526 -1.5380
   73c3c     H1 1305   2.127   2.110   2.625  1.3335  0.7389 -1.6237
   73c3c     HC 1306   1.832   1.898   2.765  0.8264 -0.8084 -0.5816
   73c3c     HC 1307   1.964   1.927   2.871  1.9738 -0.2410 -0.5542
   73c3c     HC 1308   1.998   1.852   2.599  2.0964  1.9798 -2.8243
   73c3c     HC 1309   2.119   1.920   2.704  0.2178  2.0879  3.5026
   73c3c     H1 1310   1.717   2.163   2.577 -0.3409  0.5290 -0.3252
   73c3c     H1 1311   1.806   2.106   2.434  0.5363 -1.9652 -0.6505
   73c3c     H1 1312   1.765   1.999   2.571 -1.2915  0.9016  0.0667
   73c3c     H1 1313   1.946   2.330   2.509  0.3053  2.7300  0.2880
   73c3c     H1 1314   1.851   2.350   2.649  1.0773  2.1030 -2.5659
   73c3c     C2 1315   2.067   2.355   2.672  0.1323 -0.1055  0.2438
   73c3c     HC 1316   2.144   2.360   2.595 -0.7294  0.2147 -0.6139
   73c3c     HC 1317   2.114   2.307   2.758  0.4460  1.2029  0.8069
   73c3c     CT 1318   2.038   2.499   2.723  0.8765 -0.6889 -1.3976
   73c3c     HC 1319   2.123   2.532   2.782 -0.5983 -2.2207  1.7131
   73c3c     HC 1320   1.951   2.505   2.789  2.1755  0.0524  0.2782
   73c3c     HC 1321   2.022   2.567   2.640  0.7320 -0.9548 -1.5855
   74c3c     N4 1322   2.438   2.862   2.910 -0.7243  0.4848 -0.3294
   74c3c     C1 1323   2.296   2.887   2.924 -0.0064  0.4735  0.1921
   74c3c     C1 1324   2.473   2.929   2.792 -0.0303  0.2732  0.2975
   74c3c     C2 1325   2.263   3.028   2.873 -0.0662 -0.8737  0.0251
   74c3c     C2 1326   2.385   3.062   2.784  0.5653  0.2987  0.4751
   74c3c     C1 1327   2.511   2.927   3.023 -0.3657  0.4292  0.5585
   74c3c     C1 1328   2.483   2.721   2.900 -0.0325  0.1676  0.2904
   74c3c     H1 1329   2.249   2.877   3.022 -0.9952  0.2018 -0.3015
   74c3c     H1 1330   2.241   2.815   2.865  1.8480 -1.7784  1.1237
   74c3c     H1 1331   2.580   2.950   2.798  0.7908 -3.5733  0.1411
   74c3c     H1 1332   2.456   2.870   2.702  0.6915  1.2546 -0.4899
   74c3c     HC 1333   2.258   3.089   2.963 -1.7071  0.6891 -1.0907
   74c3c     HC 1334   2.168   3.039   2.820  0.2597  1.0762 -0.1914
   74c3c     HC 1335   2.437   3.150   2.821 -0.1716  0.1816  1.8279
   74c3c     HC 1336   2.354   3.078   2.681  0.2440 -0.4680  0.4525
   74c3c     H1 1337   2.619   2.918   3.013 -0.3335  2.4775 -1.2366
   74c3c     H1 1338   2.485   3.032   3.034 -1.0683  0.2274  0.8388
   74c3c     H1 1339   2.472   2.894   3.120 -0.3073  3.0022  1.5085
   74c3c     H1 1340   2.441   2.682   2.807 -0.7323  0.6790  0.3860
   74c3c     H1 1341   2.591   2.713   2.888 -0.2271 -0.8392 -0.9253
   74c3c     C2 1342   2.444   2.634   3.022 -0.6840  0.6041  0.4131
   74c3c     HC 1343   2.337   2.642   3.042 -1.0712 -0.5540 -1.1602
   74c3c     HC 1344   2.499   2.672   3.109 -0.9080  2.5980 -0.2768
   74c3c     CT 1345   2.483   2.495   2.999 -0.0141  0.0110  0.1023
   74c3c     HC 1346   2.582   2.482   2.956  0.7394  3.5938  0.5776
   74c3c     HC 1347   2.414   2.458   2.923  0.6729  3.9909 -2.6055
   74c3c     HC 1348   2.461   2.444   3.093  2.5877  1.5460  1.6093
   75c3c     N4 1349   0.751   2.500   0.621 -0.4193  0.1678  0.6564
   75c3c     C1 1350   0.782   2.364   0.580 -0.5464  0.6048 -0.5449
   75c3c     C1 1351   0.701   2.487   0.756  0.5406  1.2237 -0.1578
   75c3c     C2 1352   0.839   2.291   0.700 -0.0501 -0.3523 -0.6244
   75c3c     C2 1353   0.791   2.383   0.812  0.2513  0.1031 -0.2327
   75c3c     C1 1354   0.869   2.593   0.617  0.5886  0.0562  0.3284
   75c3c     C1 1355   0.648   2.542   0.535  0.1218 -0.7930  0.7080
   75c3c     H1 1356   0.837   2.353   0.487  0.3292 -1.6891  0.2208
   75c3c     H1 1357   0.695   2.302   0.559  0.7937 -2.1912  1.8839
   75c3c     H1 1358   0.694   2.575   0.820  0.4138 -0.3021  1.9815
   75c3c     H1 1359   0.598   2.452   0.764  0.5969  0.6123 -1.8879
   75c3c     HC 1360   0.946   2.291   0.681  0.3039  1.0577  1.3081
   75c3c     HC 1361   0.793   2.192   0.713 -0.0795 -0.1064  1.3756
   75c3c     HC 1362   0.877   2.427   0.861  1.2971 -0.4270 -1.5644
   75c3c     HC 1363   0.745   2.322   0.890 -0.2197 -0.1725 -0.7271
   75c3c     H1 1364   0.920   2.599   0.521  1.4212  0.8496  0.8133
   75c3c     H1 1365   0.839   2.694   0.644 -0.7878 -0.9538  2.7389
   75c3c     H1 1366   0.945   2.559   0.687 -1.6163 -1.1280  2.2219
   75c3c     H1 1367   0.562   2.477   0.547 -0.1043 -0.3743  1.4232
   75c3c     H1 1368   0.613   2.643   0.557 -0.2082 -0.5295 -0.9983
   75c3c     C2 1369   0.676   2.545   0.383 -0.0984 -0.3089 -0.2003
   75c3c     HC 1370   0.700   2.444   0.349  1.0270  0.6741 -2.4437
   75c3c     HC 1371   0.758   2.610   0.356  0.2099  0.6682  2.8854
   75c3c     CT 1372   0.563   2.596   0.291 -0.0587  0.1433  0.6027
   75c3c     HC 1373   0.514   2.685   0.331  0.3438  0.9630 -0.7099
   75c3c     HC 1374   0.475   2.532   0.283 -0.0605  0.0854  1.0512
   75c3c     HC 1375   0.597   2.631   0.194  2.0053  2.8023  2.2056
   76fsi    FSI 1376   1.051   0.873   0.231 -0.0214  0.1120  0.4857
   76fsi    SBT 1377   1.158   0.853   0.123  0.1873 -0.0753  0.3035
   76fsi    NBT 1378   1.083   0.867  -0.012  0.3781 -0.1634 -1.0215
   76fsi    OBT 1379   1.252   0.953   0.156 -0.7274  0.0417  0.0015
   76fsi    OBT 1380   1.202   0.718   0.149  0.4542 -0.1461  0.1440
   76fsi    SBT 1381   1.080   0.987  -0.111 -0.3885  0.0753  0.1752
   76fsi    OBT 1382   1.092   0.944  -0.246  0.5071 -0.0782 -0.0036
   76fsi    OBT 1383   1.155   1.106  -0.073  0.2455 -0.3021  0.1196
   76fsi    FSI 1384   0.937   1.039  -0.105  0.1714 -0.0097 -0.0544
   77fsi    FSI 1385   1.136   2.046   2.907 -0.0429 -0.1542 -0.6555
   77fsi    SBT 1386   1.168   2.092   2.763  0.2330  0.2193  0.2309
   77fsi    NBT 1387   1.296   2.183   2.777  0.0238 -0.2134  1.0918
   77fsi    OBT 1388   1.194   1.967   2.695 -0.2674  0.0688 -0.0601
   77fsi    OBT 1389   1.051   2.174   2.732  0.0878 -0.0968  0.1533
   77fsi    SBT 1390   1.451   2.155   2.755 -0.0685  0.2314  0.1863
   77fsi    OBT 1391   1.528   2.275   2.732  0.1982 -0.2914  0.0538
   77fsi    OBT 1392   1.489   2.039   2.674 -0.2545  0.2308 -0.1923
   77fsi    FSI 1393   1.500   2.116   2.895 -0.1399 -0.7336  0.1502
   78fsi    FSI 1394   2.578   0.799   2.196 -0.6933  0.4572 -0.4693
   78fsi    SBT 1395   2.596   0.643   2.234 -0.3156 -0.1759  0.1359
   78fsi    NBT 1396   2.747   0.627   2.224 -0.0680  0.0065  0.2611
   78fsi    OBT 1397   2.544   0.647   2.368  0.5621  0.4592  0.0535
   78fsi    OBT 1398   2.523   0.572   2.133  0.8470 -0.1012 -0.4617
   78fsi    SBT 1399   2.852   0.659   2.336 -0.3705  0.6108  0.3839
   78fsi    OBT 1400   2.888   0.539   2.409 -0.3374  0.2703  0.1643
   78fsi    OBT 1401   2.837   0.782   2.406  0.0037 -0.4187  0.3330
   78fsi    FSI 1402   2.986   0.670   2.252  0.2287  0.2267  0.1341
   79fsi    FSI 1403   0.593   1.417   1.346  0.0521 -0.2929 -0.7220
   79fsi    SBT 1404   0.565   1.330   1.476  0.0785 -0.1022 -0.1081
   79fsi    NBT 1405   0.590   1.428   1.592 -0.2751  0.3488 -0.3320
   79fsi    OBT 1406   0.425   1.297   1.454 -0.2412  0.0418 -0.2353
   79fsi    OBT 1407   0.661   1.223   1.485 -0.7860 -0.0722  0.3699
   79fsi    SBT 1408   0.497   1.540   1.652  0.1976 -0.1841 -0.2518
   79fsi    OBT 1409   0.561   1.612   1.753  0.5881 -0.4043 -0.4223
   79fsi    OBT 1410   0.366   1.495   1.682 -0.0220  0.2562 -0.7057
   79fsi    FSI 1411   0.490   1.642   1.537 -0.0570 -0.5883 -0.5227
   80fsi    FSI 1412   1.188   1.611   0.944 -0.1231  0.0170  0.6352
   80fsi    SBT 1413   1.309   1.519   0.965  0.4812 -0.0898  0.0245
   80fsi    NBT 1414   1.342   1.479   0.815  0.6289 -0.1454  0.8373
   80fsi    OBT 1415   1.401   1.614   1.028  1.0988 -0.4574 -0.1091
   80fsi    OBT 1416   1.252   1.404   1.037  0.1773 -0.7483  0.5953
   80fsi    SBT 1417   1.334   1.572   0.688  0.1716 -0.0091  0.1426
   80fsi    OBT 1418   1.356   1.494   0.568  0.4334 -0.1958  0.0874
   80fsi    OBT 1419   1.414   1.694   0.699  0.5351  0.4637 -0.0903
   80fsi    FSI 1420   1.178   1.616   0.670  0.1615 -0.0799  0.0378
   81fsi    FSI 1421   2.830   2.600   2.867  0.7057  0.8649  0.3272
   81fsi    SBT 1422   2.972   2.611   2.937 -0.0295 -0.0803 -0.2887
   81fsi    NBT 1423   3.060   2.535   2.828  0.4603  0.4660 -0.0728
   81fsi    OBT 1424   2.998   2.752   2.946  0.1117  0.1787  0.1798
   81fsi    OBT 1425   2.960   2.540   3.063  0.1267 -0.5196 -0.4303
   81fsi    SBT 1426   3.205   2.564   2.787  0.1415 -0.2500 -0.2771
   81fsi    OBT 1427   3.270   2.662   2.867 -0.1151  0.2062 -0.6654
   81fsi    OBT 1428   3.221   2.576   2.646 -0.3280 -0.1059  0.3211
   81fsi    FSI 1429   3.281   2.433   2.826 -0.0696 -0.5861  0.0128
   82fsi    FSI 1430   1.499   1.365   1.961  0.3820 -0.1977  0.0119
   82fsi    SBT 1431   1.595   1.309   2.067  0.0103  0.0585  0.0059
   82fsi    NBT 1432   1.714   1.263   1.984 -0.4727 -0.0107 -0.6347
   82fsi    OBT 1433   1.632   1.425   2.144  0.0120  0.4917 -0.2144
   82fsi    OBT 1434   1.525   1.203   2.137  0.4515 -0.2114  0.3182
   82fsi    SBT 1435   1.731   1.128   1.911  0.2206  0.0246 -0.3159
   82fsi    OBT 1436   1.632   1.023   1.935  0.3132  0.1808 -0.8969
   82fsi    OBT 1437   1.867   1.087   1.925 -0.1506  0.6041 -0.6716
   82fsi    FSI 1438   1.710   1.166   1.752  0.2350 -0.1294  0.0324
   83fsi    FSI 1439   0.121   1.200   0.696 -0.1423 -0.1425  0.1855
   83fsi    SBT 1440   0.170   1.114   0.813 -0.2125 -0.3858  0.0647
   83fsi    NBT 1441   0.281   1.021   0.737 -0.1631 -0.1138 -0.4520
   83fsi    OBT 1442   0.228   1.211   0.899 -0.0905  0.1539  0.2604
   83fsi    OBT 1443   0.059   1.039   0.863 -0.2710  0.1001 -0.6410
   83fsi    SBT 1444   0.441   1.018   0.759  0.1388  0.2611 -0.1205
   83fsi    OBT 1445   0.511   0.914   0.694 -0.0981 -0.2315 -0.3576
   83fsi    OBT 1446   0.470   1.040   0.896  0.2132  0.3273  0.1874
   83fsi    FSI 1447   0.491   1.149   0.685 -0.3560 -0.1284  0.2762
   84fsi    FSI 1448   2.660   0.365   0.852 -0.1987  0.0986 -0.0779
   84fsi    SBT 1449   2.744   0.267   0.759  0.2721  0.4764 -0.3517
   84fsi    NBT 1450   2.877   0.265   0.838  0.3371  0.3178 -0.1597
   84fsi    OBT 1451   2.662   0.143   0.748 -0.3499 -0.0942  0.3803
   84fsi    OBT 1452   2.744   0.343   0.634 -0.7695 -0.1680 -0.2476
   84fsi    SBT 1453   2.936   0.191   0.962  0.1719 -0.2110 -0.2154
   84fsi    OBT 1454   2.843   0.111   1.032  0.0677 -0.3379  1.0034
   84fsi    OBT 1455   3.015   0.276   1.045  0.8033 -0.0261  0.4908
   84fsi    FSI 1456   3.035   0.093   0.897 -0.1212 -0.0478 -0.8203
   85fsi    FSI 1457   0.531   0.182   2.682 -0.2653  0.4732  0.0224
   85fsi    SBT 1458   0.497   0.082   2.792  0.0861  0.2474 -0.0882
   85fsi    NBT 1459   0.515   0.171   2.920 -0.1567  0.0858 -0.2301
   85fsi    OBT 1460   0.363   0.047   2.759  0.0454 -0.9155 -0.1711
   85fsi    OBT 1461   0.595  -0.026   2.777  0.3341 -0.5875  0.1969
   85fsi    SBT 1462   0.615   0.144   3.039  0.0801  0.3727  0.1649
   85fsi    OBT 1463   0.593   0.226   3.152  0.2820 -0.4311 -0.1094
   85fsi    OBT 1464   0.751   0.108   3.006  0.0615 -0.3622 -0.3231
   85fsi    FSI 1465   0.554   0.011   3.090 -0.2727 -0.4063  0.3138
   86fsi    FSI 1466   2.381   2.708   1.118  0.2602 -0.0521  0.0036
   86fsi    SBT 1467   2.313   2.732   0.980  0.0066 -0.1856  0.0217
   86fsi    NBT 1468   2.242   2.596   0.938  0.1410 -0.0269  0.1953
   86fsi    OBT 1469   2.228   2.844   1.013 -0.0271 -0.1122 -0.3102
   86fsi    OBT 1470   2.423   2.761   0.892 -0.0778  0.2544 -0.0493
   86fsi    SBT 1471   2.086   2.563   0.929  0.3551 -0.3010  0.0043
   86fsi    OBT 1472   2.058   2.453   0.842  0.1751  0.4223 -0.2613
   86fsi    OBT 1473   2.002   2.682   0.907  0.0141  0.4306  0.2144
   86fsi    FSI 1474   2.061   2.506   1.073 -0.0742 -0.3070  0.0155
   87fsi    FSI 1475   0.413   0.282   0.901 -0.4747 -0.7539  0.0413
   87fsi    SBT 1476   0.471   0.301   1.037 -0.2857 -0.1186 -0.2455
   87fsi    NBT 1477   0.547   0.439   1.018  0.0643  0.4128 -1.0439
   87fsi    OBT 1478   0.364   0.309   1.131  0.3816 -0.4702  0.1052
   87fsi    OBT 1479   0.560   0.187   1.049  0.5759 -0.2234 -0.3731
   87fsi    SBT 1480   0.495   0.585   1.047  0.6343  0.0316  0.2466
   87fsi    OBT 1481   0.572   0.651   1.148 -0.5066  1.0084  0.5010
   87fsi    OBT 1482   0.352   0.605   1.055 -0.2491 -0.3387 -0.2310
   87fsi    FSI 1483   0.535   0.661   0.914 -0.2827  0.1569  0.7859
   88fsi    FSI 1484   0.181   2.818   2.317  0.2078  0.2325  0.0512
   88fsi    SBT 1485   0.030   2.838   2.351 -0.2977 -0.1987  0.2546
   88fsi    NBT 1486   0.045   2.941   2.473  0.2597  0.6572  0.2441
   88fsi    OBT 1487  -0.027   2.894   2.228  0.4519  0.5912 -0.2441
   88fsi    OBT 1488  -0.011   2.706   2.387 -0.1076  0.0641  0.3070
   88fsi    SBT 1489   0.019   2.918   2.622  0.2240  0.2196  0.4721
   88fsi    OBT 1490   0.086   3.010   2.709  0.0714 -0.0675  0.2735
   88fsi    OBT 1491   0.019   2.784   2.672  0.8821  0.2686 -0.3187
   88fsi    FSI 1492  -0.129   2.968   2.636 -0.3187 -0.0693  0.4392
   89fsi    FSI 1493   1.332   0.693   1.479 -0.6627 -0.2862 -0.1804
   89fsi    SBT 1494   1.432   0.680   1.604 -0.3656 -0.1040 -0.0942
   89fsi    NBT 1495   1.335   0.669   1.728  0.1359  0.2843 -0.4968
   89fsi    OBT 1496   1.500   0.556   1.582  0.0049 -0.0009 -0.1151
   89fsi    OBT 1497   1.509   0.802   1.604 -0.5160 -0.0020  0.1729
   89fsi    SBT 1498   1.292   0.771   1.842  0.2995  0.1070 -0.0355
   89fsi    OBT 1499   1.375   0.887   1.855  0.3145 -0.0393 -0.0948
   89fsi    OBT 1500   1.254   0.697   1.957 -0.2316  0.4312  0.1444
   89fsi    FSI 1501   1.157   0.829   1.793 -0.7592 -0.0352  0.0639
   90fsi    FSI 1502   0.817   2.705   1.235 -0.1649  1.0955 -0.1465
   90fsi    SBT 1503   0.956   2.707   1.156  0.0827  0.5201  0.2890
   90fsi    NBT 1504   1.047   2.607   1.230  0.0595 -0.1350 -0.3598
   90fsi    OBT 1505   0.921   2.663   1.024 -0.0034 -0.0202  0.2318
   90fsi    OBT 1506   0.991   2.846   1.165 -0.0017  0.7187  0.6648
   90fsi    SBT 1507   1.084   2.458   1.195  0.1714  0.3123  0.2971
   90fsi    OBT 1508   1.195   2.412   1.277  0.2881 -0.4177 -0.5025
   90fsi    OBT 1509   1.096   2.415   1.058 -0.0783  0.6489  0.1662
   90fsi    FSI 1510   0.965   2.378   1.257  0.0928  0.2443  0.6925
   91fsi    FSI 1511   1.897   1.148   0.618  0.5463 -0.3128  0.2528
   91fsi    SBT 1512   2.045   1.193   0.625  0.0084 -0.1166  0.1553
   91fsi    NBT 1513   2.093   1.130   0.493 -0.9207 -0.5204 -0.0337
   91fsi    OBT 1514   2.048   1.339   0.631  0.1313  0.2896  0.3828
   91fsi    OBT 1515   2.098   1.122   0.735  0.6134  0.3329 -0.3854
   91fsi    SBT 1516   2.147   1.191   0.357 -0.2339  0.2093 -0.3632
   91fsi    OBT 1517   2.235   1.108   0.275  0.2799 -0.1259  0.2419
   91fsi    OBT 1518   2.185   1.323   0.369 -0.6759  0.5357  0.2621
   91fsi    FSI 1519   2.020   1.209   0.268  0.2605 -0.0472 -0.6292
   92fsi    FSI 1520   1.948   0.686   2.363 -0.5754  0.9349 -0.3519
   92fsi    SBT 1521   2.069   0.747   2.432 -0.2314 -0.1791  0.2136
   92fsi    NBT 1522   2.102   0.865   2.337 -0.0367  0.2016  0.0445
   92fsi    OBT 1523   2.013   0.784   2.558  1.4582 -0.4096  0.3304
   92fsi    OBT 1524   2.154   0.634   2.425  0.1416 -0.5048 -1.0219
   92fsi    SBT 1525   2.241   0.904   2.273  0.4526  0.0855  0.3314
   92fsi    OBT 1526   2.245   0.862   2.137  0.7382 -1.0729  0.0511
   92fsi    OBT 1527   2.352   0.867   2.360  0.2342  0.2857  0.2198
   92fsi    FSI 1528   2.251   1.060   2.262  0.4126 -0.2201 -0.1885
   93fsi    FSI 1529   2.502   1.817   2.049 -0.3203  0.3856  0.2810
   93fsi    SBT 1530   2.521   1.845   1.893  0.1386 -0.1855  0.6387
   93fsi    NBT 1531   2.642   1.948   1.895 -0.3081 -0.0784 -0.6181
   93fsi    OBT 1532   2.561   1.722   1.837  0.0014 -0.5062  0.0156
   93fsi    OBT 1533   2.391   1.891   1.846  0.5447  0.5510  0.0803
   93fsi    SBT 1534   2.637   2.102   1.909 -0.0018 -0.2573  0.2262
   93fsi    OBT 1535   2.758   2.154   1.958  0.0050 -0.1776  0.3421
   93fsi    OBT 1536   2.512   2.156   1.949  0.2382 -0.1142 -0.5263
   93fsi    FSI 1537   2.638   2.137   1.758  0.0808 -0.0772  0.0266
   94fsi    FSI 1538   1.651   0.270   1.501 -0.2680  0.2039  0.0129
   94fsi    SBT 1539   1.686   0.209   1.637 -0.6061  0.6586 -0.1621
   94fsi    NBT 1540   1.592   0.086   1.636 -0.1016  0.6585 -0.2105
   94fsi    OBT 1541   1.823   0.167   1.628 -0.1057  0.3239 -0.2141
   94fsi    OBT 1542   1.651   0.314   1.729 -0.0145  0.7296 -0.1117
   94fsi    SBT 1543   1.446   0.064   1.680  0.2526 -0.0391  0.3588
   94fsi    OBT 1544   1.393   0.145   1.785 -0.3765 -0.5709  0.5013
   94fsi    OBT 1545   1.409  -0.071   1.694  0.0843  0.1399 -0.2529
   94fsi    FSI 1546   1.352   0.105   1.557  0.3261 -0.4791  0.3040
   95fsi    FSI 1547   1.327   0.916   2.418  0.2761  0.2338 -0.3423
   95fsi    SBT 1548   1.326   0.886   2.267 -0.1152  0.1271 -0.5990
   95fsi    NBT 1549   1.481   0.898   2.232 -0.3524 -0.0949 -0.2504
   95fsi    OBT 1550   1.270   0.756   2.262  0.2266 -0.3139 -0.2649
   95fsi    OBT 1551   1.263   0.998   2.205 -0.0129  0.4396  1.1548
   95fsi    SBT 1552   1.587   0.790   2.200  0.4354  0.1300 -0.4559
   95fsi    OBT 1553   1.722   0.843   2.192  0.1664 -0.4904 -0.4519
   95fsi    OBT 1554   1.541   0.708   2.092  0.8796  0.5299 -0.0246
   95fsi    FSI 1555   1.591   0.697   2.327  0.0750  0.6417 -0.2475
   96fsi    FSI 1556   0.307   0.146   1.798  0.2761  0.4300  0.5366
   96fsi    SBT 1557   0.412   0.036   1.752 -0.2249  0.0541  0.1434
   96fsi    NBT 1558   0.543   0.124   1.733  0.2432 -0.1978  0.2351
   96fsi    OBT 1559   0.418  -0.048   1.870  0.0704  0.1338  0.5867
   96fsi    OBT 1560   0.360  -0.008   1.627  0.4808 -0.4995 -0.5216
   96fsi    SBT 1561   0.631   0.145   1.600  0.4315  0.2330 -0.1519
   96fsi    OBT 1562   0.635   0.048   1.495 -0.3594 -0.1849  0.2875
   96fsi    OBT 1563   0.757   0.206   1.634  0.5405  0.1907 -0.4840
   96fsi    FSI 1564   0.552   0.265   1.535 -0.7995 -0.2539 -0.5406
   97fsi    FSI 1565   2.714   1.663   0.944 -0.2134 -0.4054 -0.6396
   97fsi    SBT 1566   2.564   1.720   0.935 -0.1004 -0.3999  0.1270
   97fsi    NBT 1567   2.467   1.597   0.972 -0.4226  0.0295 -0.1860
   97fsi    OBT 1568   2.571   1.827   1.029  0.0954 -0.2438  0.0171
   97fsi    OBT 1569   2.540   1.758   0.798 -0.4220  0.1309  0.5167
   97fsi    SBT 1570   2.356   1.591   1.087  0.2545 -0.1387 -0.0802
   97fsi    OBT 1571   2.311   1.460   1.118 -0.7339 -0.2193  0.3678
   97fsi    OBT 1572   2.260   1.700   1.078  0.5013  0.4313  0.5720
   97fsi    FSI 1573   2.441   1.626   1.216 -0.3538  0.1686 -0.1729
   98fsi    FSI 1574   2.002   0.327   2.221 -0.1321  0.3069  0.1428
   98fsi    SBT 1575   2.147   0.340   2.160 -0.0221 -0.1797 -0.2433
   98fsi    NBT 1576   2.231   0.237   2.238  0.4905 -0.2459  0.7069
   98fsi    OBT 1577   2.125   0.295   2.025  0.3506 -0.3055  0.2374
   98fsi    OBT 1578   2.188   0.479   2.175 -0.1768  0.3041 -0.7735
   98fsi    SBT 1579   2.307   0.252   2.369  0.5561  0.3999 -0.1783
   98fsi    OBT 1580   2.326   0.393   2.407 -0.1653 -0.0544  0.2508
   98fsi    OBT 1581   2.412   0.154   2.393  1.0598  0.8342  0.6180
   98fsi    FSI 1582   2.194   0.200   2.475  0.1504  0.5034 -0.0028
   99fsi    FSI 1583   0.542   0.580   2.666  0.6908  0.3446 -0.8167
   99fsi    SBT 1584   0.425   0.668   2.721 -0.5420 -0.0820 -0.3627
   99fsi    NBT 1585   0.494   0.789   2.792 -0.0976 -0.1900 -0.0033
   99fsi    OBT 1586   0.351   0.717   2.609 -0.3779  0.5053 -0.4743
   99fsi    OBT 1587   0.358   0.582   2.811  0.3469 -0.6955 -0.2226
   99fsi    SBT 1588   0.505   0.937   2.744 -0.4890  0.3563 -0.0999
   99fsi    OBT 1589   0.412   1.028   2.803  0.0184  0.1051  0.3441
   99fsi    OBT 1590   0.526   0.944   2.604 -0.5101  0.3614 -0.3666
   99fsi    FSI 1591   0.642   0.988   2.800 -0.1146 -0.6211  0.1285
  100fsi    FSI 1592   1.822   0.302   1.181 -0.0402  0.4112  0.0958
  100fsi    SBT 1593   1.929   0.215   1.104 -0.1435 -0.4498  0.1607
  100fsi    NBT 1594   1.955   0.296   0.970  0.6847  0.7831  0.1175
  100fsi    OBT 1595   2.042   0.207   1.196 -0.4023  0.8721  0.0405
  100fsi    OBT 1596   1.860   0.088   1.073  0.0308 -0.3702  0.1729
  100fsi    SBT 1597   1.996   0.247   0.825  0.2437  0.0030 -0.0317
  100fsi    OBT 1598   1.909   0.289   0.715  0.5405 -0.0838 -0.0806
  100fsi    OBT 1599   2.045   0.113   0.828 -0.0207  0.2919  0.6187
  100fsi    FSI 1600   2.121   0.331   0.794 -0.1732  0.5924  0.6852
  101fsi    FSI 1601   1.778   0.033   0.027 -0.3279 -0.6387 -0.2946
  101fsi    SBT 1602   1.906  -0.040  -0.018 -0.1692  0.0927  0.2942
  101fsi    NBT 1603   1.877  -0.194   0.017 -0.2069  0.2039 -1.1626
  101fsi    OBT 1604   1.910  -0.016  -0.161 -0.1012 -0.7709  0.4010
  101fsi    OBT 1605   2.003   0.024   0.061 -0.2150 -0.5247  0.4549
  101fsi    SBT 1606   1.753  -0.294  -0.020  0.2426 -0.1690 -0.4736
  101fsi    OBT 1607   1.743  -0.426   0.037  0.4145  0.3688  0.2556
  101fsi    OBT 1608   1.686  -0.261  -0.140  0.0358 -0.5635 -0.0780
  101fsi    FSI 1609   1.649  -0.229   0.072  0.8248 -0.3681 -0.1049
  102fsi    FSI 1610   0.929   1.055   1.730  0.7664  0.0754  0.9440
  102fsi    SBT 1611   0.914   1.162   1.844 -0.2470 -0.1460  0.3486
  102fsi    NBT 1612   1.053   1.148   1.921 -0.3539 -0.3344  0.4962
  102fsi    OBT 1613   0.901   1.286   1.779 -0.4043 -0.2572  0.5897
  102fsi    OBT 1614   0.802   1.115   1.919 -0.1138 -0.4087  0.2022
  102fsi    SBT 1615   1.182   1.241   1.917  0.0300 -0.0537  0.2067
  102fsi    OBT 1616   1.165   1.376   1.868 -0.3518  0.2191  0.2727
  102fsi    OBT 1617   1.298   1.169   1.879 -0.0322 -0.4237 -0.2850
  102fsi    FSI 1618   1.218   1.272   2.065 -0.4146  0.3977 -0.1914
  103fsi    FSI 1619   2.608   0.945   0.582  0.0782 -0.6790  0.3187
  103fsi    SBT 1620   2.554   0.877   0.717  0.3509 -0.0453 -0.1054
  103fsi    NBT 1621   2.555   0.725   0.694  0.3239  0.2316  0.3719
  103fsi    OBT 1622   2.663   0.914   0.810  0.7894 -0.1480 -0.4006
  103fsi    OBT 1623   2.424   0.937   0.746  0.1036 -0.6342  0.6218
  103fsi    SBT 1624   2.451   0.617   0.730  0.0817  0.2774  0.1897
  103fsi    OBT 1625   2.411   0.621   0.869  0.3654  0.0738  0.6906
  103fsi    OBT 1626   2.473   0.492   0.664 -0.3301  0.2563  0.7281
  103fsi    FSI 1627   2.330   0.679   0.652  0.3355  0.0788  0.8192
  104fsi    FSI 1628   1.191   1.461   0.325  0.9380 -0.4589 -0.0964
  104fsi    SBT 1629   1.298   1.487   0.202 -0.0781  0.3217 -0.0043
  104fsi    NBT 1630   1.376   1.613   0.255  0.5121 -0.0815  0.1665
  104fsi    OBT 1631   1.376   1.367   0.211  0.0126 -0.3965 -0.1068
  104fsi    OBT 1632   1.220   1.500   0.085 -0.1282 -0.1879  0.2061
  104fsi    SBT 1633   1.391   1.757   0.196 -0.0712 -0.2617 -0.0969
  104fsi    OBT 1634   1.365   1.857   0.290 -0.0909  0.2176  0.0406
  104fsi    OBT 1635   1.329   1.761   0.069 -0.2866  0.2496  0.3362
  104fsi    FSI 1636   1.540   1.764   0.170  0.3110  0.6801  0.4474
  105fsi    FSI 1637   0.789   0.303   0.538  0.0839  0.1036  0.6336
  105fsi    SBT 1638   0.683   0.322   0.652  0.3539 -0.5005 -0.0367
  105fsi    NBT 1639   0.704   0.188   0.726 -0.1218 -0.5209  0.1661
  105fsi    OBT 1640   0.734   0.439   0.718 -0.0479  0.1387  0.3161
  105fsi    OBT 1641   0.560   0.339   0.582 -0.1348 -0.7783  0.1093
  105fsi    SBT 1642   0.640   0.047   0.697  0.1519 -0.0490  0.3732
  105fsi    OBT 1643   0.702  -0.055   0.777 -0.0213  0.3757 -0.4470
  105fsi    OBT 1644   0.631   0.020   0.557 -0.3447  0.4031  0.3775
  105fsi    FSI 1645   0.490   0.058   0.752  0.1030 -0.1859  0.1594
  106fsi    FSI 1646   2.782   1.416   1.763  0.3061  0.4657 -0.5451
  106fsi    SBT 1647   2.886   1.363   1.871  0.3112  0.0533 -0.0269
  106fsi    NBT 1648   2.801   1.268   1.966 -0.5114  0.4925 -0.0426
  106fsi    OBT 1649   2.988   1.293   1.798  0.8856 -0.3369 -0.4418
  106fsi    OBT 1650   2.929   1.481   1.940  0.0808  0.2418 -0.1808
  106fsi    SBT 1651   2.657   1.300   2.030  0.1793 -0.1621  0.0618
  106fsi    OBT 1652   2.592   1.183   2.088  0.4345 -0.3296 -0.2182
  106fsi    OBT 1653   2.570   1.389   1.955 -0.4635  0.5141  0.0353
  106fsi    FSI 1654   2.704   1.375   2.159 -0.1317 -0.2853  0.0781
  107fsi    FSI 1655   1.325   1.724   2.199  0.5433 -0.3324  0.3089
  107fsi    SBT 1656   1.213   1.626   2.148  0.0467 -0.1875  0.2583
  107fsi    NBT 1657   1.081   1.713   2.173 -0.1625  0.7652 -0.7155
  107fsi    OBT 1658   1.241   1.605   2.007 -1.0356 -0.5616 -0.0814
  107fsi    OBT 1659   1.206   1.514   2.240 -1.0113 -0.0366  0.3785
  107fsi    SBT 1660   0.961   1.747   2.078  0.2036  0.2246 -0.1724
  107fsi    OBT 1661   0.965   1.669   1.955  0.3263  0.3034 -0.5413
  107fsi    OBT 1662   0.934   1.886   2.074  0.0040  0.3267  0.1489
  107fsi    FSI 1663   0.837   1.691   2.156 -0.3214 -0.1576 -0.0291
  108fsi    FSI 1664   2.866   1.319   2.833 -0.1688 -0.5423  0.0523
  108fsi    SBT 1665   2.716   1.256   2.830 -0.5024  0.1028  0.0427
  108fsi    NBT 1666   2.649   1.346   2.943  0.0726 -0.2027  0.3771
  108fsi    OBT 1667   2.669   1.280   2.697  0.0351  0.1640 -0.0025
  108fsi    OBT 1668   2.743   1.119   2.869 -0.4102  0.1818 -0.5092
  108fsi    SBT 1669   2.602   1.299   3.084  0.2993 -0.4103  0.0412
  108fsi    OBT 1670   2.555   1.166   3.078  0.1023 -0.3815 -0.9944
  108fsi    OBT 1671   2.512   1.395   3.140  0.0753 -0.0474 -0.4386
  108fsi    FSI 1672   2.729   1.304   3.179  0.0585  0.3560 -0.1695
  109fsi    FSI 1673   1.057   0.216   1.997 -0.0243  0.3047 -0.0923
  109fsi    SBT 1674   1.044   0.352   1.935 -0.6282 -0.4371  0.5618
  109fsi    NBT 1675   1.155   0.357   1.820  0.2896  0.0324  0.5058
  109fsi    OBT 1676   0.901   0.357   1.895 -0.5971  0.5298  0.3090
  109fsi    OBT 1677   1.079   0.436   2.045 -0.3204 -0.0881  0.1159
  109fsi    SBT 1678   1.125   0.367   1.663  0.2693  0.3480 -0.0769
  109fsi    OBT 1679   1.242   0.370   1.586  0.2188 -0.9285  0.0831
  109fsi    OBT 1680   1.026   0.462   1.625 -0.5253  0.4517 -0.8594
  109fsi    FSI 1681   1.061   0.234   1.633  0.2165  0.3480 -0.1469
  110fsi    FSI 1682   1.469   0.398   2.405  0.4070  0.3039  0.3445
  110fsi    SBT 1683   1.322   0.402   2.357  0.1306 -0.0174 -0.2481
  110fsi    NBT 1684   1.341   0.430   2.203 -0.3849  0.1434 -0.3375
  110fsi    OBT 1685   1.267   0.273   2.395  0.0123 -0.5383 -0.2895
  110fsi    OBT 1686   1.266   0.510   2.432  0.1601 -0.5140  0.0254
  110fsi    SBT 1687   1.419   0.338   2.102 -0.1984 -0.3840 -0.1302
  110fsi    OBT 1688   1.403   0.398   1.973 -0.5477  0.3115 -0.0772
  110fsi    OBT 1689   1.399   0.201   2.118  0.2353 -0.0378  0.1535
  110fsi    FSI 1690   1.571   0.373   2.142  0.0630 -0.6023  0.2365
  111fsi    FSI 1691   0.607   0.767   2.390 -0.3625 -0.8648  0.3469
  111fsi    SBT 1692   0.595   0.738   2.237 -0.0151 -0.1037  0.2632
  111fsi    NBT 1693   0.733   0.677   2.191 -0.3956 -0.2813 -0.2084
  111fsi    OBT 1694   0.487   0.642   2.228 -0.1564 -0.0068 -0.2510
  111fsi    OBT 1695   0.579   0.868   2.183 -0.8239  0.4591 -0.4214
  111fsi    SBT 1696   0.860   0.727   2.110 -0.0396  0.0091  0.2980
  111fsi    OBT 1697   0.984   0.693   2.181  0.3521  0.2912  0.1447
  111fsi    OBT 1698   0.844   0.865   2.067 -0.1713 -0.3845  0.3841
  111fsi    FSI 1699   0.870   0.637   1.984  0.1229 -0.0311 -0.0489
  112fsi    FSI 1700   0.885   0.745   1.716  0.5471 -0.0999  0.1484
  112fsi    SBT 1701   0.748   0.749   1.643 -0.1612 -0.1449  0.1553
  112fsi    NBT 1702   0.691   0.615   1.696  0.6676  0.1578  0.1697
  112fsi    OBT 1703   0.689   0.868   1.699  1.1185 -0.9896  0.9900
  112fsi    OBT 1704   0.788   0.755   1.504  0.2001 -0.1006 -0.4501
  112fsi    SBT 1705   0.592   0.592   1.816  0.0013 -0.0144  0.9194
  112fsi    OBT 1706   0.582   0.701   1.905 -0.2429  0.4595  0.0349
  112fsi    OBT 1707   0.607   0.461   1.874  0.2674 -0.1866 -0.0338
  112fsi    FSI 1708   0.450   0.593   1.749 -0.2805  0.1013 -0.3657
  113fsi    FSI 1709   2.124   1.727   2.374  0.1136 -0.7147  0.3287
  113fsi    SBT 1710   2.214   1.789   2.260 -0.3995 -0.5581  0.1339
  113fsi    NBT 1711   2.186   1.697   2.130  0.2298  0.0317  0.3474
  113fsi    OBT 1712   2.165   1.923   2.243 -0.6881 -0.4832 -0.0523
  113fsi    OBT 1713   2.347   1.777   2.308  0.3793 -0.0536 -0.2582
  113fsi    SBT 1714   2.232   1.553   2.101  0.0621 -0.3000  0.4851
  113fsi    OBT 1715   2.131   1.470   2.037 -0.1137  0.0611  0.5691
  113fsi    OBT 1716   2.315   1.495   2.205 -0.2424 -0.6182  0.1676
  113fsi    FSI 1717   2.337   1.582   1.986  0.2009 -0.0084 -0.2110
  114fsi    FSI 1718   0.342   2.709   0.608 -0.2498 -0.0520 -0.4639
  114fsi    SBT 1719   0.231   2.798   0.537 -0.3615 -0.1655 -0.0992
  114fsi    NBT 1720   0.119   2.817   0.648 -0.6698  0.3444  0.6390
  114fsi    OBT 1721   0.304   2.921   0.510 -0.2702  0.1919  0.2281
  114fsi    OBT 1722   0.186   2.720   0.426  0.2769  0.7312 -0.4134
  114fsi    SBT 1723  -0.026   2.758   0.642  0.3798  0.1771  0.0702
  114fsi    OBT 1724  -0.098   2.763   0.771  0.6704 -0.1385  0.3553
  114fsi    OBT 1725  -0.035   2.636   0.568 -0.6590 -0.5844 -0.3086
  114fsi    FSI 1726  -0.104   2.863   0.556  0.1859  0.3660 -0.2017
  115fsi    FSI 1727   1.348   0.559   0.312 -0.3853  0.1192 -0.5032
  115fsi    SBT 1728   1.305   0.448   0.422 -0.3442 -0.1436  0.4086
  115fsi    NBT 1729   1.300   0.320   0.329  0.4162  0.0177 -0.4073
  115fsi    OBT 1730   1.412   0.445   0.520 -0.6076  0.6226  0.1103
  115fsi    OBT 1731   1.177   0.493   0.465 -0.5240 -0.2611 -0.8327
  115fsi    SBT 1732   1.425   0.230   0.282  0.1770  0.1566 -0.3284
  115fsi    OBT 1733   1.443   0.112   0.360 -0.7356 -0.7220  0.0046
  115fsi    OBT 1734   1.538   0.297   0.232 -0.3304 -0.0087 -0.1727
  115fsi    FSI 1735   1.364   0.173   0.152 -0.2986  0.0926 -0.1986
  116fsi    FSI 1736   0.969   1.426   1.503  0.2007 -0.1644  0.1036
  116fsi    SBT 1737   0.984   1.575   1.557  0.3707  0.0594 -0.0590
  116fsi    NBT 1738   0.964   1.666   1.434  0.0927  0.1269  0.3137
  116fsi    OBT 1739   0.875   1.587   1.650 -0.3711 -0.3080  0.2097
  116fsi    OBT 1740   1.111   1.577   1.624  0.9368  0.4610  0.2909
  116fsi    SBT 1741   1.063   1.703   1.320 -0.4053  0.5563  0.2079
  116fsi    OBT 1742   1.007   1.774   1.209 -0.2116  0.0322  0.5418
  116fsi    OBT 1743   1.159   1.600   1.291 -0.4830  0.4867  0.4046
  116fsi    FSI 1744   1.144   1.817   1.385 -0.1359 -0.2290 -0.0579
  117fsi    FSI 1745   2.161   2.857   2.298 -0.3104  0.0834 -0.2531
  117fsi    SBT 1746   2.136   2.747   2.408 -0.1177  0.1117  0.5723
  117fsi    NBT 1747   2.190   2.613   2.339  0.1366  0.9552  0.1920
  117fsi    OBT 1748   2.229   2.772   2.511  0.4823 -0.6009 -0.0639
  117fsi    OBT 1749   1.995   2.750   2.439 -0.0660  0.2044  0.0696
  117fsi    SBT 1750   2.115   2.516   2.241  0.8074 -0.1858 -0.1848
  117fsi    OBT 1751   2.201   2.461   2.140  0.2841 -0.6666 -0.4683
  117fsi    OBT 1752   1.974   2.549   2.204  0.1239 -0.5558 -0.3168
  117fsi    FSI 1753   2.094   2.401   2.337  0.5368  0.0557 -0.3474
  118fsi    FSI 1754   1.296   2.599   2.461 -0.5296 -0.1793  0.7732
  118fsi    SBT 1755   1.401   2.621   2.352  0.2141 -0.3639 -0.0396
  118fsi    NBT 1756   1.539   2.611   2.420 -0.3110 -0.5083  0.5185
  118fsi    OBT 1757   1.380   2.506   2.268 -0.7197 -0.5798  0.7691
  118fsi    OBT 1758   1.380   2.751   2.301 -0.1820  0.1041  0.1998
  118fsi    SBT 1759   1.652   2.503   2.403 -0.0520  0.1858  0.2947
  118fsi    OBT 1760   1.776   2.539   2.466 -0.8305 -0.2812  0.3511
  118fsi    OBT 1761   1.658   2.441   2.274 -1.0548 -0.5577 -0.0709
  118fsi    FSI 1762   1.593   2.390   2.498 -0.5181  0.3531  0.9764
  119fsi    FSI 1763   0.578   2.773   2.370 -0.0213  0.5474  0.4741
  119fsi    SBT 1764   0.543   2.623   2.318  0.0193 -0.1180 -0.2786
  119fsi    NBT 1765   0.669   2.576   2.240  0.0117  0.2297 -0.1454
  119fsi    OBT 1766   0.530   2.546   2.438 -0.3654  0.0111  0.4939
  119fsi    OBT 1767   0.430   2.637   2.233  0.4522 -0.1405  0.0763
  119fsi    SBT 1768   0.680   2.496   2.106 -0.8059 -0.3801  0.4700
  119fsi    OBT 1769   0.594   2.383   2.083  0.5773 -0.0918 -0.1062
  119fsi    OBT 1770   0.818   2.481   2.082 -0.0789  0.1733 -0.1451
  119fsi    FSI 1771   0.646   2.589   1.987  0.0135 -0.2300 -0.4155
  120fsi    FSI 1772   1.808   0.929   1.512 -0.3990 -0.2488 -0.3490
  120fsi    SBT 1773   1.929   1.009   1.448  0.3545 -0.0093  0.0208
  120fsi    NBT 1774   2.044   0.908   1.410  1.5291 -0.6033 -0.9771
  120fsi    OBT 1775   1.874   1.066   1.325  0.4127  0.2878 -0.6379
  120fsi    OBT 1776   1.953   1.110   1.548 -0.2670 -0.5150  0.4427
  120fsi    SBT 1777   2.168   0.876   1.505  0.4652 -0.0436 -0.0844
  120fsi    OBT 1778   2.220   0.741   1.489  0.0494 -0.2126 -0.6867
  120fsi    OBT 1779   2.160   0.925   1.638  0.1177  0.1118 -0.4796
  120fsi    FSI 1780   2.285   0.960   1.444 -0.2983 -0.2527 -0.0364
  121fsi    FSI 1781   1.618   0.542   1.040  0.1354 -0.0624 -0.1700
  121fsi    SBT 1782   1.505   0.611   0.958  0.0200 -0.1796  0.2874
  121fsi    NBT 1783   1.568   0.752   0.940  0.2674 -1.0766 -0.6248
  121fsi    OBT 1784   1.502   0.540   0.833 -0.3871  0.2819 -0.2322
  121fsi    OBT 1785   1.394   0.601   1.045 -0.3461  0.4458 -0.6088
  121fsi    SBT 1786   1.545   0.885   1.023  0.1177 -0.2870 -0.0477
  121fsi    OBT 1787   1.622   0.890   1.147 -0.3463  0.0122 -0.0313
  121fsi    OBT 1788   1.410   0.936   1.036  0.3664  0.2447  0.2819
  121fsi    FSI 1789   1.609   0.983   0.931  0.0506 -0.1914  0.0860
  122fsi    FSI 1790   1.729   1.713   1.404 -0.4710 -0.6430  0.3836
  122fsi    SBT 1791   1.627   1.832   1.389 -0.4099  0.1286 -0.0658
  122fsi    NBT 1792   1.710   1.922   1.292  0.3540  0.0843  0.0793
  122fsi    OBT 1793   1.513   1.763   1.335 -0.9120 -0.8502  1.0105
  122fsi    OBT 1794   1.625   1.876   1.521  0.2515 -0.2992 -0.2549
  122fsi    SBT 1795   1.773   2.066   1.303 -0.0210 -0.3577  0.2688
  122fsi    OBT 1796   1.897   2.081   1.229  0.6107  0.4196  0.0524
  122fsi    OBT 1797   1.773   2.125   1.435 -0.0855  0.7248  0.1139
  122fsi    FSI 1798   1.672   2.149   1.214 -0.3379 -0.1799 -0.1785
  123fsi    FSI 1799   2.835   2.539   1.075 -0.1854 -0.7222  0.2367
  123fsi    SBT 1800   2.789   2.389   1.053  0.1867  0.0429  0.1195
  123fsi    NBT 1801   2.632   2.407   1.040  0.4651 -0.8364 -0.5685
  123fsi    OBT 1802   2.855   2.357   0.928  0.0546  0.1720  0.4640
  123fsi    OBT 1803   2.835   2.326   1.172  0.0298 -0.3082  0.2117
  123fsi    SBT 1804   2.527   2.345   1.140  0.2394  0.0593 -0.3399
  123fsi    OBT 1805   2.555   2.384   1.276  0.5883  0.2615 -0.1376
  123fsi    OBT 1806   2.499   2.208   1.115 -0.1197 -0.4232  0.4267
  123fsi    FSI 1807   2.389   2.420   1.109  0.4761 -0.1181 -1.1632
  124fsi    FSI 1808   1.309   2.125   1.471  0.4144  0.2896  0.2662
  124fsi    SBT 1809   1.361   2.161   1.617 -0.4332 -0.1527 -0.0924
  124fsi    NBT 1810   1.287   2.054   1.701 -0.2836  0.2409 -0.5043
  124fsi    OBT 1811   1.503   2.154   1.605 -0.2631  0.2031 -0.4173
  124fsi    OBT 1812   1.307   2.293   1.642 -0.4116  1.1575  0.9519
  124fsi    SBT 1813   1.346   1.915   1.733 -0.3143 -0.6563 -0.2994
  124fsi    OBT 1814   1.251   1.833   1.800  0.3288  0.1428 -0.4879
  124fsi    OBT 1815   1.480   1.924   1.788  0.4520  0.1989  0.1438
  124fsi    FSI 1816   1.362   1.839   1.601 -0.3825 -0.6380  0.0365
  125fsi    FSI 1817   2.525   0.355   0.167 -0.1706  0.1460  0.3234
  125fsi    SBT 1818   2.414   0.443   0.232 -0.2462  0.5657 -0.0844
  125fsi    NBT 1819   2.480   0.585   0.221  0.0401 -0.1947  1.2277
  125fsi    OBT 1820   2.310   0.433   0.133 -0.5649  0.0554 -0.2666
  125fsi    OBT 1821   2.399   0.394   0.364  0.4009 -0.1863 -0.3574
  125fsi    SBT 1822   2.571   0.663   0.321 -0.5406  0.0057 -0.0854
  125fsi    OBT 1823   2.661   0.757   0.263 -0.7684  0.2849  0.4409
  125fsi    OBT 1824   2.616   0.572   0.421  0.2347  0.5208  0.6786
  125fsi    FSI 1825   2.462   0.750   0.391 -0.2340  0.4983  0.1151
  126fsi    FSI 1826   2.770   2.192   0.051  0.0494 -0.7047  0.1281
  126fsi    SBT 1827   2.825   2.133   0.183 -0.3162 -0.3178  0.3865
  126fsi    NBT 1828   2.832   2.265   0.274  0.1648 -0.0408 -0.5847
  126fsi    OBT 1829   2.732   2.033   0.232 -0.1106 -0.0372  0.7266
  126fsi    OBT 1830   2.959   2.091   0.149 -0.2559 -0.1049  0.7826
  126fsi    SBT 1831   2.708   2.337   0.334  0.4373  0.0708 -0.2110
  126fsi    OBT 1832   2.585   2.273   0.314  0.0546 -0.0982 -0.4582
  126fsi    OBT 1833   2.712   2.479   0.308  0.1170 -0.0072 -0.2888
  126fsi    FSI 1834   2.725   2.328   0.491 -0.5186 -0.3730 -0.0531
  127fsi    FSI 1835   2.318   2.626   0.660  0.3341  0.1134  0.3532
  127fsi    SBT 1836   2.433   2.680   0.568  0.6052  0.2514  0.2599
  127fsi    NBT 1837   2.428   2.833   0.608 -0.1536 -0.2082  0.2410
  127fsi    OBT 1838   2.553   2.614   0.618  0.0945 -0.4335 -0.2324
  127fsi    OBT 1839   2.387   2.658   0.438  0.3254 -0.4204 -0.1659
  127fsi    SBT 1840   2.385   2.971   0.541 -0.0424 -0.2641  0.3360
  127fsi    OBT 1841   2.261   2.961   0.473 -0.3518 -0.3072  0.1921
  127fsi    OBT 1842   2.494   3.041   0.479 -0.0793 -0.5528 -0.1714
  127fsi    FSI 1843   2.360   3.067   0.666  0.5650 -0.6344  0.4546
  128fsi    FSI 1844   0.676   2.867   2.126 -0.4003  0.2617 -0.3794
  128fsi    SBT 1845   0.798   2.964   2.093 -0.4939  0.0019  0.0143
  128fsi    NBT 1846   0.924   2.879   2.140  0.3076  0.5820 -0.6690
  128fsi    OBT 1847   0.787   2.967   1.953  0.3076  0.1863 -0.4888
  128fsi    OBT 1848   0.757   3.087   2.166 -0.7865  0.6930  0.1205
  128fsi    SBT 1849   0.986   2.867   2.283 -0.3486 -0.2420 -0.0780
  128fsi    OBT 1850   0.916   2.922   2.391 -0.0676 -0.1371 -0.5666
  128fsi    OBT 1851   1.127   2.898   2.281 -0.4078  0.1384  0.3194
  128fsi    FSI 1852   0.982   2.708   2.312  0.5869  0.5526 -0.8668
  129fsi    FSI 1853   0.179   1.900   2.409  0.3175  0.7364  0.7405
  129fsi    SBT 1854   0.106   1.871   2.543 -0.2506  0.5221  0.1359
  129fsi    NBT 1855   0.191   1.950   2.647 -0.0969  0.3639 -0.5534
  129fsi    OBT 1856  -0.023   1.932   2.533  0.2992 -0.6976  0.1650
  129fsi    OBT 1857   0.115   1.722   2.562  0.0877 -0.5749 -0.5612
  129fsi    SBT 1858   0.263   1.915   2.777 -0.1212  0.5973  0.1041
  129fsi    OBT 1859   0.191   1.814   2.850 -0.7587  0.8999  0.8169
  129fsi    OBT 1860   0.312   2.026   2.855  0.6915  0.1327  0.2944
  129fsi    FSI 1861   0.389   1.847   2.726  0.3241  0.0268  0.8042
  130fsi    FSI 1862   1.642   1.748   2.039  1.0267 -0.0869 -0.1637
  130fsi    SBT 1863   1.723   1.820   2.152  0.4413 -0.1436 -0.0739
  130fsi    NBT 1864   1.730   1.976   2.119 -0.2289 -0.4271 -0.5195
  130fsi    OBT 1865   1.637   1.794   2.264  0.0166 -0.5377  0.2014
  130fsi    OBT 1866   1.852   1.754   2.150  0.9190  0.3014  0.3328
  130fsi    SBT 1867   1.815   2.048   2.004  0.2704  0.3009  0.0694
  130fsi    OBT 1868   1.731   2.094   1.898  0.3415  0.3503 -0.5862
  130fsi    OBT 1869   1.930   1.971   1.963  0.1798  0.0722  0.8953
  130fsi    FSI 1870   1.870   2.184   2.083  0.1924  0.1961  0.0873
  131fsi    FSI 1871   2.703   0.920   1.283  0.1847  0.2204  0.4643
  131fsi    SBT 1872   2.628   0.814   1.200  0.0042 -0.3493  0.1303
  131fsi    NBT 1873   2.745   0.712   1.191 -0.6499 -0.5888 -0.7029
  131fsi    OBT 1874   2.515   0.773   1.283  0.1995  0.3542 -0.0388
  131fsi    OBT 1875   2.606   0.888   1.083  0.1312 -0.6685  0.6548
  131fsi    SBT 1876   2.851   0.673   1.081  0.2904  0.3009  0.0079
  131fsi    OBT 1877   2.958   0.591   1.124 -0.3256 -0.1071 -0.0002
  131fsi    OBT 1878   2.883   0.787   1.002  0.2557  0.0044 -0.5941
  131fsi    FSI 1879   2.774   0.583   0.982  0.4762 -0.2963  0.2612
  132fsi    FSI 1880   0.142   1.615   0.675 -0.1788 -0.2866  0.0041
  132fsi    SBT 1881   0.249   1.610   0.562  0.1841  0.0188  0.3819
  132fsi    NBT 1882   0.374   1.677   0.624  0.1283 -0.8886  0.3276
  132fsi    OBT 1883   0.254   1.472   0.531 -0.1724 -0.0748 -0.2589
  132fsi    OBT 1884   0.202   1.699   0.459 -0.2024  0.4020 -0.1195
  132fsi    SBT 1885   0.465   1.601   0.728 -0.0522  0.4245 -0.0850
  132fsi    OBT 1886   0.600   1.584   0.680 -0.2558 -0.7958  0.2224
  132fsi    OBT 1887   0.397   1.487   0.792  0.2358 -0.2947  0.0308
  132fsi    FSI 1888   0.475   1.713   0.842 -0.4048  0.9689 -0.0987
  133fsi    FSI 1889   0.420   2.202   1.401 -0.4974 -0.0602  0.0278
  133fsi    SBT 1890   0.379   2.322   1.484  0.0237 -0.2560  0.3221
  133fsi    NBT 1891   0.383   2.260   1.627 -0.6706  0.2255  0.2523
  133fsi    OBT 1892   0.479   2.418   1.455  0.0786  0.0192 -0.1116
  133fsi    OBT 1893   0.247   2.356   1.437 -0.2947 -0.0112  0.6136
  133fsi    SBT 1894   0.301   2.135   1.687 -0.3772  0.3278  0.7022
  133fsi    OBT 1895   0.355   2.008   1.640 -0.5662  0.5220 -0.3295
  133fsi    OBT 1896   0.158   2.145   1.689 -0.0654  0.0081  0.4401
  133fsi    FSI 1897   0.343   2.154   1.841 -0.3305  0.4751  0.3320
  134fsi    FSI 1898   2.765   0.295   0.342 -0.1987  0.0855  0.4442
  134fsi    SBT 1899   2.864   0.230   0.240 -0.1598  0.1751  0.4864
  134fsi    NBT 1900   2.992   0.319   0.243  0.2389 -0.1345 -0.2054
  134fsi    OBT 1901   2.891   0.103   0.296  0.1054  0.2634  0.4383
  134fsi    OBT 1902   2.790   0.235   0.112  0.3146  0.4724 -0.0775
  134fsi    SBT 1903   3.136   0.259   0.221  0.0222 -0.4313 -0.1940
  134fsi    OBT 1904   3.146   0.160   0.118  0.2764  0.0655 -0.1351
  134fsi    OBT 1905   3.198   0.238   0.348  0.2343 -0.0221  0.3363
  134fsi    FSI 1906   3.213   0.385   0.162  0.0405  0.2365 -0.0831
  135fsi    FSI 1907   1.866   1.468   0.064 -0.5035  0.3026  0.6282
  135fsi    SBT 1908   1.986   1.464  -0.033 -0.1589 -0.5594 -0.1302
  135fsi    NBT 1909   2.049   1.614  -0.026  0.0957  0.1270  0.3971
  135fsi    OBT 1910   2.060   1.351   0.016 -0.5535 -0.2349 -0.1541
  135fsi    OBT 1911   1.918   1.445  -0.157 -0.0895  0.0448 -0.4242
  135fsi    SBT 1912   2.188   1.669   0.031  0.0111 -0.1841  0.1119
  135fsi    OBT 1913   2.255   1.568   0.102 -0.6210 -0.5399  0.4354
  135fsi    OBT 1914   2.187   1.806   0.087 -0.9212  0.1027  0.2638
  135fsi    FSI 1915   2.275   1.682  -0.105 -0.0706 -0.1010  0.5002
  136fsi    FSI 1916   0.746   1.333   0.514  0.2416 -0.3975 -0.0740
  136fsi    SBT 1917   0.847   1.209   0.495  0.1933 -0.1138 -0.1618
  136fsi    NBT 1918   0.940   1.261   0.379  0.7608 -0.9524 -0.1544
  136fsi    OBT 1919   0.917   1.197   0.622 -0.0165 -0.3206 -0.1331
  136fsi    OBT 1920   0.775   1.097   0.456  0.8337 -0.3367 -0.0362
  136fsi    SBT 1921   0.956   1.199   0.231  0.4849 -0.2403  0.1829
  136fsi    OBT 1922   0.874   1.089   0.188 -0.8117 -0.4317 -0.1406
  136fsi    OBT 1923   1.096   1.176   0.205 -0.1729 -0.8640  0.7222
  136fsi    FSI 1924   0.916   1.309   0.135  0.1788  0.0545  0.3745
  137fsi    FSI 1925   2.481   2.245   2.804 -0.2020 -0.1604 -0.4468
  137fsi    SBT 1926   2.381   2.133   2.862  0.4033 -0.1900 -0.3445
  137fsi    NBT 1927   2.268   2.215   2.940  0.9689  0.6945  0.1261
  137fsi    OBT 1928   2.335   2.066   2.746 -0.0164 -0.0862 -0.3591
  137fsi    OBT 1929   2.470   2.061   2.952  0.1809  0.2880 -0.4742
  137fsi    SBT 1930   2.208   2.185   3.085 -0.0416  0.0524 -0.0133
  137fsi    OBT 1931   2.288   2.087   3.158 -0.2917 -0.3508 -0.2742
  137fsi    OBT 1932   2.066   2.169   3.099 -0.6409 -0.3352  0.0959
  137fsi    FSI 1933   2.223   2.315   3.178 -0.2582  0.5664 -0.1181
  138fsi    FSI 1934   2.407   2.708   1.413  0.2625 -0.4430  0.4439
  138fsi    SBT 1935   2.307   2.743   1.525  0.0429 -0.0050 -0.1425
  138fsi    NBT 1936   2.186   2.804   1.441  0.1760 -0.5332 -0.6504
  138fsi    OBT 1937   2.271   2.620   1.590 -0.5050  0.0669  0.5789
  138fsi    OBT 1938   2.378   2.846   1.599  0.3041 -0.1191 -0.8173
  138fsi    SBT 1939   2.044   2.753   1.397 -0.1891  0.1747 -0.5359
  138fsi    OBT 1940   2.011   2.616   1.427 -0.2536 -0.0159 -0.0440
  138fsi    OBT 1941   2.005   2.787   1.261  0.2842  0.3081 -0.0286
  138fsi    FSI 1942   1.948   2.824   1.496  0.1914 -0.7617  0.4909
  139fsi    FSI 1943   1.462   2.556   0.529 -0.4188  0.6717  0.0216
  139fsi    SBT 1944   1.313   2.615   0.536 -0.1392  0.3440 -0.3172
  139fsi    NBT 1945   1.322   2.700   0.671 -0.3509  0.4240 -0.0308
  139fsi    OBT 1946   1.301   2.693   0.417  0.9217  0.0495 -0.6055
  139fsi    OBT 1947   1.228   2.498   0.556 -0.1120  0.2376 -0.2875
  139fsi    SBT 1948   1.314   2.648   0.821 -0.0394 -0.0549 -0.2326
  139fsi    OBT 1949   1.329   2.748   0.927  0.3986  0.3880 -0.0310
  139fsi    OBT 1950   1.374   2.519   0.851  0.6779 -0.1495  0.0814
  139fsi    FSI 1951   1.159   2.615   0.825  0.0159  0.5483 -0.2900
  140fsi    FSI 1952   0.417   1.436   2.058  0.0518 -0.9246 -0.3774
  140fsi    SBT 1953   0.528   1.324   2.029  0.3400 -0.0925 -0.0968
  140fsi    NBT 1954   0.487   1.291   1.880 -0.3983 -0.3633 -0.4407
  140fsi    OBT 1955   0.652   1.398   2.030  0.0366  0.3666  0.1923
  140fsi    OBT 1956   0.507   1.221   2.125 -0.9421  0.2341  0.4741
  140fsi    SBT 1957   0.455   1.153   1.824 -0.2053 -0.5156 -0.2130
  140fsi    OBT 1958   0.350   1.163   1.726 -0.6052  0.3182 -0.8441
  140fsi    OBT 1959   0.461   1.036   1.909 -1.0126  0.9475 -0.7586
  140fsi    FSI 1960   0.578   1.137   1.727 -0.0526  0.2778  0.2808
  141fsi    FSI 1961   2.150   1.796   0.474  0.2270  0.0007 -0.3086
  141fsi    SBT 1962   2.275   1.728   0.533 -0.7221  0.3734  0.0086
  141fsi    NBT 1963   2.366   1.852   0.532 -0.2188 -0.1569 -0.1143
  141fsi    OBT 1964   2.231   1.693   0.665 -0.5330 -0.4415  0.1322
  141fsi    OBT 1965   2.309   1.625   0.439  0.2991  0.2489  0.2107
  141fsi    SBT 1966   2.493   1.878   0.456 -0.0632 -0.2474  0.0615
  141fsi    OBT 1967   2.532   2.012   0.475  0.3413 -0.4612  0.4971
  141fsi    OBT 1968   2.467   1.832   0.321 -0.8029  0.2892 -0.1344
  141fsi    FSI 1969   2.604   1.793   0.520  0.2930 -0.0442  0.0204
  142fsi    FSI 1970   1.681   0.240   2.483  0.1124  0.0429 -0.2374
  142fsi    SBT 1971   1.612   0.102   2.515  0.2214 -0.1624  0.0994
  142fsi    NBT 1972   1.513   0.146   2.633  0.2108  0.4744 -0.1077
  142fsi    OBT 1973   1.546   0.074   2.392  0.3388  0.3263  0.1018
  142fsi    OBT 1974   1.716   0.013   2.557  0.1095  0.1232  0.4518
  142fsi    SBT 1975   1.377   0.082   2.673  0.1511  0.0676  0.1556
  142fsi    OBT 1976   1.316   0.007   2.565  0.1464  0.3367 -0.7019
  142fsi    OBT 1977   1.290   0.172   2.741  0.4833  0.3361 -0.0568
  142fsi    FSI 1978   1.412  -0.028   2.785 -0.0583 -0.1918 -0.6417
  143fsi    FSI 1979   1.844   1.451   1.719  0.4107  0.5590 -0.1363
  143fsi    SBT 1980   1.796   1.583   1.779  0.2467  0.0767 -0.2833
  143fsi    NBT 1981   1.827   1.690   1.667 -0.0001  0.7160  0.1964
  143fsi    OBT 1982   1.657   1.563   1.797  0.3591  1.0999  0.4420
  143fsi    OBT 1983   1.874   1.612   1.894  0.0605  0.6273 -0.0499
  143fsi    SBT 1984   1.945   1.793   1.648  0.4120 -0.2773 -0.0877
  143fsi    OBT 1985   2.051   1.770   1.742  0.1347  0.5649  0.5645
  143fsi    OBT 1986   1.894   1.926   1.630  0.5693 -0.0475 -0.4008
  143fsi    FSI 1987   2.006   1.751   1.509  0.0608 -0.2723  0.2984
  144fsi    FSI 1988   0.076   2.252   2.722  0.0015 -0.2264  0.3953
  144fsi    SBT 1989  -0.040   2.300   2.618  0.0385  0.1016 -0.4319
  144fsi    NBT 1990   0.004   2.231   2.483  0.3157  0.3504  0.0058
  144fsi    OBT 1991  -0.155   2.242   2.686 -0.0252  0.1399  0.7865
  144fsi    OBT 1992  -0.028   2.444   2.619 -0.1148  1.0536 -0.0903
  144fsi    SBT 1993   0.086   2.291   2.362 -0.1523 -0.2720  0.1507
  144fsi    OBT 1994   0.146   2.418   2.389 -0.3179 -0.3159  0.3608
  144fsi    OBT 1995   0.019   2.283   2.240  0.2902  0.2593  0.2981
  144fsi    FSI 1996   0.201   2.191   2.354 -0.4042  0.0338  0.5250
  145fsi    FSI 1997   0.575   2.277   1.078  0.4558 -0.0353 -0.3217
  145fsi    SBT 1998   0.494   2.157   1.015  0.1326 -0.2833 -0.0292
  145fsi    NBT 1999   0.601   2.060   0.946 -0.7628  0.2442  0.0428
  145fsi    OBT 2000   0.428   2.102   1.130  0.2445 -0.4232  0.4999
  145fsi    OBT 2001   0.414   2.218   0.916 -0.3398 -0.3889 -0.1789
  145fsi    SBT 2002   0.716   1.977   1.016  0.2187  0.1803 -0.1407
  145fsi    OBT 2003   0.781   2.043   1.123 -0.2882 -0.1279 -0.2016
  145fsi    OBT 2004   0.798   1.912   0.919 -1.1521  0.4534 -0.4776
  145fsi    FSI 2005   0.647   1.853   1.088 -1.0472  0.1138  0.1683
  146fsi    FSI 2006   1.962   1.035   0.040 -0.5062 -0.7593  0.0234
  146fsi    SBT 2007   1.821   0.962   0.056 -0.3287  0.0053  0.1975
  146fsi    NBT 2008   1.728   1.053  -0.028  0.1712 -0.0723 -0.2346
  146fsi    OBT 2009   1.839   0.835  -0.006 -0.4709  0.0892 -0.1092
  146fsi    OBT 2010   1.805   0.973   0.200 -0.1498 -0.6577 -0.5470
  146fsi    SBT 2011   1.598   1.124   0.029  0.2819 -0.3080 -0.0365
  146fsi    OBT 2012   1.539   1.055   0.135 -0.2348 -0.1516 -0.5216
  146fsi    OBT 2013   1.511   1.170  -0.074 -0.3084  0.3974  0.2327
  146fsi    FSI 2014   1.665   1.257   0.090  0.4837 -0.1334  0.1427
  147fsi    FSI 2015   2.625   1.263   1.255 -0.5640 -0.2810  0.2883
  147fsi    SBT 2016   2.759   1.281   1.167 -0.3594 -0.3072  0.1034
  147fsi    NBT 2017   2.875   1.268   1.269  0.3119 -0.2982  0.3783
  147fsi    OBT 2018   2.759   1.160   1.081 -0.8514  0.2827 -0.1239
  147fsi    OBT 2019   2.752   1.411   1.107  0.4081  0.1396 -0.0645
  147fsi    SBT 2020   2.946   1.381   1.360  0.1538 -0.2629 -0.1162
  147fsi    OBT 2021   3.040   1.322   1.450 -0.1897 -0.2166 -0.2546
  147fsi    OBT 2022   2.862   1.494   1.406  0.4862  0.0794 -0.5499
  147fsi    FSI 2023   3.037   1.451   1.264  0.7259 -0.7131 -0.0530
  148fsi    FSI 2024   2.865   0.484   1.788 -0.3383  0.1880 -0.6215
  148fsi    SBT 2025   2.860   0.392   1.663  0.0682 -0.0862 -0.3067
  148fsi    NBT 2026   2.982   0.438   1.576 -0.4139 -0.4617 -0.3810
  148fsi    OBT 2027   2.879   0.260   1.707  0.1590 -0.1540 -0.0807
  148fsi    OBT 2028   2.745   0.434   1.588  0.1824  0.1402  0.2669
  148fsi    SBT 2029   3.097   0.365   1.494 -0.2159 -0.1911  0.0660
  148fsi    OBT 2030   3.132   0.428   1.366  0.5236  0.7145 -0.6918
  148fsi    OBT 2031   3.083   0.223   1.493 -0.4475  0.2476  0.1267
  148fsi    FSI 2032   3.224   0.392   1.583  0.0520 -1.2218  0.4982
  149fsi    FSI 2033   1.205   2.250   0.269 -0.5499 -0.2615  0.1446
  149fsi    SBT 2034   1.054   2.244   0.319 -0.1919 -0.3073 -0.0576
  149fsi    NBT 2035   0.967   2.153   0.225  0.3811  0.3139 -0.2797
  149fsi    OBT 2036   1.069   2.172   0.441  0.0100 -0.3880 -0.4596
  149fsi    OBT 2037   1.022   2.382   0.320 -0.7119  0.7134  0.3046
  149fsi    SBT 2038   0.815   2.180   0.177 -0.2233  0.4082  0.0151
  149fsi    OBT 2039   0.723   2.213   0.278  0.2326  0.1122 -0.7013
  149fsi    OBT 2040   0.767   2.096   0.069 -0.0734 -0.1698  0.5472
  149fsi    FSI 2041   0.838   2.318   0.101 -0.0050 -0.2820  0.2717
  150fsi    FSI 2042   0.379   1.554   2.655  0.5904  0.2390  0.3423
  150fsi    SBT 2043   0.516   1.493   2.602 -0.2782 -0.0212  0.1496
  150fsi    NBT 2044   0.569   1.608   2.510 -0.5338  0.2141  0.6734
  150fsi    OBT 2045   0.595   1.476   2.723 -0.0611 -0.4372  0.4275
  150fsi    OBT 2046   0.474   1.365   2.546 -0.3971 -0.6247  0.3848
  150fsi    SBT 2047   0.522   1.637   2.363  0.5076  0.0913 -0.0248
  150fsi    OBT 2048   0.510   1.513   2.296 -0.2719  0.0385  0.0506
  150fsi    OBT 2049   0.571   1.755   2.299  0.3692 -0.6227  0.0762
  150fsi    FSI 2050   0.373   1.672   2.387 -0.1990  0.3022  0.1582
   2.91125   2.91125   2.91125
