created by fftool
 2300
    1Li      Li    1   2.331   2.411   2.581
    2Li      Li    2   0.501   2.770   2.855
    3Li      Li    3   1.876   0.782   0.898
    4Li      Li    4   1.881   0.608   0.376
    5Li      Li    5   2.174   0.460   2.836
    6Li      Li    6   1.136   0.830   1.319
    7Li      Li    7   1.621   2.894   3.075
    8Li      Li    8   1.768   3.099   0.576
    9Li      Li    9   1.046   2.239   2.208
   10Li      Li   10   3.087   2.384   2.542
   11Li      Li   11   2.759   1.418   2.351
   12Li      Li   12   2.775   1.309   2.680
   13Li      Li   13   0.916   3.013   1.881
   14Li      Li   14   2.102   0.774   1.419
   15Li      Li   15   0.902   2.952   2.252
   16Li      Li   16   1.933   2.848   2.237
   17Li      Li   17   0.464   0.959   2.147
   18Li      Li   18   2.566   2.664   2.477
   19Li      Li   19   0.360   1.870   0.870
   20Li      Li   20   2.780   1.214   0.569
   21Li      Li   21   0.753   0.790   0.511
   22Li      Li   22   2.925   2.944   2.473
   23Li      Li   23   1.939   0.805   1.630
   24Li      Li   24   2.484   2.669   2.694
   25Li      Li   25   1.186   2.258   2.040
   26Li      Li   26   2.238   0.172   1.002
   27Li      Li   27   2.261   2.879   1.385
   28Li      Li   28   0.791   1.575   0.150
   29Li      Li   29   1.067   0.718   2.306
   30Li      Li   30   3.098   1.615   0.505
   31Li      Li   31   2.926   1.417   2.562
   32Li      Li   32   0.767   1.144   0.572
   33Li      Li   33   0.410   1.235   1.796
   34Li      Li   34   0.771   2.971   2.744
   35Li      Li   35   2.898   2.063   0.722
   36Li      Li   36   2.678   1.112   2.523
   37Li      Li   37   1.054   3.099   1.041
   38Li      Li   38   0.482   2.639   0.714
   39Li      Li   39   0.766   1.215   2.897
   40Li      Li   40   0.252   0.672   0.381
   41Li      Li   41   1.647   2.909   2.516
   42Li      Li   42   2.988   1.259   2.702
   43Li      Li   43   0.366   0.824   1.505
   44Li      Li   44   1.537   2.764   1.294
   45Li      Li   45   2.198   2.054   2.029
   46Li      Li   46   2.406   3.037   0.447
   47Li      Li   47   0.442   0.622   1.593
   48Li      Li   48   1.066   0.813   1.556
   49Li      Li   49   2.182   2.695   2.265
   50Li      Li   50   2.355   2.890   1.789
   51c3c      N   51   2.058   2.743   2.888
   51c3c     C1   52   2.164   2.641   2.886
   51c3c     C2   53   1.926   2.677   2.881
   51c3c     C3   54   2.101   2.502   2.876
   51c3c     C4   55   1.946   2.526   2.872
   51c3c     C5   56   2.067   2.820   3.013
   51c3c     C6   57   2.074   2.834   2.774
   51c3c     H1   58   2.223   2.647   2.977
   51c3c     H2   59   2.228   2.658   2.800
   51c3c     H3   60   1.868   2.702   2.969
   51c3c     H4   61   1.874   2.712   2.792
   51c3c     H5   62   2.129   2.441   2.961
   51c3c     H6   63   2.134   2.451   2.785
   51c3c     H7   64   1.897   2.476   2.956
   51c3c     H8   65   1.902   2.486   2.780
   51c3c     H9   66   2.164   2.868   3.019
   51c3c    H10   67   1.988   2.895   3.015
   51c3c    H11   68   2.055   2.753   3.098
   51c3c    H12   69   1.996   2.909   2.776
   51c3c    H13   70   2.172   2.882   2.780
   51c3c     C7   71   2.065   2.754   2.644
   51c3c    H14   72   1.967   2.705   2.638
   51c3c    H15   73   2.143   2.678   2.642
   51c3c     C8   74   2.082   2.848   2.525
   51c3c    H16   75   2.179   2.897   2.530
   51c3c    H17   76   2.003   2.924   2.527
   51c3c    H18   77   2.075   2.791   2.432
   52c3c      N   78   1.753   0.346   0.984
   52c3c     C1   79   1.857   0.447   1.013
   52c3c     C2   80   1.783   0.222   1.058
   52c3c     C3   81   1.960   0.387   1.109
   52c3c     C4   82   1.911   0.241   1.139
   52c3c     C5   83   1.622   0.398   1.027
   52c3c     C6   84   1.750   0.318   0.840
   52c3c     H1   85   1.811   0.534   1.058
   52c3c     H2   86   1.906   0.475   0.920
   52c3c     H3   87   1.700   0.199   1.126
   52c3c     H4   88   1.795   0.140   0.987
   52c3c     H5   89   1.965   0.445   1.201
   52c3c     H6   90   2.059   0.387   1.064
   52c3c     H7   91   1.892   0.227   1.245
   52c3c     H8   92   1.987   0.168   1.108
   52c3c     H9   93   1.600   0.490   0.972
   52c3c    H10   94   1.545   0.324   1.006
   52c3c    H11   95   1.624   0.419   1.134
   52c3c    H12   96   1.673   0.244   0.819
   52c3c    H13   97   1.728   0.410   0.786
   52c3c     C7   98   1.886   0.264   0.796
   52c3c    H14   99   1.908   0.172   0.850
   52c3c    H15  100   1.963   0.338   0.817
   52c3c     C8  101   1.883   0.235   0.646
   52c3c    H16  102   1.861   0.327   0.591
   52c3c    H17  103   1.806   0.161   0.625
   52c3c    H18  104   1.980   0.196   0.614
   53c3c      N  105   2.873   1.237   1.248
   53c3c     C1  106   2.799   1.131   1.318
   53c3c     C2  107   2.999   1.183   1.194
   53c3c     C3  108   2.879   1.001   1.311
   53c3c     C4  109   3.010   1.035   1.231
   53c3c     C5  110   2.791   1.289   1.137
   53c3c     C6  111   2.903   1.347   1.341
   53c3c     H1  112   2.702   1.117   1.271
   53c3c     H2  113   2.785   1.160   1.422
   53c3c     H3  114   3.000   1.194   1.086
   53c3c     H4  115   3.083   1.237   1.238
   53c3c     H5  116   2.822   0.923   1.261
   53c3c     H6  117   2.904   0.966   1.412
   53c3c     H7  118   3.017   0.974   1.141
   53c3c     H8  119   3.099   1.016   1.291
   53c3c     H9  120   2.698   1.329   1.176
   53c3c    H10  121   2.846   1.368   1.085
   53c3c    H11  122   2.769   1.208   1.067
   53c3c    H12  123   2.957   1.426   1.289
   53c3c    H13  124   2.809   1.387   1.381
   53c3c     C7  125   2.988   1.294   1.457
   53c3c    H14  126   3.081   1.253   1.417
   53c3c    H15  127   2.934   1.215   1.509
   53c3c     C8  128   3.019   1.408   1.554
   53c3c    H16  129   2.926   1.448   1.594
   53c3c    H17  130   3.073   1.486   1.502
   53c3c    H18  131   3.080   1.370   1.636
   54c3c      N  132   0.303   2.134   1.282
   54c3c     C1  133   0.218   2.015   1.292
   54c3c     C2  134   0.444   2.095   1.295
   54c3c     C3  135   0.305   1.891   1.313
   54c3c     C4  136   0.454   1.944   1.314
   54c3c     C5  137   0.282   2.198   1.151
   54c3c     C6  138   0.268   2.229   1.389
   54c3c     H1  139   0.160   2.003   1.201
   54c3c     H2  140   0.150   2.026   1.377
   54c3c     H3  141   0.498   2.123   1.205
   54c3c     H4  142   0.488   2.145   1.381
   54c3c     H5  143   0.290   1.820   1.232
   54c3c     H6  144   0.281   1.842   1.407
   54c3c     H7  145   0.512   1.898   1.235
   54c3c     H8  146   0.502   1.920   1.409
   54c3c     H9  147   0.177   2.228   1.142
   54c3c    H10  148   0.345   2.287   1.144
   54c3c    H11  149   0.307   2.129   1.072
   54c3c    H12  150   0.331   2.317   1.382
   54c3c    H13  151   0.164   2.258   1.380
   54c3c     C7  152   0.290   2.162   1.525
   54c3c    H14  153   0.395   2.133   1.535
   54c3c    H15  154   0.227   2.073   1.533
   54c3c     C8  155   0.255   2.260   1.637
   54c3c    H16  156   0.150   2.289   1.627
   54c3c    H17  157   0.318   2.349   1.629
   54c3c    H18  158   0.270   2.213   1.734
   55c3c      N  159   0.460   2.947   0.984
   55c3c     C1  160   0.420   2.806   0.998
   55c3c     C2  161   0.356   3.034   1.042
   55c3c     C3  162   0.285   2.798   1.069
   55c3c     C4  163   0.243   2.947   1.097
   55c3c     C5  164   0.587   2.970   1.053
   55c3c     C6  165   0.476   2.979   0.841
   55c3c     H1  166   0.495   2.753   1.057
   55c3c     H2  167   0.412   2.760   0.900
   55c3c     H3  168   0.399   3.093   1.122
   55c3c     H4  169   0.316   3.100   0.965
   55c3c     H5  170   0.293   2.742   1.162
   55c3c     H6  171   0.211   2.749   1.005
   55c3c     H7  172   0.230   2.964   1.204
   55c3c     H8  173   0.148   2.971   1.048
   55c3c     H9  174   0.664   2.906   1.010
   55c3c    H10  175   0.616   3.075   1.043
   55c3c    H11  176   0.575   2.946   1.159
   55c3c    H12  177   0.505   3.084   0.830
   55c3c    H13  178   0.553   2.915   0.798
   55c3c     C7  179   0.343   2.956   0.768
   55c3c    H14  180   0.266   3.020   0.811
   55c3c    H15  181   0.314   2.851   0.779
   55c3c     C8  182   0.360   2.989   0.620
   55c3c    H16  183   0.437   2.925   0.577
   55c3c    H17  184   0.389   3.093   0.609
   55c3c    H18  185   0.265   2.972   0.568
   56c3c      N  186   1.425   1.985   1.093
   56c3c     C1  187   1.326   1.877   1.106
   56c3c     C2  188   1.561   1.928   1.097
   56c3c     C3  189   1.399   1.743   1.119
   56c3c     C4  190   1.552   1.776   1.113
   56c3c     C5  191   1.405   2.055   0.966
   56c3c     C6  192   1.409   2.080   1.204
   56c3c     H1  193   1.262   1.875   1.018
   56c3c     H2  194   1.265   1.894   1.195
   56c3c     H3  195   1.613   1.952   1.005
   56c3c     H4  196   1.615   1.970   1.181
   56c3c     H5  197   1.371   1.676   1.038
   56c3c     H6  198   1.373   1.694   1.213
   56c3c     H7  199   1.600   1.726   1.029
   56c3c     H8  200   1.602   1.744   1.205
   56c3c     H9  201   1.304   2.097   0.963
   56c3c    H10  202   1.478   2.135   0.956
   56c3c    H11  203   1.417   1.985   0.883
   56c3c    H12  204   1.482   2.160   1.195
   56c3c    H13  205   1.308   2.122   1.202
   56c3c     C7  206   1.430   2.007   1.337
   56c3c    H14  207   1.530   1.965   1.340
   56c3c    H15  208   1.356   1.927   1.347
   56c3c     C8  209   1.412   2.106   1.453
   56c3c    H16  210   1.312   2.148   1.450
   56c3c    H17  211   1.486   2.186   1.443
   56c3c    H18  212   1.427   2.054   1.548
   57c3c      N  213   0.728   0.304   1.814
   57c3c     C1  214   0.610   0.217   1.830
   57c3c     C2  215   0.688   0.445   1.828
   57c3c     C3  216   0.487   0.303   1.855
   57c3c     C4  217   0.537   0.452   1.854
   57c3c     C5  218   0.828   0.271   1.917
   57c3c     C6  219   0.787   0.283   1.681
   57c3c     H1  220   0.626   0.150   1.914
   57c3c     H2  221   0.596   0.159   1.739
   57c3c     H3  222   0.741   0.490   1.911
   57c3c     H4  223   0.711   0.499   1.736
   57c3c     H5  224   0.442   0.278   1.952
   57c3c     H6  225   0.412   0.287   1.778
   57c3c     H7  226   0.517   0.501   1.950
   57c3c     H8  227   0.487   0.509   1.776
   57c3c     H9  228   0.858   0.167   1.906
   57c3c    H10  229   0.915   0.335   1.905
   57c3c    H11  230   0.784   0.286   2.016
   57c3c    H12  231   0.874   0.347   1.669
   57c3c    H13  232   0.817   0.179   1.670
   57c3c     C7  233   0.683   0.317   1.573
   57c3c    H14  234   0.653   0.422   1.584
   57c3c    H15  235   0.596   0.253   1.585
   57c3c     C8  236   0.744   0.296   1.435
   57c3c    H16  237   0.774   0.191   1.424
   57c3c    H17  238   0.832   0.360   1.423
   57c3c    H18  239   0.671   0.320   1.358
   58c3c      N  240   1.898   2.195   0.489
   58c3c     C1  241   1.815   2.132   0.592
   58c3c     C2  242   1.821   2.302   0.423
   58c3c     C3  243   1.677   2.198   0.596
   58c3c     C4  244   1.681   2.309   0.485
   58c3c     C5  245   2.018   2.253   0.552
   58c3c     C6  246   1.938   2.095   0.389
   58c3c     H1  247   1.863   2.143   0.690
   58c3c     H2  248   1.804   2.026   0.570
   58c3c     H3  249   1.872   2.398   0.437
   58c3c     H4  250   1.813   2.280   0.317
   58c3c     H5  251   1.658   2.241   0.694
   58c3c     H6  252   1.599   2.125   0.574
   58c3c     H7  253   1.663   2.408   0.528
   58c3c     H8  254   1.605   2.292   0.409
   58c3c     H9  255   2.075   2.174   0.600
   58c3c    H10  256   2.080   2.301   0.475
   58c3c    H11  257   1.988   2.328   0.625
   58c3c    H12  258   2.000   2.143   0.313
   58c3c    H13  259   1.995   2.016   0.438
   58c3c     C7  260   1.814   2.035   0.324
   58c3c    H14  261   1.756   2.114   0.275
   58c3c    H15  262   1.752   1.988   0.401
   58c3c     C8  263   1.855   1.931   0.221
   58c3c    H16  264   1.912   1.852   0.269
   58c3c    H17  265   1.917   1.978   0.144
   58c3c    H18  266   1.766   1.888   0.174
   59c3c      N  267   1.360   2.958   2.216
   59c3c     C1  268   1.281   3.035   2.118
   59c3c     C2  269   1.340   2.814   2.192
   59c3c     C3  270   1.206   2.939   2.026
   59c3c     C4  271   1.245   2.795   2.074
   59c3c     C5  272   1.502   2.991   2.202
   59c3c     C6  273   1.315   2.992   2.352
   59c3c     H1  274   1.348   3.098   2.059
   59c3c     H2  275   1.209   3.098   2.171
   59c3c     H3  276   1.436   2.768   2.170
   59c3c     H4  277   1.297   2.768   2.281
   59c3c     H5  278   1.236   2.955   1.922
   59c3c     H6  279   1.099   2.955   2.033
   59c3c     H7  280   1.294   2.739   1.994
   59c3c     H8  281   1.156   2.739   2.105
   59c3c     H9  282   1.517   3.098   2.219
   59c3c    H10  283   1.560   2.934   2.274
   59c3c    H11  284   1.535   2.966   2.101
   59c3c    H12  285   1.373   2.934   2.424
   59c3c    H13  286   1.329   3.098   2.370
   59c3c     C7  287   1.167   2.957   2.367
   59c3c    H14  288   1.152   2.851   2.349
   59c3c    H15  289   1.109   3.014   2.295
   59c3c     C8  290   1.121   2.992   2.509
   59c3c    H16  291   1.135   3.098   2.527
   59c3c    H17  292   1.179   2.935   2.581
   59c3c    H18  293   1.015   2.967   2.520
   60c3c      N  294   1.600   0.301   1.887
   60c3c     C1  295   1.615   0.447   1.892
   60c3c     C2  296   1.734   0.238   1.890
   60c3c     C3  297   1.763   0.484   1.897
   60c3c     C4  298   1.841   0.347   1.895
   60c3c     C5  299   1.523   0.255   2.004
   60c3c     C6  300   1.530   0.262   1.764
   60c3c     H1  301   1.565   0.486   1.980
   60c3c     H2  302   1.570   0.491   1.802
   60c3c     H3  303   1.742   0.174   1.977
   60c3c     H4  304   1.747   0.178   1.799
   60c3c     H5  305   1.786   0.540   1.987
   60c3c     H6  306   1.791   0.544   1.811
   60c3c     H7  307   1.902   0.336   1.985
   60c3c     H8  308   1.907   0.341   1.809
   60c3c     H9  309   1.425   0.302   2.003
   60c3c    H10  310   1.513   0.147   2.001
   60c3c    H11  311   1.575   0.284   2.095
   60c3c    H12  312   1.519   0.153   1.761
   60c3c    H13  313   1.431   0.308   1.763
   60c3c     C7  314   1.610   0.308   1.643
   60c3c    H14  315   1.709   0.262   1.644
   60c3c    H15  316   1.621   0.417   1.646
   60c3c     C8  317   1.537   0.268   1.515
   60c3c    H16  318   1.439   0.314   1.513
   60c3c    H17  319   1.526   0.160   1.512
   60c3c    H18  320   1.594   0.301   1.428
   61c3c      N  321   2.923   1.950   2.268
   61c3c     C1  322   2.862   1.977   2.399
   61c3c     C2  323   2.818   1.924   2.169
   61c3c     C3  324   2.710   1.969   2.386
   61c3c     C4  325   2.681   1.934   2.236
   61c3c     C5  326   3.003   2.067   2.226
   61c3c     C6  327   3.011   1.833   2.278
   61c3c     H1  328   2.890   2.077   2.433
   61c3c     H2  329   2.896   1.903   2.471
   61c3c     H3  330   2.825   1.998   2.089
   61c3c     H4  331   2.831   1.824   2.127
   61c3c     H5  332   2.663   2.063   2.414
   61c3c     H6  333   2.670   1.891   2.452
   61c3c     H7  334   2.621   2.012   2.189
   61c3c     H8  335   2.627   1.840   2.227
   61c3c     H9  336   3.081   2.086   2.300
   61c3c    H10  337   3.048   2.047   2.129
   61c3c    H11  338   2.938   2.154   2.219
   61c3c    H12  339   3.057   1.813   2.181
   61c3c    H13  340   3.089   1.852   2.352
   61c3c     C7  341   2.929   1.711   2.321
   61c3c    H14  342   2.851   1.692   2.248
   61c3c    H15  343   2.883   1.731   2.418
   61c3c     C8  344   3.020   1.589   2.332
   61c3c    H16  345   3.098   1.608   2.405
   61c3c    H17  346   3.066   1.569   2.235
   61c3c    H18  347   2.962   1.502   2.363
   62c3c      N  348   1.512   0.815   1.591
   62c3c     C1  349   1.550   0.676   1.562
   62c3c     C2  350   1.365   0.826   1.596
   62c3c     C3  351   1.424   0.590   1.548
   62c3c     C4  352   1.303   0.688   1.570
   62c3c     C5  353   1.568   0.856   1.720
   62c3c     C6  354   1.563   0.903   1.485
   62c3c     H1  355   1.611   0.637   1.644
   62c3c     H2  356   1.607   0.672   1.470
   62c3c     H3  357   1.335   0.861   1.695
   62c3c     H4  358   1.331   0.896   1.520
   62c3c     H5  359   1.423   0.510   1.622
   62c3c     H6  360   1.419   0.545   1.449
   62c3c     H7  361   1.243   0.656   1.655
   62c3c     H8  362   1.239   0.691   1.482
   62c3c     H9  363   1.677   0.848   1.717
   62c3c    H10  364   1.540   0.959   1.742
   62c3c    H11  365   1.530   0.791   1.799
   62c3c    H12  366   1.535   1.006   1.506
   62c3c    H13  367   1.672   0.895   1.481
   62c3c     C7  368   1.504   0.861   1.350
   62c3c    H14  369   1.395   0.868   1.354
   62c3c    H15  370   1.533   0.757   1.329
   62c3c     C8  371   1.558   0.952   1.240
   62c3c    H16  372   1.666   0.944   1.236
   62c3c    H17  373   1.529   1.055   1.261
   62c3c    H18  374   1.516   0.922   1.144
   63c3c      N  375   1.660   2.119   2.528
   63c3c     C1  376   1.517   2.152   2.523
   63c3c     C2  377   1.679   1.975   2.506
   63c3c     C3  378   1.436   2.024   2.496
   63c3c     C4  379   1.542   1.909   2.485
   63c3c     C5  380   1.732   2.194   2.424
   63c3c     C6  381   1.714   2.156   2.660
   63c3c     H1  382   1.499   2.224   2.443
   63c3c     H2  383   1.486   2.195   2.618
   63c3c     H3  384   1.740   1.959   2.418
   63c3c     H4  385   1.727   1.931   2.593
   63c3c     H5  386   1.380   2.034   2.404
   63c3c     H6  387   1.366   2.005   2.577
   63c3c     H7  388   1.537   1.861   2.387
   63c3c     H8  389   1.524   1.833   2.561
   63c3c     H9  390   1.718   2.301   2.440
   63c3c    H10  391   1.838   2.170   2.428
   63c3c    H11  392   1.692   2.167   2.326
   63c3c    H12  393   1.820   2.132   2.664
   63c3c    H13  394   1.700   2.263   2.677
   63c3c     C7  395   1.640   2.078   2.769
   63c3c    H14  396   1.653   1.971   2.753
   63c3c    H15  397   1.533   2.102   2.765
   63c3c     C8  398   1.696   2.116   2.906
   63c3c    H16  399   1.682   2.223   2.922
   63c3c    H17  400   1.802   2.092   2.910
   63c3c    H18  401   1.643   2.060   2.983
   64c3c      N  402   2.761   1.905   1.713
   64c3c     C1  403   2.692   1.818   1.809
   64c3c     C2  404   2.734   2.046   1.746
   64c3c     C3  405   2.616   1.904   1.911
   64c3c     C4  406   2.644   2.053   1.869
   64c3c     C5  407   2.905   1.880   1.718
   64c3c     C6  408   2.711   1.877   1.577
   64c3c     H1  409   2.765   1.757   1.861
   64c3c     H2  410   2.621   1.754   1.757
   64c3c     H3  411   2.828   2.097   1.766
   64c3c     H4  412   2.684   2.095   1.662
   64c3c     H5  413   2.652   1.885   2.012
   64c3c     H6  414   2.510   1.883   1.908
   64c3c     H7  415   2.694   2.108   1.950
   64c3c     H8  416   2.551   2.105   1.846
   64c3c     H9  417   2.925   1.776   1.694
   64c3c    H10  418   2.956   1.945   1.647
   64c3c    H11  419   2.942   1.901   1.819
   64c3c    H12  420   2.762   1.941   1.505
   64c3c    H13  421   2.731   1.773   1.552
   64c3c     C7  422   2.561   1.903   1.571
   64c3c    H14  423   2.541   2.007   1.596
   64c3c    H15  424   2.510   1.839   1.643
   64c3c     C8  425   2.509   1.873   1.430
   64c3c    H16  426   2.529   1.769   1.405
   64c3c    H17  427   2.560   1.938   1.358
   64c3c    H18  428   2.402   1.892   1.426
   65c3c      N  429   2.905   2.138   1.242
   65c3c     C1  430   2.766   2.093   1.254
   65c3c     C2  431   2.927   2.255   1.329
   65c3c     C3  432   2.691   2.184   1.351
   65c3c     C4  433   2.796   2.290   1.400
   65c3c     C5  434   2.995   2.029   1.284
   65c3c     C6  435   2.934   2.174   1.103
   65c3c     H1  436   2.763   1.991   1.291
   65c3c     H2  437   2.718   2.098   1.156
   65c3c     H3  438   3.004   2.232   1.402
   65c3c     H4  439   2.958   2.339   1.268
   65c3c     H5  440   2.652   2.127   1.435
   65c3c     H6  441   2.607   2.233   1.302
   65c3c     H7  442   2.809   2.285   1.508
   65c3c     H8  443   2.764   2.391   1.375
   65c3c     H9  444   2.979   1.942   1.220
   65c3c    H10  445   3.099   2.062   1.276
   65c3c    H11  446   2.974   2.002   1.388
   65c3c    H12  447   3.038   2.207   1.094
   65c3c    H13  448   2.918   2.087   1.039
   65c3c     C7  449   2.841   2.287   1.059
   65c3c    H14  450   2.857   2.374   1.123
   65c3c    H15  451   2.737   2.254   1.067
   65c3c     C8  452   2.871   2.324   0.914
   65c3c    H16  453   2.855   2.237   0.850
   65c3c    H17  454   2.974   2.357   0.905
   65c3c    H18  455   2.804   2.405   0.882
   66c3c      N  456   1.420   2.932   0.750
   66c3c     C1  457   1.561   2.961   0.783
   66c3c     C2  458   1.399   2.787   0.745
   66c3c     C3  459   1.637   2.829   0.800
   66c3c     C4  460   1.531   2.715   0.776
   66c3c     C5  461   1.333   2.991   0.853
   66c3c     C6  462   1.388   2.991   0.619
   66c3c     H1  463   1.566   3.018   0.875
   66c3c     H2  464   1.606   3.018   0.702
   66c3c     H3  465   1.324   2.759   0.819
   66c3c     H4  466   1.365   2.758   0.646
   66c3c     H5  467   1.678   2.822   0.901
   66c3c     H6  468   1.719   2.822   0.729
   66c3c     H7  469   1.521   2.652   0.864
   66c3c     H8  470   1.561   2.652   0.692
   66c3c     H9  471   1.348   3.099   0.856
   66c3c    H10  472   1.229   2.970   0.828
   66c3c    H11  473   1.357   2.948   0.950
   66c3c    H12  474   1.283   2.970   0.594
   66c3c    H13  475   1.403   3.099   0.622
   66c3c     C7  476   1.478   2.930   0.512
   66c3c    H14  477   1.463   2.822   0.508
   66c3c    H15  478   1.582   2.951   0.536
   66c3c     C8  479   1.444   2.990   0.375
   66c3c    H16  480   1.460   3.098   0.379
   66c3c    H17  481   1.340   2.970   0.351
   66c3c    H18  482   1.509   2.947   0.299
   67c3c      N  483   0.403   0.487   2.602
   67c3c     C1  484   0.283   0.559   2.558
   67c3c     C2  485   0.451   0.399   2.494
   67c3c     C3  486   0.249   0.518   2.415
   67c3c     C4  487   0.358   0.413   2.373
   67c3c     C5  488   0.509   0.584   2.636
   67c3c     C6  489   0.371   0.406   2.721
   67c3c     H1  490   0.302   0.667   2.561
   67c3c     H2  491   0.200   0.535   2.624
   67c3c     H3  492   0.552   0.427   2.466
   67c3c     H4  493   0.450   0.296   2.529
   67c3c     H5  494   0.251   0.604   2.348
   67c3c     H6  495   0.149   0.474   2.411
   67c3c     H7  496   0.414   0.448   2.286
   67c3c     H8  497   0.313   0.317   2.348
   67c3c     H9  498   0.474   0.649   2.716
   67c3c    H10  499   0.598   0.530   2.669
   67c3c    H11  500   0.533   0.644   2.549
   67c3c    H12  501   0.460   0.353   2.754
   67c3c    H13  502   0.336   0.472   2.801
   67c3c     C7  503   0.262   0.306   2.686
   67c3c    H14  504   0.296   0.241   2.606
   67c3c    H15  505   0.172   0.359   2.653
   67c3c     C8  506   0.228   0.222   2.809
   67c3c    H16  507   0.193   0.287   2.889
   67c3c    H17  508   0.317   0.168   2.842
   67c3c    H18  509   0.150   0.150   2.784
   68c3c      N  510   0.499   2.768   1.850
   68c3c     C1  511   0.448   2.855   1.743
   68c3c     C2  512   0.522   2.847   1.972
   68c3c     C3  513   0.437   2.999   1.796
   68c3c     C4  514   0.485   2.993   1.945
   68c3c     C5  515   0.401   2.662   1.878
   68c3c     C6  516   0.626   2.707   1.807
   68c3c     H1  517   0.350   2.821   1.711
   68c3c     H2  518   0.516   2.853   1.658
   68c3c     H3  519   0.460   2.808   2.053
   68c3c     H4  520   0.627   2.841   2.000
   68c3c     H5  521   0.333   3.034   1.790
   68c3c     H6  522   0.499   3.066   1.738
   68c3c     H7  523   0.406   3.025   2.013
   68c3c     H8  524   0.571   3.058   1.961
   68c3c     H9  525   0.384   2.603   1.788
   68c3c    H10  526   0.438   2.597   1.957
   68c3c    H11  527   0.307   2.708   1.910
   68c3c    H12  528   0.663   2.642   1.886
   68c3c    H13  529   0.609   2.648   1.716
   68c3c     C7  530   0.728   2.816   1.778
   68c3c    H14  531   0.745   2.875   1.868
   68c3c    H15  532   0.690   2.881   1.699
   68c3c     C8  533   0.860   2.753   1.733
   68c3c    H16  534   0.843   2.694   1.642
   68c3c    H17  535   0.897   2.688   1.812
   68c3c    H18  536   0.933   2.831   1.712
   69c3c      N  537   2.405   2.151   0.640
   69c3c     C1  538   2.339   2.281   0.662
   69c3c     C2  539   2.551   2.171   0.639
   69c3c     C3  540   2.444   2.391   0.677
   69c3c     C4  541   2.583   2.319   0.662
   69c3c     C5  542   2.369   2.058   0.748
   69c3c     C6  543   2.362   2.096   0.511
   69c3c     H1  544   2.279   2.276   0.753
   69c3c     H2  545   2.274   2.303   0.577
   69c3c     H3  546   2.596   2.111   0.719
   69c3c     H4  547   2.591   2.139   0.543
   69c3c     H5  548   2.436   2.439   0.774
   69c3c     H6  549   2.431   2.467   0.600
   69c3c     H7  550   2.644   2.332   0.751
   69c3c     H8  551   2.639   2.359   0.577
   69c3c     H9  552   2.261   2.044   0.748
   69c3c    H10  553   2.418   1.962   0.731
   69c3c    H11  554   2.401   2.099   0.844
   69c3c    H12  555   2.412   2.000   0.494
   69c3c    H13  556   2.254   2.081   0.511
   69c3c     C7  557   2.400   2.193   0.398
   69c3c    H14  558   2.508   2.207   0.398
   69c3c    H15  559   2.351   2.288   0.415
   69c3c     C8  560   2.356   2.135   0.264
   69c3c    H16  561   2.248   2.120   0.265
   69c3c    H17  562   2.405   2.039   0.248
   69c3c    H18  563   2.383   2.204   0.184
   70c3c      N  564   1.070   2.375   1.796
   70c3c     C1  565   1.041   2.438   1.666
   70c3c     C2  566   1.215   2.370   1.818
   70c3c     C3  567   1.173   2.478   1.599
   70c3c     C4  568   1.286   2.433   1.698
   70c3c     C5  569   1.006   2.452   1.904
   70c3c     C6  570   1.016   2.238   1.796
   70c3c     H1  571   0.980   2.527   1.682
   70c3c     H2  572   0.988   2.368   1.603
   70c3c     H3  573   1.240   2.426   1.908
   70c3c     H4  574   1.247   2.267   1.829
   70c3c     H5  575   1.176   2.585   1.582
   70c3c     H6  576   1.184   2.427   1.503
   70c3c     H7  577   1.346   2.519   1.730
   70c3c     H8  578   1.353   2.361   1.651
   70c3c     H9  579   0.899   2.455   1.888
   70c3c    H10  580   1.027   2.405   2.000
   70c3c    H11  581   1.046   2.554   1.903
   70c3c    H12  582   1.037   2.191   1.893
   70c3c    H13  583   0.908   2.241   1.780
   70c3c     C7  584   1.082   2.157   1.685
   70c3c    H14  585   1.190   2.154   1.701
   70c3c    H15  586   1.061   2.204   1.589
   70c3c     C8  587   1.026   2.014   1.685
   70c3c    H16  588   0.919   2.017   1.669
   70c3c    H17  589   1.047   1.967   1.781
   70c3c    H18  590   1.073   1.957   1.606
   71c3c      N  591   2.391   0.869   1.448
   71c3c     C1  592   2.355   0.738   1.394
   71c3c     C2  593   2.538   0.882   1.454
   71c3c     C3  594   2.483   0.660   1.361
   71c3c     C4  595   2.602   0.754   1.400
   71c3c     C5  596   2.336   0.975   1.362
   71c3c     C6  597   2.336   0.883   1.584
   71c3c     H1  598   2.296   0.751   1.303
   71c3c     H2  599   2.297   0.683   1.467
   71c3c     H3  600   2.569   0.966   1.392
   71c3c     H4  601   2.569   0.898   1.557
   71c3c     H5  602   2.486   0.634   1.255
   71c3c     H6  603   2.486   0.567   1.418
   71c3c     H7  604   2.664   0.775   1.314
   71c3c     H8  605   2.664   0.707   1.477
   71c3c     H9  606   2.228   0.966   1.359
   71c3c    H10  607   2.363   1.073   1.403
   71c3c    H11  608   2.377   0.965   1.262
   71c3c    H12  609   2.363   0.981   1.625
   71c3c    H13  610   2.228   0.874   1.580
   71c3c     C7  611   2.394   0.773   1.674
   71c3c    H14  612   2.502   0.783   1.678
   71c3c    H15  613   2.367   0.676   1.633
   71c3c     C8  614   2.336   0.788   1.815
   71c3c    H16  615   2.228   0.778   1.811
   71c3c    H17  616   2.363   0.885   1.855
   71c3c    H18  617   2.377   0.709   1.879
   72c3c      N  618   1.414   0.789   0.310
   72c3c     C1  619   1.525   0.788   0.213
   72c3c     C2  620   1.468   0.785   0.447
   72c3c     C3  621   1.658   0.783   0.289
   72c3c     C4  622   1.621   0.780   0.441
   72c3c     C5  623   1.335   0.912   0.292
   72c3c     C6  624   1.328   0.672   0.287
   72c3c     H1  625   1.521   0.878   0.153
   72c3c     H2  626   1.516   0.700   0.149
   72c3c     H3  627   1.436   0.873   0.501
   72c3c     H4  628   1.431   0.696   0.498
   72c3c     H5  629   1.719   0.870   0.265
   72c3c     H6  630   1.714   0.693   0.261
   72c3c     H7  631   1.663   0.866   0.493
   72c3c     H8  632   1.658   0.690   0.489
   72c3c     H9  633   1.295   0.915   0.191
   72c3c    H10  634   1.253   0.913   0.364
   72c3c    H11  635   1.398   0.999   0.309
   72c3c    H12  636   1.246   0.673   0.359
   72c3c    H13  637   1.288   0.675   0.186
   72c3c     C7  638   1.410   0.544   0.306
   72c3c    H14  639   1.450   0.541   0.407
   72c3c    H15  640   1.492   0.543   0.234
   72c3c     C8  641   1.321   0.422   0.282
   72c3c    H16  642   1.281   0.425   0.181
   72c3c    H17  643   1.239   0.423   0.354
   72c3c    H18  644   1.379   0.331   0.295
   73c3c      N  645   2.390   2.068   2.746
   73c3c     C1  646   2.438   2.194   2.686
   73c3c     C2  647   2.505   1.985   2.783
   73c3c     C3  648   2.591   2.194   2.683
   73c3c     C4  649   2.635   2.057   2.747
   73c3c     C5  650   2.310   2.099   2.866
   73c3c     C6  651   2.306   1.996   2.649
   73c3c     H1  652   2.402   2.278   2.745
   73c3c     H2  653   2.399   2.202   2.584
   73c3c     H3  654   2.503   1.966   2.891
   73c3c     H4  655   2.500   1.890   2.730
   73c3c     H5  656   2.630   2.278   2.740
   73c3c     H6  657   2.627   2.202   2.580
   73c3c     H7  658   2.696   2.074   2.835
   73c3c     H8  659   2.693   1.998   2.676
   73c3c     H9  660   2.225   2.160   2.839
   73c3c    H10  661   2.275   2.006   2.911
   73c3c    H11  662   2.372   2.152   2.938
   73c3c    H12  663   2.271   1.903   2.694
   73c3c    H13  664   2.221   2.058   2.622
   73c3c     C7  665   2.389   1.964   2.524
   73c3c    H14  666   2.474   1.902   2.552
   73c3c    H15  667   2.424   2.057   2.480
   73c3c     C8  668   2.302   1.889   2.424
   73c3c    H16  669   2.217   1.951   2.396
   73c3c    H17  670   2.266   1.796   2.468
   73c3c    H18  671   2.361   1.866   2.335
   74c3c      N  672   1.241   1.366   1.571
   74c3c     C1  673   1.133   1.267   1.579
   74c3c     C2  674   1.361   1.314   1.639
   74c3c     C3  675   1.182   1.144   1.655
   74c3c     C4  676   1.331   1.175   1.694
   74c3c     C5  677   1.272   1.393   1.430
   74c3c     C6  678   1.198   1.491   1.636
   74c3c     H1  679   1.103   1.237   1.478
   74c3c     H2  680   1.047   1.310   1.631
   74c3c     H3  681   1.443   1.309   1.568
   74c3c     H4  682   1.388   1.381   1.721
   74c3c     H5  683   1.177   1.055   1.592
   74c3c     H6  684   1.122   1.126   1.744
   74c3c     H7  685   1.399   1.101   1.651
   74c3c     H8  686   1.344   1.173   1.802
   74c3c     H9  687   1.184   1.432   1.380
   74c3c    H10  688   1.352   1.467   1.424
   74c3c    H11  689   1.304   1.301   1.381
   74c3c    H12  690   1.278   1.564   1.630
   74c3c    H13  691   1.109   1.529   1.586
   74c3c     C7  692   1.165   1.463   1.783
   74c3c    H14  693   1.254   1.424   1.833
   74c3c    H15  694   1.085   1.389   1.789
   74c3c     C8  695   1.120   1.592   1.851
   74c3c    H16  696   1.032   1.631   1.801
   74c3c    H17  697   1.200   1.666   1.845
   74c3c    H18  698   1.097   1.572   1.956
   75c3c      N  699   2.148   1.028   2.632
   75c3c     C1  700   2.055   0.930   2.690
   75c3c     C2  701   2.072   1.135   2.565
   75c3c     C3  702   1.911   0.973   2.660
   75c3c     C4  703   1.922   1.107   2.578
   75c3c     C5  704   2.230   1.087   2.739
   75c3c     C6  705   2.235   0.961   2.534
   75c3c     H1  706   2.069   0.925   2.797
   75c3c     H2  707   2.073   0.832   2.646
   75c3c     H3  708   2.095   1.231   2.611
   75c3c     H4  709   2.099   1.138   2.459
   75c3c     H5  710   1.855   0.989   2.752
   75c3c     H6  711   1.859   0.897   2.602
   75c3c     H7  712   1.872   1.189   2.630
   75c3c     H8  713   1.876   1.097   2.480
   75c3c     H9  714   2.286   1.008   2.789
   75c3c    H10  715   2.299   1.159   2.697
   75c3c    H11  716   2.165   1.136   2.812
   75c3c    H12  717   2.305   1.034   2.492
   75c3c    H13  718   2.292   0.882   2.584
   75c3c     C7  719   2.150   0.901   2.423
   75c3c    H14  720   2.094   0.980   2.373
   75c3c    H15  721   2.081   0.828   2.465
   75c3c     C8  722   2.241   0.831   2.321
   75c3c    H16  723   2.297   0.752   2.371
   75c3c    H17  724   2.310   0.904   2.279
   75c3c    H18  725   2.180   0.788   2.242
   76c3c      N  726   1.487   1.531   2.932
   76c3c     C1  727   1.356   1.485   2.883
   76c3c     C2  728   1.574   1.560   2.817
   76c3c     C3  729   1.355   1.485   2.730
   76c3c     C4  730   1.498   1.534   2.687
   76c3c     C5  731   1.470   1.652   3.013
   76c3c     C6  732   1.548   1.424   3.013
   76c3c     H1  733   1.278   1.553   2.920
   76c3c     H2  734   1.336   1.385   2.920
   76c3c     H3  735   1.605   1.665   2.821
   76c3c     H4  736   1.663   1.497   2.821
   76c3c     H5  737   1.278   1.552   2.692
   76c3c     H6  738   1.336   1.385   2.692
   76c3c     H7  739   1.492   1.625   2.628
   76c3c     H8  740   1.549   1.458   2.628
   76c3c     H9  741   1.406   1.630   3.099
   76c3c    H10  742   1.567   1.685   3.050
   76c3c    H11  743   1.425   1.730   2.953
   76c3c    H12  744   1.645   1.458   3.050
   76c3c    H13  745   1.483   1.402   3.098
   76c3c     C7  746   1.566   1.298   2.929
   76c3c    H14  747   1.630   1.321   2.844
   76c3c    H15  748   1.469   1.265   2.892
   76c3c     C8  749   1.629   1.188   3.014
   76c3c    H16  750   1.564   1.166   3.099
   76c3c    H17  751   1.726   1.222   3.050
   76c3c    H18  752   1.642   1.098   2.953
   77c3c      N  753   2.791   1.404   1.987
   77c3c     C1  754   2.917   1.428   1.916
   77c3c     C2  755   2.790   1.267   2.041
   77c3c     C3  756   3.004   1.302   1.922
   77c3c     C4  757   2.921   1.197   2.004
   77c3c     C5  758   2.778   1.500   2.098
   77c3c     C6  759   2.678   1.420   1.894
   77c3c     H1  760   2.970   1.511   1.962
   77c3c     H2  761   2.896   1.452   1.811
   77c3c     H3  762   2.780   1.271   2.150
   77c3c     H4  763   2.707   1.211   1.999
   77c3c     H5  764   3.099   1.324   1.972
   77c3c     H6  765   3.026   1.265   1.822
   77c3c     H7  766   2.975   1.167   2.094
   77c3c     H8  767   2.902   1.108   1.945
   77c3c     H9  768   2.778   1.601   2.058
   77c3c    H10  769   2.684   1.482   2.151
   77c3c    H11  770   2.861   1.488   2.167
   77c3c    H12  771   2.585   1.402   1.947
   77c3c    H13  772   2.678   1.521   1.854
   77c3c     C7  773   2.691   1.320   1.779
   77c3c    H14  774   2.691   1.219   1.819
   77c3c    H15  775   2.785   1.338   1.726
   77c3c     C8  776   2.574   1.337   1.683
   77c3c    H16  777   2.575   1.438   1.643
   77c3c    H17  778   2.481   1.319   1.736
   77c3c    H18  779   2.584   1.266   1.601
   78c3c      N  780   2.392   0.826   0.653
   78c3c     C1  781   2.523   0.780   0.604
   78c3c     C2  782   2.390   0.973   0.656
   78c3c     C3  783   2.612   0.900   0.573
   78c3c     C4  784   2.525   1.027   0.607
   78c3c     C5  785   2.287   0.777   0.563
   78c3c     C6  786   2.369   0.774   0.788
   78c3c     H1  787   2.510   0.721   0.513
   78c3c     H2  788   2.571   0.718   0.680
   78c3c     H3  789   2.311   1.010   0.590
   78c3c     H4  790   2.372   1.007   0.758
   78c3c     H5  791   2.641   0.901   0.468
   78c3c     H6  792   2.702   0.898   0.634
   78c3c     H7  793   2.512   1.090   0.519
   78c3c     H8  794   2.572   1.087   0.685
   78c3c     H9  795   2.288   0.668   0.560
   78c3c    H10  796   2.190   0.811   0.599
   78c3c    H11  797   2.304   0.816   0.462
   78c3c    H12  798   2.272   0.808   0.824
   78c3c    H13  799   2.371   0.665   0.786
   78c3c     C7  800   2.479   0.825   0.882
   78c3c    H14  801   2.477   0.933   0.884
   78c3c    H15  802   2.576   0.790   0.846
   78c3c     C8  803   2.455   0.770   1.023
   78c3c    H16  804   2.456   0.661   1.021
   78c3c    H17  805   2.358   0.804   1.059
   78c3c    H18  806   2.533   0.806   1.089
   79c3c      N  807   1.319   0.369   2.358
   79c3c     C1  808   1.246   0.496   2.345
   79c3c     C2  809   1.262   0.271   2.265
   79c3c     C3  810   1.136   0.482   2.240
   79c3c     C4  811   1.147   0.335   2.187
   79c3c     C5  812   1.461   0.391   2.326
   79c3c     C6  813   1.306   0.319   2.496
   79c3c     H1  814   1.315   0.575   2.316
   79c3c     H2  815   1.201   0.522   2.441
   79c3c     H3  816   1.339   0.238   2.195
   79c3c     H4  817   1.225   0.185   2.321
   79c3c     H5  818   1.152   0.554   2.159
   79c3c     H6  819   1.038   0.501   2.283
   79c3c     H7  820   1.167   0.333   2.080
   79c3c     H8  821   1.054   0.281   2.204
   79c3c     H9  822   1.503   0.464   2.396
   79c3c    H10  823   1.515   0.296   2.336
   79c3c    H11  824   1.470   0.428   2.224
   79c3c    H12  825   1.360   0.225   2.505
   79c3c    H13  826   1.348   0.392   2.565
   79c3c     C7  827   1.159   0.297   2.529
   79c3c    H14  828   1.117   0.224   2.460
   79c3c    H15  829   1.105   0.391   2.520
   79c3c     C8  830   1.146   0.244   2.672
   79c3c    H16  831   1.188   0.317   2.741
   79c3c    H17  832   1.200   0.150   2.681
   79c3c    H18  833   1.041   0.228   2.695
   80c3c      N  834   0.290   1.455   0.875
   80c3c     C1  835   0.434   1.444   0.904
   80c3c     C2  836   0.213   1.408   0.991
   80c3c     C3  837   0.453   1.387   1.044
   80c3c     C4  838   0.309   1.364   1.101
   80c3c     C5  839   0.257   1.595   0.847
   80c3c     C6  840   0.257   1.372   0.757
   80c3c     H1  841   0.480   1.542   0.897
   80c3c     H2  842   0.481   1.377   0.831
   80c3c     H3  843   0.150   1.489   1.027
   80c3c     H4  844   0.150   1.324   0.961
   80c3c     H5  845   0.509   1.457   1.107
   80c3c     H6  846   0.509   1.294   1.041
   80c3c     H7  847   0.293   1.423   1.192
   80c3c     H8  848   0.293   1.259   1.126
   80c3c     H9  849   0.314   1.630   0.761
   80c3c    H10  850   0.150   1.603   0.825
   80c3c    H11  851   0.281   1.656   0.934
   80c3c    H12  852   0.151   1.381   0.736
   80c3c    H13  853   0.315   1.407   0.671
   80c3c     C7  854   0.292   1.226   0.786
   80c3c    H14  855   0.235   1.191   0.872
   80c3c    H15  856   0.399   1.218   0.808
   80c3c     C8  857   0.258   1.141   0.664
   80c3c    H16  858   0.315   1.175   0.578
   80c3c    H17  859   0.151   1.149   0.643
   80c3c    H18  860   0.283   1.036   0.685
   81c3c      N  861   1.086   0.745   0.740
   81c3c     C1  862   1.148   0.870   0.788
   81c3c     C2  863   0.976   0.777   0.648
   81c3c     C3  864   1.076   0.990   0.726
   81c3c     C4  865   0.963   0.929   0.635
   81c3c     C5  866   1.187   0.665   0.669
   81c3c     C6  867   1.035   0.669   0.854
   81c3c     H1  868   1.253   0.872   0.759
   81c3c     H2  869   1.140   0.875   0.896
   81c3c     H3  870   0.995   0.734   0.550
   81c3c     H4  871   0.883   0.737   0.688
   81c3c     H5  872   1.145   1.050   0.667
   81c3c     H6  873   1.033   1.053   0.804
   81c3c     H7  874   0.976   0.960   0.531
   81c3c     H8  875   0.865   0.963   0.668
   81c3c     H9  876   1.269   0.641   0.736
   81c3c    H10  877   1.141   0.573   0.633
   81c3c    H11  878   1.225   0.721   0.584
   81c3c    H12  879   0.989   0.577   0.819
   81c3c    H13  880   1.116   0.645   0.922
   81c3c     C7  881   0.930   0.752   0.928
   81c3c    H14  882   0.848   0.776   0.860
   81c3c    H15  883   0.975   0.845   0.964
   81c3c     C8  884   0.876   0.673   1.047
   81c3c    H16  885   0.958   0.649   1.115
   81c3c    H17  886   0.830   0.581   1.012
   81c3c    H18  887   0.802   0.732   1.100
   82c3c      N  888   0.316   0.411   1.171
   82c3c     C1  889   0.452   0.354   1.168
   82c3c     C2  890   0.236   0.350   1.063
   82c3c     C3  891   0.463   0.252   1.055
   82c3c     C4  892   0.321   0.250   0.986
   82c3c     C5  893   0.254   0.382   1.301
   82c3c     C6  894   0.323   0.556   1.151
   82c3c     H1  895   0.473   0.305   1.263
   82c3c     H2  896   0.525   0.434   1.152
   82c3c     H3  897   0.150   0.299   1.107
   82c3c     H4  898   0.201   0.428   0.996
   82c3c     H5  899   0.489   0.154   1.094
   82c3c     H6  900   0.540   0.282   0.984
   82c3c     H7  901   0.278   0.150   0.992
   82c3c     H8  902   0.329   0.278   0.881
   82c3c     H9  903   0.313   0.427   1.380
   82c3c    H10  904   0.153   0.424   1.303
   82c3c    H11  905   0.249   0.274   1.316
   82c3c    H12  906   0.223   0.598   1.153
   82c3c    H13  907   0.383   0.601   1.230
   82c3c     C7  908   0.388   0.586   1.015
   82c3c    H14  909   0.329   0.541   0.936
   82c3c    H15  910   0.489   0.544   1.013
   82c3c     C8  911   0.396   0.738   0.995
   82c3c    H16  912   0.455   0.782   1.074
   82c3c    H17  913   0.295   0.779   0.997
   82c3c    H18  914   0.442   0.759   0.898
   83c3c      N  915   2.936   0.584   1.934
   83c3c     C1  916   3.027   0.484   1.992
   83c3c     C2  917   2.798   0.535   1.942
   83c3c     C3  918   2.946   0.364   2.041
   83c3c     C4  919   2.796   0.398   2.008
   83c3c     C5  920   2.948   0.711   2.008
   83c3c     C6  921   2.972   0.607   1.793
   83c3c     H1  922   3.081   0.528   2.076
   83c3c     H2  923   3.099   0.451   1.916
   83c3c     H3  924   2.738   0.605   2.001
   83c3c     H4  925   2.756   0.528   1.842
   83c3c     H5  926   2.960   0.349   2.148
   83c3c     H6  927   2.978   0.273   1.990
   83c3c     H7  928   2.736   0.399   2.099
   83c3c     H8  929   2.754   0.323   1.941
   83c3c     H9  930   3.051   0.747   2.002
   83c3c    H10  931   2.881   0.785   1.965
   83c3c    H11  932   2.922   0.694   2.113
   83c3c    H12  933   2.905   0.681   1.750
   83c3c    H13  934   3.075   0.643   1.787
   83c3c     C7  935   2.959   0.476   1.715
   83c3c    H14  936   2.857   0.440   1.722
   83c3c    H15  937   3.027   0.402   1.758
   83c3c     C8  938   2.996   0.500   1.569
   83c3c    H16  939   3.099   0.536   1.563
   83c3c    H17  940   2.929   0.574   1.526
   83c3c    H18  941   2.987   0.406   1.513
   84c3c      N  942   0.844   1.579   2.908
   84c3c     C1  943   0.723   1.509   2.952
   84c3c     C2  944   0.824   1.725   2.921
   84c3c     C3  945   0.617   1.611   2.994
   84c3c     C4  946   0.684   1.752   2.974
   84c3c     C5  947   0.958   1.538   2.993
   84c3c     C6  948   0.873   1.546   2.768
   84c3c     H1  949   0.746   1.444   3.036
   84c3c     H2  950   0.684   1.449   2.869
   84c3c     H3  951   0.898   1.766   2.989
   84c3c     H4  952   0.836   1.771   2.823
   84c3c     H5  953   0.589   1.596   3.099
   84c3c     H6  954   0.527   1.602   2.934
   84c3c     H7  955   0.688   1.807   3.069
   84c3c     H8  956   0.627   1.812   2.903
   84c3c     H9  957   0.973   1.431   2.984
   84c3c    H10  958   1.048   1.591   2.961
   84c3c    H11  959   0.936   1.564   3.097
   84c3c    H12  960   0.964   1.598   2.736
   84c3c    H13  961   0.888   1.438   2.759
   84c3c     C7  962   0.756   1.589   2.680
   84c3c    H14  963   0.741   1.696   2.689
   84c3c    H15  964   0.666   1.536   2.712
   84c3c     C8  965   0.786   1.553   2.534
   84c3c    H16  966   0.801   1.446   2.525
   84c3c    H17  967   0.876   1.605   2.502
   84c3c    H18  968   0.702   1.584   2.472
   85c3c      N  969   0.675   1.379   2.127
   85c3c     C1  970   0.667   1.404   1.982
   85c3c     C2  971   0.736   1.247   2.151
   85c3c     C3  972   0.725   1.284   1.906
   85c3c     C4  973   0.770   1.181   2.017
   85c3c     C5  974   0.758   1.483   2.190
   85c3c     C6  975   0.540   1.382   2.184
   85c3c     H1  976   0.724   1.493   1.957
   85c3c     H2  977   0.563   1.418   1.953
   85c3c     H3  978   0.827   1.259   2.209
   85c3c     H4  979   0.666   1.184   2.205
   85c3c     H5  980   0.809   1.314   1.845
   85c3c     H6  981   0.650   1.240   1.841
   85c3c     H7  982   0.877   1.161   2.010
   85c3c     H8  983   0.717   1.087   2.006
   85c3c     H9  984   0.712   1.581   2.172
   85c3c    H10  985   0.764   1.465   2.297
   85c3c    H11  986   0.858   1.481   2.147
   85c3c    H12  987   0.546   1.364   2.292
   85c3c    H13  988   0.495   1.479   2.167
   85c3c     C7  989   0.454   1.273   2.119
   85c3c    H14  990   0.499   1.176   2.137
   85c3c    H15  991   0.448   1.291   2.012
   85c3c     C8  992   0.314   1.276   2.179
   85c3c    H16  993   0.269   1.374   2.162
   85c3c    H17  994   0.320   1.258   2.287
   85c3c    H18  995   0.252   1.199   2.133
   86c3c      N  996   2.222   1.477   1.380
   86c3c     C1  997   2.109   1.450   1.470
   86c3c     C2  998   2.330   1.542   1.456
   86c3c     C3  999   2.142   1.499   1.611
   86c3c     C4 1000   2.287   1.559   1.602
   86c3c     C5 1001   2.271   1.350   1.324
   86c3c     C6 1002   2.179   1.566   1.271
   86c3c     H1 1003   2.089   1.343   1.472
   86c3c     H2 1004   2.020   1.502   1.433
   86c3c     H3 1005   2.420   1.480   1.452
   86c3c     H4 1006   2.351   1.640   1.413
   86c3c     H5 1007   2.138   1.416   1.682
   86c3c     H6 1008   2.071   1.574   1.643
   86c3c     H7 1009   2.355   1.506   1.668
   86c3c     H8 1010   2.287   1.664   1.630
   86c3c     H9 1011   2.191   1.302   1.267
   86c3c    H10 1012   2.355   1.370   1.257
   86c3c    H11 1013   2.303   1.285   1.404
   86c3c    H12 1014   2.263   1.586   1.205
   86c3c    H13 1015   2.099   1.518   1.215
   86c3c     C7 1016   2.128   1.697   1.330
   86c3c    H14 1017   2.208   1.745   1.386
   86c3c    H15 1018   2.044   1.678   1.396
   86c3c     C8 1019   2.083   1.790   1.217
   86c3c    H16 1020   2.003   1.742   1.160
   86c3c    H17 1021   2.167   1.810   1.150
   86c3c    H18 1022   2.046   1.884   1.258
   87c3c      N 1023   2.387   2.910   0.938
   87c3c     C1 1024   2.269   2.859   0.865
   87c3c     C2 1025   2.472   2.987   0.846
   87c3c     C3 1026   2.276   2.904   0.719
   87c3c     C4 1027   2.409   2.988   0.706
   87c3c     C5 1028   2.342   2.997   1.048
   87c3c     C6 1029   2.463   2.797   0.993
   87c3c     H1 1030   2.178   2.898   0.911
   87c3c     H2 1031   2.268   2.750   0.870
   87c3c     H3 1032   2.481   3.090   0.882
   87c3c     H4 1033   2.570   2.942   0.841
   87c3c     H5 1034   2.189   2.964   0.693
   87c3c     H6 1035   2.279   2.818   0.653
   87c3c     H7 1036   2.387   3.089   0.674
   87c3c     H8 1037   2.476   2.943   0.634
   87c3c     H9 1038   2.279   2.940   1.116
   87c3c    H10 1039   2.429   3.035   1.102
   87c3c    H11 1040   2.285   3.081   1.007
   87c3c    H12 1041   2.550   2.835   1.046
   87c3c    H13 1042   2.401   2.740   1.061
   87c3c     C7 1043   2.510   2.707   0.878
   87c3c    H14 1044   2.573   2.764   0.810
   87c3c    H15 1045   2.423   2.669   0.825
   87c3c     C8 1046   2.590   2.590   0.935
   87c3c    H16 1047   2.527   2.533   1.004
   87c3c    H17 1048   2.677   2.628   0.989
   87c3c    H18 1049   2.623   2.525   0.854
   88c3c      N 1050   0.461   1.726   0.298
   88c3c     C1 1051   0.444   1.722   0.444
   88c3c     C2 1052   0.335   1.686   0.233
   88c3c     C3 1053   0.302   1.676   0.478
   88c3c     C4 1054   0.231   1.653   0.340
   88c3c     C5 1055   0.495   1.863   0.257
   88c3c     C6 1056   0.568   1.635   0.258
   88c3c     H1 1057   0.461   1.821   0.486
   88c3c     H2 1058   0.516   1.652   0.487
   88c3c     H3 1059   0.298   1.767   0.171
   88c3c     H4 1060   0.353   1.597   0.172
   88c3c     H5 1061   0.250   1.753   0.536
   88c3c     H6 1062   0.305   1.585   0.537
   88c3c     H7 1063   0.144   1.717   0.330
   88c3c     H8 1064   0.198   1.549   0.331
   88c3c     H9 1065   0.588   1.894   0.304
   88c3c    H10 1066   0.507   1.867   0.148
   88c3c    H11 1067   0.415   1.931   0.286
   88c3c    H12 1068   0.581   1.638   0.150
   88c3c    H13 1069   0.662   1.665   0.306
   88c3c     C7 1070   0.533   1.492   0.301
   88c3c    H14 1071   0.440   1.462   0.253
   88c3c    H15 1072   0.521   1.489   0.409
   88c3c     C8 1073   0.645   1.397   0.259
   88c3c    H16 1074   0.738   1.427   0.307
   88c3c    H17 1075   0.657   1.400   0.151
   88c3c    H18 1076   0.620   1.296   0.290
   89c3c      N 1077   1.915   2.802   1.266
   89c3c     C1 1078   1.808   2.849   1.175
   89c3c     C2 1079   2.030   2.892   1.256
   89c3c     C3 1080   1.855   2.975   1.103
   89c3c     C4 1081   2.000   3.003   1.156
   89c3c     C5 1082   1.865   2.801   1.404
   89c3c     C6 1083   1.955   2.666   1.227
   89c3c     H1 1084   1.719   2.871   1.233
   89c3c     H2 1085   1.786   2.771   1.102
   89c3c     H3 1086   2.051   2.936   1.354
   89c3c     H4 1087   2.118   2.836   1.223
   89c3c     H5 1088   1.789   3.059   1.125
   89c3c     H6 1089   1.856   2.959   0.995
   89c3c     H7 1090   2.006   3.101   1.204
   89c3c     H8 1091   2.072   3.002   1.074
   89c3c     H9 1092   1.779   2.734   1.411
   89c3c    H10 1093   1.943   2.766   1.471
   89c3c    H11 1094   1.835   2.902   1.432
   89c3c    H12 1095   2.034   2.631   1.294
   89c3c    H13 1096   1.870   2.599   1.234
   89c3c     C7 1097   2.007   2.667   1.084
   89c3c    H14 1098   2.093   2.734   1.076
   89c3c    H15 1099   1.929   2.701   1.016
   89c3c     C8 1100   2.050   2.525   1.044
   89c3c    H16 1101   1.964   2.458   1.051
   89c3c    H17 1102   2.128   2.490   1.111
   89c3c    H18 1103   2.087   2.526   0.941
   90c3c      N 1104   2.844   1.699   2.816
   90c3c     C1 1105   2.707   1.714   2.867
   90c3c     C2 1106   2.913   1.594   2.893
   90c3c     C3 1107   2.684   1.616   2.981
   90c3c     C4 1108   2.819   1.538   2.999
   90c3c     C5 1109   2.840   1.661   2.674
   90c3c     C6 1110   2.917   1.826   2.830
   90c3c     H1 1111   2.636   1.694   2.786
   90c3c     H2 1112   2.693   1.816   2.902
   90c3c     H3 1113   2.944   1.514   2.825
   90c3c     H4 1114   3.001   1.636   2.941
   90c3c     H5 1115   2.602   1.548   2.958
   90c3c     H6 1116   2.658   1.670   3.073
   90c3c     H7 1117   2.803   1.431   2.983
   90c3c     H8 1118   2.860   1.552   3.099
   90c3c     H9 1119   2.789   1.738   2.617
   90c3c    H10 1120   2.942   1.649   2.636
   90c3c    H11 1121   2.786   1.567   2.663
   90c3c    H12 1122   3.018   1.814   2.793
   90c3c    H13 1123   2.866   1.904   2.774
   90c3c     C7 1124   2.921   1.865   2.978
   90c3c    H14 1125   2.973   1.788   3.035
   90c3c    H15 1126   2.820   1.877   3.016
   90c3c     C8 1127   2.997   1.998   2.993
   90c3c    H16 1128   2.946   2.075   2.936
   90c3c    H17 1129   3.098   1.986   2.956
   90c3c    H18 1130   3.000   2.026   3.099
   91c3c      N 1131   0.844   1.927   2.092
   91c3c     C1 1132   0.834   2.012   2.211
   91c3c     C2 1133   0.793   1.792   2.123
   91c3c     C3 1134   0.774   1.932   2.326
   91c3c     C4 1135   0.747   1.788   2.269
   91c3c     C5 1136   0.764   1.985   1.983
   91c3c     C6 1137   0.984   1.917   2.049
   91c3c     H1 1138   0.770   2.098   2.189
   91c3c     H2 1139   0.933   2.047   2.239
   91c3c     H3 1140   0.708   1.769   2.058
   91c3c     H4 1141   0.872   1.719   2.108
   91c3c     H5 1142   0.681   1.978   2.361
   91c3c     H6 1143   0.843   1.928   2.410
   91c3c     H7 1144   0.641   1.763   2.276
   91c3c     H8 1145   0.803   1.713   2.325
   91c3c     H9 1146   0.802   2.084   1.959
   91c3c    H10 1147   0.771   1.921   1.894
   91c3c    H11 1148   0.660   1.992   2.014
   91c3c    H12 1149   0.991   1.854   1.961
   91c3c    H13 1150   1.022   2.016   2.026
   91c3c     C7 1151   1.067   1.856   2.163
   91c3c    H14 1152   1.030   1.757   2.186
   91c3c    H15 1153   1.060   1.919   2.251
   91c3c     C8 1154   1.213   1.846   2.119
   91c3c    H16 1155   1.251   1.946   2.095
   91c3c    H17 1156   1.221   1.783   2.030
   91c3c    H18 1157   1.273   1.803   2.200
   92c3c      N 1158   0.802   1.754   0.645
   92c3c     C1 1159   0.928   1.826   0.669
   92c3c     C2 1160   0.707   1.843   0.575
   92c3c     C3 1161   0.917   1.968   0.613
   92c3c     C4 1162   0.773   1.979   0.552
   92c3c     C5 1163   0.828   1.635   0.562
   92c3c     C6 1164   0.745   1.712   0.774
   92c3c     H1 1165   1.010   1.774   0.619
   92c3c     H2 1166   0.948   1.831   0.776
   92c3c     H3 1167   0.680   1.798   0.480
   92c3c     H4 1168   0.618   1.855   0.636
   92c3c     H5 1169   0.993   1.985   0.536
   92c3c     H6 1170   0.931   2.042   0.692
   92c3c     H7 1171   0.777   2.001   0.445
   92c3c     H8 1172   0.716   2.058   0.601
   92c3c     H9 1173   0.899   1.570   0.614
   92c3c    H10 1174   0.735   1.582   0.545
   92c3c    H11 1175   0.871   1.666   0.467
   92c3c    H12 1176   0.651   1.659   0.756
   92c3c    H13 1177   0.815   1.647   0.826
   92c3c     C7 1178   0.717   1.836   0.860
   92c3c    H14 1179   0.647   1.901   0.808
   92c3c    H15 1180   0.811   1.889   0.878
   92c3c     C8 1181   0.657   1.792   0.994
   92c3c    H16 1182   0.727   1.727   1.046
   92c3c    H17 1183   0.564   1.739   0.976
   92c3c    H18 1184   0.638   1.880   1.055
   93c3c      N 1185   1.853   0.311   2.859
   93c3c     C1 1186   1.721   0.266   2.905
   93c3c     C2 1187   1.858   0.458   2.858
   93c3c     C3 1188   1.634   0.388   2.936
   93c3c     C4 1189   1.724   0.514   2.905
   93c3c     C5 1190   1.957   0.259   2.949
   93c3c     C6 1191   1.877   0.261   2.722
   93c3c     H1 1192   1.732   0.206   2.995
   93c3c     H2 1193   1.673   0.207   2.827
   93c3c     H3 1194   1.937   0.492   2.924
   93c3c     H4 1195   1.878   0.493   2.757
   93c3c     H5 1196   1.603   0.387   3.041
   93c3c     H6 1197   1.544   0.389   2.874
   93c3c     H7 1198   1.737   0.575   2.995
   93c3c     H8 1199   1.678   0.576   2.828
   93c3c     H9 1200   1.954   0.150   2.949
   93c3c    H10 1201   2.055   0.292   2.915
   93c3c    H11 1202   1.939   0.296   3.050
   93c3c    H12 1203   1.975   0.294   2.688
   93c3c    H13 1204   1.874   0.152   2.723
   93c3c     C7 1205   1.770   0.315   2.628
   93c3c    H14 1206   1.773   0.424   2.628
   93c3c    H15 1207   1.672   0.282   2.662
   93c3c     C8 1208   1.795   0.262   2.487
   93c3c    H16 1209   1.791   0.153   2.487
   93c3c    H17 1210   1.893   0.295   2.453
   93c3c    H18 1211   1.718   0.301   2.420
   94c3c      N 1212   1.130   1.428   0.332
   94c3c     C1 1213   1.087   1.303   0.268
   94c3c     C2 1214   1.274   1.421   0.362
   94c3c     C3 1215   1.207   1.209   0.254
   94c3c     C4 1216   1.330   1.286   0.316
   94c3c     C5 1217   1.105   1.541   0.242
   94c3c     C6 1218   1.055   1.447   0.457
   94c3c     H1 1219   1.047   1.325   0.169
   94c3c     H2 1220   1.011   1.255   0.329
   94c3c     H3 1221   1.326   1.501   0.310
   94c3c     H4 1222   1.290   1.432   0.469
   94c3c     H5 1223   1.226   1.185   0.149
   94c3c     H6 1224   1.189   1.116   0.308
   94c3c     H7 1225   1.408   1.300   0.241
   94c3c     H8 1226   1.372   1.231   0.400
   94c3c     H9 1227   0.998   1.546   0.219
   94c3c    H10 1228   1.136   1.634   0.289
   94c3c    H11 1229   1.160   1.527   0.149
   94c3c    H12 1230   1.087   1.540   0.505
   94c3c    H13 1231   0.949   1.452   0.435
   94c3c     C7 1232   1.082   1.330   0.551
   94c3c    H14 1233   1.189   1.324   0.573
   94c3c    H15 1234   1.051   1.237   0.504
   94c3c     C8 1235   1.004   1.350   0.681
   94c3c    H16 1236   0.898   1.355   0.659
   94c3c    H17 1237   1.036   1.442   0.729
   94c3c    H18 1238   1.023   1.266   0.748
   95c3c      N 1239   1.033   2.096   2.785
   95c3c     C1 1240   1.025   2.048   2.924
   95c3c     C2 1241   1.166   2.067   2.730
   95c3c     C3 1242   1.159   1.985   2.963
   95c3c     C4 1243   1.251   1.998   2.836
   95c3c     C5 1244   0.931   2.027   2.704
   95c3c     C6 1245   1.008   2.241   2.782
   95c3c     H1 1246   0.946   1.973   2.933
   95c3c     H2 1247   1.004   2.131   2.990
   95c3c     H3 1248   1.156   2.003   2.643
   95c3c     H4 1249   1.214   2.161   2.701
   95c3c     H5 1250   1.146   1.880   2.991
   95c3c     H6 1251   1.203   2.037   3.048
   95c3c     H7 1252   1.283   1.899   2.802
   95c3c     H8 1253   1.340   2.056   2.859
   95c3c     H9 1254   0.832   2.048   2.745
   95c3c    H10 1255   0.936   2.063   2.601
   95c3c    H11 1256   0.949   1.920   2.706
   95c3c    H12 1257   1.013   2.276   2.679
   95c3c    H13 1258   0.909   2.262   2.823
   95c3c     C7 1259   1.114   2.312   2.866
   95c3c    H14 1260   1.213   2.291   2.826
   95c3c    H15 1261   1.109   2.277   2.969
   95c3c     C8 1262   1.089   2.463   2.863
   95c3c    H16 1263   0.990   2.484   2.904
   95c3c    H17 1264   1.094   2.498   2.760
   95c3c    H18 1265   1.164   2.514   2.923
   96c3c      N 1266   0.356   1.773   1.866
   96c3c     C1 1267   0.236   1.740   1.787
   96c3c     C2 1268   0.456   1.667   1.847
   96c3c     C3 1269   0.257   1.608   1.714
   96c3c     C4 1270   0.402   1.560   1.753
   96c3c     C5 1271   0.411   1.901   1.820
   96c3c     C6 1272   0.320   1.782   2.008
   96c3c     H1 1273   0.217   1.819   1.715
   96c3c     H2 1274   0.150   1.731   1.854
   96c3c     H3 1275   0.547   1.710   1.804
   96c3c     H4 1276   0.480   1.622   1.944
   96c3c     H5 1277   0.249   1.622   1.606
   96c3c     H6 1278   0.183   1.534   1.744
   96c3c     H7 1279   0.465   1.550   1.665
   96c3c     H8 1280   0.398   1.463   1.803
   96c3c     H9 1281   0.336   1.980   1.834
   96c3c    H10 1282   0.500   1.925   1.878
   96c3c    H11 1283   0.437   1.894   1.715
   96c3c    H12 1284   0.409   1.806   2.066
   96c3c    H13 1285   0.245   1.860   2.022
   96c3c     C7 1286   0.263   1.648   2.056
   96c3c    H14 1287   0.338   1.570   2.042
   96c3c    H15 1288   0.174   1.624   1.998
   96c3c     C8 1289   0.227   1.658   2.204
   96c3c    H16 1290   0.152   1.737   2.217
   96c3c    H17 1291   0.315   1.683   2.262
   96c3c    H18 1292   0.186   1.563   2.238
   97c3c      N 1293   2.633   1.007   2.913
   97c3c     C1 1294   2.599   1.099   2.804
   97c3c     C2 1295   2.608   1.073   3.042
   97c3c     C3 1296   2.550   1.232   2.862
   97c3c     C4 1297   2.556   1.214   3.018
   97c3c     C5 1298   2.549   0.886   2.903
   97c3c     C6 1299   2.775   0.970   2.904
   97c3c     H1 1300   2.520   1.055   2.742
   97c3c     H2 1301   2.687   1.117   2.742
   97c3c     H3 1302   2.534   1.016   3.099
   97c3c     H4 1303   2.701   1.078   3.099
   97c3c     H5 1304   2.448   1.253   2.829
   97c3c     H6 1305   2.613   1.314   2.830
   97c3c     H7 1306   2.457   1.227   3.062
   97c3c     H8 1307   2.622   1.288   3.063
   97c3c     H9 1308   2.568   0.837   2.807
   97c3c    H10 1309   2.575   0.818   2.984
   97c3c    H11 1310   2.444   0.914   2.910
   97c3c    H12 1311   2.800   0.901   2.985
   97c3c    H13 1312   2.793   0.921   2.808
   97c3c     C7 1313   2.861   1.095   2.914
   97c3c    H14 1314   2.843   1.144   3.010
   97c3c    H15 1315   2.836   1.163   2.833
   97c3c     C8 1316   3.009   1.056   2.904
   97c3c    H16 1317   3.027   1.007   2.809
   97c3c    H17 1318   3.034   0.988   2.985
   97c3c    H18 1319   3.071   1.145   2.912
   98c3c      N 1320   1.478   1.374   1.019
   98c3c     C1 1321   1.509   1.231   1.018
   98c3c     C2 1322   1.332   1.393   1.021
   98c3c     C3 1323   1.379   1.150   1.020
   98c3c     C4 1324   1.263   1.257   1.022
   98c3c     C5 1325   1.538   1.437   1.138
   98c3c     C6 1326   1.534   1.437   0.898
   98c3c     H1 1327   1.569   1.206   1.106
   98c3c     H2 1328   1.566   1.206   0.928
   98c3c     H3 1329   1.304   1.449   1.110
   98c3c     H4 1330   1.302   1.449   0.932
   98c3c     H5 1331   1.375   1.087   1.109
   98c3c     H6 1332   1.372   1.087   0.932
   98c3c     H7 1333   1.202   1.245   1.111
   98c3c     H8 1334   1.199   1.245   0.935
   98c3c     H9 1335   1.646   1.423   1.136
   98c3c    H10 1336   1.515   1.544   1.138
   98c3c    H11 1337   1.497   1.391   1.227
   98c3c    H12 1338   1.511   1.544   0.898
   98c3c    H13 1339   1.642   1.423   0.896
   98c3c     C7 1340   1.472   1.372   0.774
   98c3c    H14 1341   1.364   1.386   0.775
   98c3c    H15 1342   1.495   1.266   0.773
   98c3c     C8 1343   1.530   1.437   0.648
   98c3c    H16 1344   1.638   1.423   0.646
   98c3c    H17 1345   1.507   1.544   0.648
   98c3c    H18 1346   1.486   1.391   0.560
   99c3c      N 1347   1.803   2.263   1.925
   99c3c     C1 1348   1.810   2.116   1.933
   99c3c     C2 1349   1.880   2.322   2.035
   99c3c     C3 1350   1.895   2.076   2.053
   99c3c     C4 1351   1.941   2.210   2.121
   99c3c     C5 1352   1.860   2.308   1.796
   99c3c     C6 1353   1.663   2.306   1.934
   99c3c     H1 1354   1.856   2.077   1.842
   99c3c     H2 1355   1.710   2.075   1.944
   99c3c     H3 1356   1.960   2.384   1.995
   99c3c     H4 1357   1.814   2.383   2.097
   99c3c     H5 1358   1.981   2.017   2.022
   99c3c     H6 1359   1.836   2.015   2.123
   99c3c     H7 1360   2.049   2.218   2.122
   99c3c     H8 1361   1.904   2.216   2.223
   99c3c     H9 1362   1.803   2.264   1.714
   99c3c    H10 1363   1.855   2.416   1.791
   99c3c    H11 1364   1.964   2.276   1.790
   99c3c    H12 1365   1.658   2.414   1.928
   99c3c    H13 1366   1.606   2.262   1.852
   99c3c     C7 1367   1.604   2.259   2.067
   99c3c    H14 1368   1.661   2.303   2.149
   99c3c    H15 1369   1.609   2.151   2.073
   99c3c     C8 1370   1.458   2.304   2.077
   99c3c    H16 1371   1.401   2.260   1.995
   99c3c    H17 1372   1.453   2.413   2.071
   99c3c    H18 1373   1.416   2.271   2.172
  100c3c      N 1374   0.722   0.339   0.609
  100c3c     C1 1375   0.830   0.439   0.609
  100c3c     C2 1376   0.780   0.204   0.610
  100c3c     C3 1377   0.965   0.368   0.610
  100c3c     C4 1378   0.933   0.214   0.611
  100c3c     C5 1379   0.638   0.357   0.728
  100c3c     C6 1380   0.640   0.356   0.488
  100c3c     H1 1381   0.821   0.502   0.697
  100c3c     H2 1382   0.822   0.501   0.519
  100c3c     H3 1383   0.747   0.151   0.699
  100c3c     H4 1384   0.748   0.150   0.521
  100c3c     H5 1385   1.023   0.396   0.698
  100c3c     H6 1386   1.024   0.395   0.522
  100c3c     H7 1387   0.974   0.167   0.700
  100c3c     H8 1388   0.975   0.165   0.523
  100c3c     H9 1389   0.595   0.458   0.727
  100c3c    H10 1390   0.558   0.283   0.728
  100c3c    H11 1391   0.699   0.345   0.818
  100c3c    H12 1392   0.560   0.282   0.488
  100c3c    H13 1393   0.596   0.456   0.487
  100c3c     C7 1394   0.727   0.337   0.364
  100c3c    H14 1395   0.770   0.237   0.365
  100c3c    H15 1396   0.807   0.411   0.364
  100c3c     C8 1397   0.641   0.354   0.238
  100c3c    H16 1398   0.598   0.454   0.237
  100c3c    H17 1399   0.561   0.280   0.238
  100c3c    H18 1400   0.703   0.340   0.150
  101fsi     F1 1401   1.592   2.381   1.514
  101fsi     S1 1402   1.699   2.496   1.511
  101fsi      N 1403   1.820   2.430   1.571
  101fsi     O1 1404   1.712   2.528   1.371
  101fsi     O2 1405   1.642   2.601   1.591
  101fsi     S2 1406   1.918   2.359   1.483
  101fsi     O3 1407   1.835   2.312   1.375
  101fsi     O4 1408   1.970   2.256   1.571
  101fsi     F2 1409   2.021   2.472   1.445
  102fsi     F1 1410   1.352   0.613   2.575
  102fsi     S1 1411   1.502   0.659   2.574
  102fsi      N 1412   1.499   0.785   2.655
  102fsi     O1 1413   1.573   0.550   2.636
  102fsi     O2 1414   1.532   0.678   2.434
  102fsi     S2 1415   1.519   0.780   2.803
  102fsi     O3 1416   1.466   0.650   2.838
  102fsi     O4 1417   1.441   0.892   2.850
  102fsi     F2 1418   1.675   0.795   2.819
  103fsi     F1 1419   1.159   1.059   1.239
  103fsi     S1 1420   1.026   1.079   1.158
  103fsi      N 1421   0.932   0.981   1.223
  103fsi     O1 1422   0.992   1.217   1.179
  103fsi     O2 1423   1.062   1.047   1.022
  103fsi     S2 1424   0.848   1.024   1.339
  103fsi     O3 1425   0.930   1.125   1.402
  103fsi     O4 1426   0.834   0.901   1.414
  103fsi     F2 1427   0.717   1.077   1.271
  104fsi     F1 1428   0.952   2.300   0.789
  104fsi     S1 1429   0.920   2.258   0.937
  104fsi      N 1430   0.772   2.282   0.948
  104fsi     O1 1431   0.959   2.119   0.944
  104fsi     O2 1432   1.002   2.347   1.017
  104fsi     S2 1433   0.676   2.173   0.915
  104fsi     O3 1434   0.747   2.097   0.815
  104fsi     O4 1435   0.561   2.246   0.867
  104fsi     F2 1436   0.656   2.100   1.053
  105fsi     F1 1437   0.480   2.279   2.711
  105fsi     S1 1438   0.620   2.302   2.779
  105fsi      N 1439   0.599   2.248   2.917
  105fsi     O1 1440   0.711   2.226   2.697
  105fsi     O2 1441   0.639   2.445   2.772
  105fsi     S2 1442   0.628   2.104   2.946
  105fsi     O3 1443   0.600   2.040   2.820
  105fsi     O4 1444   0.535   2.074   3.053
  105fsi     F2 1445   0.780   2.106   2.989
  106fsi     F1 1446   0.773   2.184   2.391
  106fsi     S1 1447   0.667   2.301   2.387
  106fsi      N 1448   0.614   2.294   2.247
  106fsi     O1 1449   0.572   2.266   2.490
  106fsi     O2 1450   0.745   2.420   2.416
  106fsi     S2 1451   0.495   2.208   2.217
  106fsi     O3 1452   0.506   2.102   2.314
  106fsi     O4 1453   0.518   2.169   2.080
  106fsi     F2 1454   0.374   2.307   2.239
  107fsi     F1 1455   1.453   2.585   1.198
  107fsi     S1 1456   1.408   2.704   1.106
  107fsi      N 1457   1.323   2.637   1.002
  107fsi     O1 1458   1.336   2.792   1.195
  107fsi     O2 1459   1.532   2.759   1.056
  107fsi     S2 1460   1.175   2.622   1.025
  107fsi     O3 1461   1.167   2.612   1.169
  107fsi     O4 1462   1.145   2.500   0.953
  107fsi     F2 1463   1.116   2.753   0.963
  108fsi     F1 1464   1.320   2.369   0.150
  108fsi     S1 1465   1.438   2.378   0.253
  108fsi      N 1466   1.465   2.526   0.261
  108fsi     O1 1467   1.384   2.321   0.374
  108fsi     O2 1468   1.544   2.301   0.193
  108fsi     S2 1469   1.393   2.610   0.362
  108fsi     O3 1470   1.267   2.541   0.377
  108fsi     O4 1471   1.385   2.738   0.296
  108fsi     F2 1472   1.488   2.604   0.487
  109fsi     F1 1473   2.101   0.600   1.833
  109fsi     S1 1474   2.098   0.656   1.980
  109fsi      N 1475   2.066   0.802   1.960
  109fsi     O1 1476   1.994   0.581   2.045
  109fsi     O2 1477   2.231   0.630   2.030
  109fsi     S2 1478   1.924   0.848   1.958
  109fsi     O3 1479   1.854   0.733   1.906
  109fsi     O4 1480   1.929   0.962   1.870
  109fsi     F2 1481   1.895   0.881   2.109
  110fsi     F1 1482   2.710   2.282   1.774
  110fsi     S1 1483   2.631   2.381   1.867
  110fsi      N 1484   2.718   2.503   1.868
  110fsi     O1 1485   2.504   2.399   1.801
  110fsi     O2 1486   2.623   2.312   1.993
  110fsi     S2 1487   2.698   2.611   1.766
  110fsi     O3 1488   2.648   2.537   1.652
  110fsi     O4 1489   2.831   2.665   1.751
  110fsi     F2 1490   2.594   2.707   1.835
  111fsi     F1 1491   1.021   2.939   0.893
  111fsi     S1 1492   0.872   2.918   0.939
  111fsi      N 1493   0.862   2.769   0.955
  111fsi     O1 1494   0.863   2.992   1.063
  111fsi     O2 1495   0.794   2.973   0.832
  111fsi     S2 1496   0.894   2.705   1.086
  111fsi     O3 1497   0.993   2.794   1.142
  111fsi     O4 1498   0.944   2.575   1.046
  111fsi     F2 1499   0.755   2.704   1.160
  112fsi     F1 1500   3.098   1.363   0.828
  112fsi     S1 1501   3.018   1.415   0.702
  112fsi      N 1502   2.880   1.362   0.727
  112fsi     O1 1503   3.030   1.558   0.710
  112fsi     O2 1504   3.087   1.355   0.590
  112fsi     S2 1505   2.781   1.444   0.803
  112fsi     O3 1506   2.865   1.521   0.892
  112fsi     O4 1507   2.698   1.344   0.866
  112fsi     F2 1508   2.710   1.528   0.690
  113fsi     F1 1509   2.789   3.098   2.395
  113fsi     S1 1510   2.706   2.966   2.376
  113fsi      N 1511   2.690   2.916   2.517
  113fsi     O1 1512   2.584   3.009   2.313
  113fsi     O2 1513   2.790   2.883   2.292
  113fsi     S2 1514   2.571   2.959   2.598
  113fsi     O3 1515   2.542   3.090   2.545
  113fsi     O4 1516   2.623   2.957   2.733
  113fsi     F2 1517   2.464   2.848   2.566
  114fsi     F1 1518   2.025   1.527   0.700
  114fsi     S1 1519   1.962   1.413   0.787
  114fsi      N 1520   2.075   1.372   0.876
  114fsi     O1 1521   1.851   1.477   0.854
  114fsi     O2 1522   1.922   1.313   0.690
  114fsi     S2 1523   2.094   1.439   1.009
  114fsi     O3 1524   2.042   1.571   0.985
  114fsi     O4 1525   2.236   1.431   1.028
  114fsi     F2 1526   2.008   1.349   1.106
  115fsi     F1 1527   1.652   2.243   1.037
  115fsi     S1 1528   1.702   2.392   1.054
  115fsi      N 1529   1.784   2.414   0.931
  115fsi     O1 1530   1.581   2.469   1.061
  115fsi     O2 1531   1.778   2.389   1.177
  115fsi     S2 1532   1.719   2.468   0.807
  115fsi     O3 1533   1.584   2.418   0.817
  115fsi     O4 1534   1.799   2.410   0.702
  115fsi     F2 1535   1.735   2.624   0.824
  116fsi     F1 1536   0.871   1.435   1.672
  116fsi     S1 1537   0.731   1.473   1.610
  116fsi      N 1538   0.747   1.435   1.465
  116fsi     O1 1539   0.637   1.392   1.683
  116fsi     O2 1540   0.719   1.615   1.634
  116fsi     S2 1541   0.711   1.297   1.419
  116fsi     O3 1542   0.737   1.217   1.536
  116fsi     O4 1543   0.801   1.276   1.308
  116fsi     F2 1544   0.559   1.312   1.380
  117fsi     F1 1545   2.372   0.500   2.325
  117fsi     S1 1546   2.420   0.393   2.220
  117fsi      N 1547   2.350   0.268   2.264
  117fsi     O1 1548   2.375   0.446   2.093
  117fsi     O2 1549   2.563   0.391   2.235
  117fsi     S2 1550   2.214   0.235   2.210
  117fsi     O3 1551   2.158   0.366   2.185
  117fsi     O4 1552   2.154   0.162   2.319
  117fsi     F2 1553   2.246   0.150   2.082
  118fsi     F1 1554   1.648   2.721   1.906
  118fsi     S1 1555   1.802   2.754   1.904
  118fsi      N 1556   1.805   2.904   1.909
  118fsi     O1 1557   1.853   2.689   2.023
  118fsi     O2 1558   1.849   2.697   1.781
  118fsi     S2 1559   1.808   2.975   2.042
  118fsi     O3 1560   1.737   2.883   2.128
  118fsi     O4 1561   1.739   3.098   2.013
  118fsi     F2 1562   1.962   2.989   2.071
  119fsi     F1 1563   2.276   2.793   0.430
  119fsi     S1 1564   2.165   2.688   0.391
  119fsi      N 1565   2.166   2.593   0.507
  119fsi     O1 1566   2.045   2.767   0.379
  119fsi     O2 1567   2.212   2.632   0.266
  119fsi     S2 1568   2.077   2.618   0.625
  119fsi     O3 1569   2.067   2.762   0.627
  119fsi     O4 1570   2.152   2.559   0.733
  119fsi     F2 1571   1.945   2.542   0.586
  120fsi     F1 1572   2.717   2.358   2.964
  120fsi     S1 1573   2.700   2.506   2.912
  120fsi      N 1574   2.566   2.503   2.846
  120fsi     O1 1575   2.707   2.586   3.032
  120fsi     O2 1576   2.811   2.524   2.822
  120fsi     S2 1577   2.442   2.534   2.926
  120fsi     O3 1578   2.478   2.490   3.058
  120fsi     O4 1579   2.341   2.456   2.860
  120fsi     F2 1580   2.428   2.690   2.909
  121fsi     F1 1581   2.265   0.377   0.888
  121fsi     S1 1582   2.276   0.356   0.732
  121fsi      N 1583   2.135   0.377   0.685
  121fsi     O1 1584   2.369   0.458   0.690
  121fsi     O2 1585   2.326   0.221   0.718
  121fsi     S2 1586   2.088   0.514   0.647
  121fsi     O3 1587   2.168   0.599   0.731
  121fsi     O4 1588   1.947   0.509   0.679
  121fsi     F2 1589   2.122   0.521   0.493
  122fsi     F1 1590   2.333   0.696   3.098
  122fsi     S1 1591   2.272   0.654   2.958
  122fsi      N 1592   2.134   0.608   2.995
  122fsi     O1 1593   2.276   0.775   2.881
  122fsi     O2 1594   2.360   0.550   2.911
  122fsi     S2 1595   2.020   0.705   2.997
  122fsi     O3 1596   2.085   0.829   3.031
  122fsi     O4 1597   1.933   0.650   3.098
  122fsi     F2 1598   1.964   0.697   2.849
  123fsi     F1 1599   1.333   0.450   0.648
  123fsi     S1 1600   1.488   0.426   0.661
  123fsi      N 1601   1.546   0.560   0.627
  123fsi     O1 1602   1.506   0.386   0.798
  123fsi     O2 1603   1.516   0.322   0.564
  123fsi     S2 1604   1.570   0.661   0.735
  123fsi     O3 1605   1.467   0.630   0.831
  123fsi     O4 1606   1.553   0.787   0.666
  123fsi     F2 1607   1.717   0.629   0.782
  124fsi     F1 1608   2.697   0.483   2.798
  124fsi     S1 1609   2.773   0.609   2.855
  124fsi      N 1610   2.913   0.558   2.874
  124fsi     O1 1611   2.758   0.708   2.751
  124fsi     O2 1612   2.703   0.640   2.977
  124fsi     S2 1613   3.013   0.570   2.762
  124fsi     O3 1614   2.929   0.562   2.644
  124fsi     O4 1615   3.099   0.456   2.785
  124fsi     F2 1616   3.079   0.710   2.788
  125fsi     F1 1617   2.448   1.788   0.542
  125fsi     S1 1618   2.564   1.709   0.614
  125fsi      N 1619   2.613   1.806   0.717
  125fsi     O1 1620   2.498   1.593   0.668
  125fsi     O2 1621   2.657   1.680   0.508
  125fsi     S2 1622   2.552   1.808   0.854
  125fsi     O3 1623   2.417   1.765   0.829
  125fsi     O4 1624   2.567   1.947   0.893
  125fsi     F2 1625   2.642   1.706   0.934
  126fsi     F1 1626   2.751   0.832   1.074
  126fsi     S1 1627   2.809   0.796   0.932
  126fsi      N 1628   2.761   0.909   0.846
  126fsi     O1 1629   2.952   0.792   0.952
  126fsi     O2 1630   2.750   0.668   0.901
  126fsi     S2 1631   2.845   1.032   0.830
  126fsi     O3 1632   2.916   1.038   0.956
  126fsi     O4 1633   2.747   1.135   0.810
  126fsi     F2 1634   2.934   0.999   0.705
  127fsi     F1 1635   2.249   1.140   2.105
  127fsi     S1 1636   2.112   1.082   2.054
  127fsi      N 1637   2.012   1.182   2.103
  127fsi     O1 1638   2.127   1.077   1.911
  127fsi     O2 1639   2.103   0.952   2.116
  127fsi     S2 1640   1.975   1.299   2.018
  127fsi     O3 1641   2.095   1.322   1.942
  127fsi     O4 1642   1.943   1.401   2.115
  127fsi     F2 1643   1.852   1.245   1.935
  128fsi     F1 1644   1.092   0.432   1.474
  128fsi     S1 1645   1.159   0.299   1.525
  128fsi      N 1646   1.255   0.347   1.630
  128fsi     O1 1647   1.048   0.222   1.577
  128fsi     O2 1648   1.220   0.242   1.408
  128fsi     S2 1649   1.211   0.360   1.773
  128fsi     O3 1650   1.070   0.390   1.759
  128fsi     O4 1651   1.293   0.468   1.821
  128fsi     F2 1652   1.243   0.218   1.833
  129fsi     F1 1653   0.803   0.976   0.397
  129fsi     S1 1654   0.665   1.015   0.331
  129fsi      N 1655   0.589   0.886   0.333
  129fsi     O1 1656   0.612   1.117   0.418
  129fsi     O2 1657   0.702   1.062   0.200
  129fsi     S2 1658   0.503   0.851   0.450
  129fsi     O3 1659   0.571   0.916   0.559
  129fsi     O4 1660   0.508   0.707   0.451
  129fsi     F2 1661   0.363   0.913   0.412
  130fsi     F1 1662   0.956   2.682   0.407
  130fsi     S1 1663   0.814   2.643   0.465
  130fsi      N 1664   0.754   2.776   0.498
  130fsi     O1 1665   0.750   2.574   0.356
  130fsi     O2 1666   0.844   2.560   0.578
  130fsi     S2 1667   0.674   2.851   0.396
  130fsi     O3 1668   0.734   2.808   0.272
  130fsi     O4 1669   0.697   2.989   0.432
  130fsi     F2 1670   0.528   2.799   0.421
  131fsi     F1 1671   3.092   2.636   1.577
  131fsi     S1 1672   2.973   2.545   1.528
  131fsi      N 1673   2.884   2.642   1.456
  131fsi     O1 1674   3.037   2.447   1.442
  131fsi     O2 1675   2.917   2.490   1.649
  131fsi     S2 1676   2.904   2.668   1.309
  131fsi     O3 1677   3.046   2.646   1.292
  131fsi     O4 1678   2.860   2.805   1.295
  131fsi     F2 1679   2.811   2.560   1.242
  132fsi     F1 1680   1.133   1.594   2.531
  132fsi     S1 1681   1.246   1.699   2.501
  132fsi      N 1682   1.360   1.615   2.452
  132fsi     O1 1683   1.188   1.786   2.402
  132fsi     O2 1684   1.269   1.763   2.629
  132fsi     S2 1685   1.373   1.585   2.306
  132fsi     O3 1686   1.236   1.587   2.261
  132fsi     O4 1687   1.437   1.456   2.305
  132fsi     F2 1688   1.462   1.704   2.253
  133fsi     F1 1689   1.617   2.713   2.421
  133fsi     S1 1690   1.757   2.713   2.493
  133fsi      N 1691   1.809   2.576   2.464
  133fsi     O1 1692   1.829   2.820   2.430
  133fsi     O2 1693   1.725   2.737   2.632
  133fsi     S2 1694   1.892   2.552   2.341
  133fsi     O3 1695   1.839   2.649   2.249
  133fsi     O4 1696   1.861   2.414   2.309
  133fsi     F2 1697   2.039   2.578   2.391
  134fsi     F1 1698   2.139   2.531   1.658
  134fsi     S1 1699   2.223   2.661   1.629
  134fsi      N 1700   2.118   2.765   1.605
  134fsi     O1 1701   2.300   2.680   1.750
  134fsi     O2 1702   2.302   2.627   1.513
  134fsi     S2 1703   2.064   2.846   1.720
  134fsi     O3 1704   2.077   2.754   1.831
  134fsi     O4 1705   1.929   2.874   1.678
  134fsi     F2 1706   2.161   2.970   1.724
  135fsi     F1 1707   1.884   0.717   1.433
  135fsi     S1 1708   1.855   0.563   1.419
  135fsi      N 1709   1.992   0.502   1.429
  135fsi     O1 1710   1.768   0.533   1.530
  135fsi     O2 1711   1.793   0.550   1.289
  135fsi     S2 1712   2.046   0.463   1.563
  135fsi     O3 1713   1.983   0.557   1.652
  135fsi     O4 1714   2.189   0.480   1.545
  135fsi     F2 1715   1.998   0.313   1.578
  136fsi     F1 1716   1.167   1.691   1.136
  136fsi     S1 1717   1.013   1.704   1.108
  136fsi      N 1718   0.965   1.791   1.221
  136fsi     O1 1719   1.006   1.766   0.978
  136fsi     O2 1720   0.965   1.568   1.112
  136fsi     S2 1721   0.964   1.940   1.205
  136fsi     O3 1722   1.073   1.963   1.114
  136fsi     O4 1723   0.985   1.986   1.340
  136fsi     F2 1724   0.820   1.968   1.147
  137fsi     F1 1725   2.994   2.741   2.424
  137fsi     S1 1726   2.921   2.688   2.552
  137fsi      N 1727   2.788   2.643   2.500
  137fsi     O1 1728   3.006   2.581   2.599
  137fsi     O2 1729   2.916   2.802   2.641
  137fsi     S2 1730   2.770   2.503   2.451
  137fsi     O3 1731   2.901   2.469   2.403
  137fsi     O4 1732   2.668   2.517   2.349
  137fsi     F2 1733   2.724   2.426   2.580
  138fsi     F1 1734   0.742   2.751   2.710
  138fsi     S1 1735   0.722   2.695   2.564
  138fsi      N 1736   0.618   2.786   2.507
  138fsi     O1 1737   0.853   2.707   2.503
  138fsi     O2 1738   0.679   2.559   2.585
  138fsi     S2 1739   0.658   2.910   2.435
  138fsi     O3 1740   0.782   2.946   2.500
  138fsi     O4 1741   0.547   2.999   2.460
  138fsi     F2 1742   0.672   2.862   2.286
  139fsi     F1 1743   0.601   2.658   2.130
  139fsi     S1 1744   0.534   2.632   2.270
  139fsi      N 1745   0.447   2.753   2.288
  139fsi     O1 1746   0.462   2.508   2.251
  139fsi     O2 1747   0.645   2.623   2.362
  139fsi     S2 1748   0.305   2.751   2.239
  139fsi     O3 1749   0.312   2.662   2.125
  139fsi     O4 1750   0.282   2.890   2.207
  139fsi     F2 1751   0.225   2.696   2.362
  140fsi     F1 1752   1.685   2.598   2.799
  140fsi     S1 1753   1.567   2.656   2.886
  140fsi      N 1754   1.465   2.546   2.882
  140fsi     O1 1755   1.627   2.678   3.016
  140fsi     O2 1756   1.528   2.777   2.817
  140fsi     S2 1757   1.467   2.438   2.986
  140fsi     O3 1758   1.607   2.430   3.020
  140fsi     O4 1759   1.414   2.325   2.914
  140fsi     F2 1760   1.373   2.496   3.098
  141fsi     F1 1761   2.020   0.593   0.191
  141fsi     S1 1762   2.136   0.696   0.219
  141fsi      N 1763   2.082   0.823   0.161
  141fsi     O1 1764   2.148   0.696   0.363
  141fsi     O2 1765   2.250   0.641   0.150
  141fsi     S2 1766   2.001   0.916   0.246
  141fsi     O3 1767   1.937   0.826   0.339
  141fsi     O4 1768   1.913   0.978   0.150
  141fsi     F2 1769   2.110   1.012   0.308
  142fsi     F1 1770   2.124   0.609   2.412
  142fsi     S1 1771   2.044   0.473   2.417
  142fsi      N 1772   2.152   0.370   2.406
  142fsi     O1 1773   1.977   0.477   2.544
  142fsi     O2 1774   1.956   0.480   2.303
  142fsi     S2 1775   2.218   0.316   2.530
  142fsi     O3 1776   2.209   0.428   2.621
  142fsi     O4 1777   2.351   0.285   2.484
  142fsi     F2 1778   2.128   0.192   2.566
  143fsi     F1 1779   0.741   0.602   1.371
  143fsi     S1 1780   0.591   0.630   1.331
  143fsi      N 1781   0.561   0.758   1.401
  143fsi     O1 1782   0.595   0.640   1.187
  143fsi     O2 1783   0.520   0.515   1.380
  143fsi     S2 1784   0.586   0.889   1.333
  143fsi     O3 1785   0.697   0.859   1.247
  143fsi     O4 1786   0.616   0.977   1.444
  143fsi     F2 1787   0.450   0.918   1.260
  144fsi     F1 1788   1.211   1.971   0.566
  144fsi     S1 1789   1.234   1.849   0.469
  144fsi      N 1790   1.103   1.838   0.396
  144fsi     O1 1791   1.345   1.890   0.387
  144fsi     O2 1792   1.263   1.739   0.558
  144fsi     S2 1793   1.082   1.913   0.268
  144fsi     O3 1794   1.166   2.030   0.286
  144fsi     O4 1795   0.940   1.939   0.269
  144fsi     F2 1796   1.132   1.812   0.159
  145fsi     F1 1797   1.278   0.976   2.438
  145fsi     S1 1798   1.351   0.986   2.577
  145fsi      N 1799   1.496   0.973   2.539
  145fsi     O1 1800   1.314   1.116   2.626
  145fsi     O2 1801   1.298   0.876   2.653
  145fsi     S2 1802   1.577   1.095   2.507
  145fsi     O3 1803   1.478   1.184   2.451
  145fsi     O4 1804   1.674   1.044   2.412
  145fsi     F2 1805   1.635   1.137   2.647
  146fsi     F1 1806   2.000   1.859   3.062
  146fsi     S1 1807   2.075   1.741   2.990
  146fsi      N 1808   1.970   1.686   2.898
  146fsi     O1 1809   2.185   1.805   2.923
  146fsi     O2 1810   2.113   1.653   3.097
  146fsi     S2 1811   1.956   1.740   2.759
  146fsi     O3 1812   1.999   1.877   2.774
  146fsi     O4 1813   1.815   1.722   2.732
  146fsi     F2 1814   2.052   1.648   2.675
  147fsi     F1 1815   2.674   2.941   1.305
  147fsi     S1 1816   2.720   2.977   1.452
  147fsi      N 1817   2.591   3.009   1.521
  147fsi     O1 1818   2.785   2.857   1.498
  147fsi     O2 1819   2.809   3.089   1.435
  147fsi     S2 1820   2.514   2.900   1.589
  147fsi     O3 1821   2.548   2.783   1.512
  147fsi     O4 1822   2.377   2.945   1.577
  147fsi     F2 1823   2.572   2.902   1.736
  148fsi     F1 1824   1.156   0.915   2.265
  148fsi     S1 1825   1.080   1.027   2.345
  148fsi      N 1826   0.953   1.044   2.266
  148fsi     O1 1827   1.061   0.971   2.476
  148fsi     O2 1828   1.169   1.140   2.340
  148fsi     S2 1829   0.832   0.962   2.299
  148fsi     O3 1830   0.890   0.840   2.350
  148fsi     O4 1831   0.766   0.950   2.171
  148fsi     F2 1832   0.757   1.051   2.405
  149fsi     F1 1833   1.202   2.532   2.358
  149fsi     S1 1834   1.349   2.501   2.405
  149fsi      N 1835   1.394   2.633   2.461
  149fsi     O1 1836   1.333   2.397   2.504
  149fsi     O2 1837   1.417   2.460   2.285
  149fsi     S2 1838   1.372   2.665   2.606
  149fsi     O3 1839   1.251   2.591   2.636
  149fsi     O4 1840   1.357   2.809   2.604
  149fsi     F2 1841   1.503   2.611   2.675
  150fsi     F1 1842   1.072   1.435   2.126
  150fsi     S1 1843   1.134   1.320   2.213
  150fsi      N 1844   1.087   1.196   2.144
  150fsi     O1 1845   1.276   1.343   2.205
  150fsi     O2 1846   1.078   1.341   2.345
  150fsi     S2 1847   1.169   1.134   2.035
  150fsi     O3 1848   1.236   1.249   1.978
  150fsi     O4 1849   1.069   1.073   1.951
  150fsi     F2 1850   1.262   1.034   2.113
  151fsi     F1 1851   2.656   1.435   2.545
  151fsi     S1 1852   2.514   1.366   2.554
  151fsi      N 1853   2.431   1.469   2.625
  151fsi     O1 1854   2.478   1.343   2.416
  151fsi     O2 1855   2.539   1.246   2.629
  151fsi     S2 1856   2.357   1.572   2.546
  151fsi     O3 1857   2.440   1.589   2.429
  151fsi     O4 1858   2.354   1.685   2.637
  151fsi     F2 1859   2.218   1.504   2.520
  152fsi     F1 1860   1.847   0.902   2.382
  152fsi     S1 1861   1.748   0.783   2.410
  152fsi      N 1862   1.675   0.769   2.279
  152fsi     O1 1863   1.834   0.672   2.444
  152fsi     O2 1864   1.666   0.831   2.519
  152fsi     S2 1865   1.729   0.677   2.174
  152fsi     O3 1866   1.871   0.681   2.197
  152fsi     O4 1867   1.685   0.740   2.052
  152fsi     F2 1868   1.659   0.540   2.207
  153fsi     F1 1869   1.407   1.581   1.811
  153fsi     S1 1870   1.561   1.600   1.786
  153fsi      N 1871   1.613   1.638   1.921
  153fsi     O1 1872   1.605   1.472   1.738
  153fsi     O2 1873   1.568   1.706   1.688
  153fsi     S2 1874   1.659   1.531   2.016
  153fsi     O3 1875   1.576   1.418   1.979
  153fsi     O4 1876   1.630   1.589   2.145
  153fsi     F2 1877   1.812   1.516   1.982
  154fsi     F1 1878   0.299   1.683   2.482
  154fsi     S1 1879   0.456   1.687   2.487
  154fsi      N 1880   0.487   1.833   2.487
  154fsi     O1 1881   0.489   1.618   2.610
  154fsi     O2 1882   0.497   1.617   2.367
  154fsi     S2 1883   0.498   1.907   2.617
  154fsi     O3 1884   0.408   1.834   2.703
  154fsi     O4 1885   0.455   2.040   2.581
  154fsi     F2 1886   0.651   1.893   2.653
  155fsi     F1 1887   0.797   2.420   1.118
  155fsi     S1 1888   0.642   2.432   1.138
  155fsi      N 1889   0.609   2.560   1.068
  155fsi     O1 1890   0.589   2.314   1.074
  155fsi     O2 1891   0.624   2.434   1.281
  155fsi     S2 1892   0.573   2.560   0.922
  155fsi     O3 1893   0.648   2.447   0.872
  155fsi     O4 1894   0.620   2.690   0.878
  155fsi     F2 1895   0.417   2.542   0.924
  156fsi     F1 1896   2.820   1.703   1.062
  156fsi     S1 1897   2.708   1.612   1.127
  156fsi      N 1898   2.774   1.562   1.252
  156fsi     O1 1899   2.598   1.703   1.149
  156fsi     O2 1900   2.683   1.511   1.027
  156fsi     S2 1901   2.762   1.639   1.380
  156fsi     O3 1902   2.750   1.775   1.333
  156fsi     O4 1903   2.885   1.607   1.447
  156fsi     F2 1904   2.632   1.579   1.445
  157fsi     F1 1905   1.043   3.009   0.686
  157fsi     S1 1906   0.998   2.883   0.603
  157fsi      N 1907   0.905   2.942   0.500
  157fsi     O1 1908   1.120   2.829   0.549
  157fsi     O2 1909   0.933   2.798   0.700
  157fsi     S2 1910   0.959   2.988   0.368
  157fsi     O3 1911   1.094   3.029   0.402
  157fsi     O4 1912   0.869   3.096   0.333
  157fsi     F2 1913   0.948   2.860   0.278
  158fsi     F1 1914   0.573   0.712   1.966
  158fsi     S1 1915   0.584   0.673   2.118
  158fsi      N 1916   0.698   0.576   2.120
  158fsi     O1 1917   0.609   0.798   2.186
  158fsi     O2 1918   0.455   0.614   2.148
  158fsi     S2 1919   0.838   0.626   2.141
  158fsi     O3 1920   0.833   0.759   2.085
  158fsi     O4 1921   0.918   0.531   2.068
  158fsi     F2 1922   0.854   0.621   2.298
  159fsi     F1 1923   2.663   0.257   1.175
  159fsi     S1 1924   2.631   0.411   1.187
  159fsi      N 1925   2.743   0.462   1.272
  159fsi     O1 1926   2.632   0.458   1.050
  159fsi     O2 1927   2.501   0.415   1.250
  159fsi     S2 1928   2.870   0.511   1.207
  159fsi     O3 1929   2.877   0.431   1.088
  159fsi     O4 1930   2.970   0.482   1.308
  159fsi     F2 1931   2.841   0.664   1.184
  160fsi     F1 1932   1.963   1.971   0.808
  160fsi     S1 1933   1.817   1.920   0.839
  160fsi      N 1934   1.789   1.826   0.726
  160fsi     O1 1935   1.828   1.857   0.969
  160fsi     O2 1936   1.737   2.041   0.839
  160fsi     S2 1937   1.824   1.681   0.739
  160fsi     O3 1938   1.938   1.684   0.827
  160fsi     O4 1939   1.853   1.643   0.602
  160fsi     F2 1940   1.693   1.618   0.799
  161fsi     F1 1941   1.245   0.500   1.296
  161fsi     S1 1942   1.211   0.519   1.143
  161fsi      N 1943   1.200   0.668   1.129
  161fsi     O1 1944   1.323   0.460   1.074
  161fsi     O2 1945   1.086   0.448   1.126
  161fsi     S2 1946   1.321   0.749   1.095
  161fsi     O3 1947   1.428   0.672   1.153
  161fsi     O4 1948   1.294   0.875   1.159
  161fsi     F2 1949   1.318   0.752   0.937
  162fsi     F1 1950   1.437   1.938   0.581
  162fsi     S1 1951   1.526   1.808   0.581
  162fsi      N 1952   1.465   1.725   0.472
  162fsi     O1 1953   1.659   1.857   0.552
  162fsi     O2 1954   1.511   1.754   0.714
  162fsi     S2 1955   1.513   1.739   0.330
  162fsi     O3 1956   1.556   1.877   0.325
  162fsi     O4 1957   1.395   1.708   0.253
  162fsi     F2 1958   1.629   1.633   0.322
  163fsi     F1 1959   0.768   2.168   0.301
  163fsi     S1 1960   0.632   2.245   0.286
  163fsi      N 1961   0.575   2.242   0.424
  163fsi     O1 1962   0.671   2.376   0.241
  163fsi     O2 1963   0.558   2.169   0.188
  163fsi     S2 1964   0.607   2.351   0.522
  163fsi     O3 1965   0.738   2.393   0.480
  163fsi     O4 1966   0.601   2.283   0.649
  163fsi     F2 1967   0.492   2.456   0.497
  164fsi     F1 1968   0.367   1.494   2.744
  164fsi     S1 1969   0.401   1.341   2.731
  164fsi      N 1970   0.284   1.287   2.653
  164fsi     O1 1971   0.526   1.339   2.660
  164fsi     O2 1972   0.409   1.294   2.867
  164fsi     S2 1973   0.289   1.284   2.503
  164fsi     O3 1974   0.373   1.397   2.472
  164fsi     O4 1975   0.150   1.299   2.467
  164fsi     F2 1976   0.352   1.143   2.472
  165fsi     F1 1977   1.773   1.659   1.758
  165fsi     S1 1978   1.854   1.772   1.683
  165fsi      N 1979   1.893   1.706   1.554
  165fsi     O1 1980   1.759   1.880   1.669
  165fsi     O2 1981   1.964   1.801   1.772
  165fsi     S2 1982   1.803   1.715   1.435
  165fsi     O3 1983   1.672   1.724   1.495
  165fsi     O4 1984   1.831   1.592   1.365
  165fsi     F2 1985   1.853   1.845   1.362
  166fsi     F1 1986   2.712   0.795   1.824
  166fsi     S1 1987   2.623   0.905   1.892
  166fsi      N 1988   2.533   0.826   1.982
  166fsi     O1 1989   2.717   0.990   1.961
  166fsi     O2 1990   2.556   0.969   1.781
  166fsi     S2 1991   2.575   0.797   2.123
  166fsi     O3 1992   2.718   0.793   2.113
  166fsi     O4 1993   2.511   0.670   2.150
  166fsi     F2 1994   2.516   0.920   2.203
  167fsi     F1 1995   0.937   0.616   2.875
  167fsi     S1 1996   1.055   0.606   2.772
  167fsi      N 1997   1.177   0.619   2.858
  167fsi     O1 1998   1.038   0.476   2.711
  167fsi     O2 1999   1.033   0.717   2.682
  167fsi     S2 2000   1.241   0.497   2.917
  167fsi     O3 2001   1.129   0.407   2.933
  167fsi     O4 2002   1.298   0.548   3.040
  167fsi     F2 2003   1.346   0.455   2.807
  168fsi     F1 2004   1.025   2.856   1.461
  168fsi     S1 2005   1.127   2.962   1.405
  168fsi      N 2006   1.241   2.954   1.502
  168fsi     O1 2007   1.157   2.914   1.272
  168fsi     O2 2008   1.054   3.087   1.408
  168fsi     S2 2009   1.353   2.857   1.478
  168fsi     O3 2010   1.288   2.750   1.406
  168fsi     O4 2011   1.396   2.825   1.611
  168fsi     F2 2012   1.455   2.942   1.393
  169fsi     F1 2013   2.401   1.161   1.165
  169fsi     S1 2014   2.421   1.158   1.009
  169fsi      N 2015   2.316   1.060   0.964
  169fsi     O1 2016   2.397   1.294   0.967
  169fsi     O2 2017   2.556   1.113   0.991
  169fsi     S2 2018   2.178   1.109   0.928
  169fsi     O3 2019   2.163   1.224   1.013
  169fsi     O4 2020   2.095   0.995   0.962
  169fsi     F2 2021   2.190   1.140   0.774
  170fsi     F1 2022   2.403   1.124   0.216
  170fsi     S1 2023   2.451   0.974   0.223
  170fsi      N 2024   2.586   0.979   0.159
  170fsi     O1 2025   2.453   0.945   0.364
  170fsi     O2 2026   2.351   0.902   0.149
  170fsi     S2 2027   2.708   1.004   0.242
  170fsi     O3 2028   2.657   1.086   0.349
  170fsi     O4 2029   2.796   1.071   0.149
  170fsi     F2 2030   2.753   0.859   0.284
  171fsi     F1 2031   1.997   0.647   1.023
  171fsi     S1 2032   2.079   0.705   1.145
  171fsi      N 2033   2.065   0.853   1.127
  171fsi     O1 2034   2.012   0.652   1.261
  171fsi     O2 2035   2.212   0.654   1.125
  171fsi     S2 2036   1.951   0.926   1.191
  171fsi     O3 2037   1.847   0.826   1.194
  171fsi     O4 2038   1.929   1.036   1.100
  171fsi     F2 2039   2.010   0.967   1.332
  172fsi     F1 2040   2.333   2.208   1.389
  172fsi     S1 2041   2.256   2.345   1.395
  172fsi      N 2042   2.367   2.446   1.395
  172fsi     O1 2043   2.175   2.345   1.275
  172fsi     O2 2044   2.181   2.339   1.517
  172fsi     S2 2045   2.420   2.500   1.265
  172fsi     O3 2046   2.399   2.390   1.174
  172fsi     O4 2047   2.558   2.529   1.297
  172fsi     F2 2048   2.329   2.627   1.240
  173fsi     F1 2049   0.711   0.765   2.666
  173fsi     S1 2050   0.724   0.891   2.572
  173fsi      N 2051   0.653   0.848   2.447
  173fsi     O1 2052   0.658   0.996   2.646
  173fsi     O2 2053   0.867   0.909   2.558
  173fsi     S2 2054   0.506   0.873   2.432
  173fsi     O3 2055   0.459   0.868   2.569
  173fsi     O4 2056   0.464   0.764   2.348
  173fsi     F2 2057   0.501   1.015   2.365
  174fsi     F1 2058   0.736   3.007   1.296
  174fsi     S1 2059   0.733   2.924   1.430
  174fsi      N 2060   0.586   2.910   1.458
  174fsi     O1 2061   0.800   2.801   1.396
  174fsi     O2 2062   0.805   3.006   1.524
  174fsi     S2 2063   0.510   2.793   1.403
  174fsi     O3 2064   0.582   2.763   1.281
  174fsi     O4 2065   0.378   2.847   1.385
  174fsi     F2 2066   0.524   2.685   1.517
  175fsi     F1 2067   2.306   1.458   0.542
  175fsi     S1 2068   2.188   1.354   0.530
  175fsi      N 2069   2.094   1.420   0.434
  175fsi     O1 2070   2.252   1.235   0.480
  175fsi     O2 2071   2.138   1.342   0.665
  175fsi     S2 2072   2.108   1.395   0.287
  175fsi     O3 2073   2.249   1.372   0.272
  175fsi     O4 2074   2.059   1.518   0.229
  175fsi     F2 2075   2.016   1.269   0.263
  176fsi     F1 2076   1.952   2.176   0.888
  176fsi     S1 2077   2.037   2.203   1.018
  176fsi      N 2078   1.932   2.237   1.120
  176fsi     O1 2079   2.106   2.078   1.041
  176fsi     O2 2080   2.123   2.313   0.981
  176fsi     S2 2081   1.871   2.128   1.203
  176fsi     O3 2082   1.877   2.014   1.115
  176fsi     O4 2083   1.738   2.179   1.229
  176fsi     F2 2084   1.966   2.121   1.329
  177fsi     F1 2085   2.321   2.007   1.595
  177fsi     S1 2086   2.203   2.011   1.700
  177fsi      N 2087   2.269   2.070   1.821
  177fsi     O1 2088   2.104   2.095   1.638
  177fsi     O2 2089   2.164   1.873   1.714
  177fsi     S2 2090   2.269   2.218   1.842
  177fsi     O3 2091   2.270   2.269   1.706
  177fsi     O4 2092   2.391   2.240   1.916
  177fsi     F2 2093   2.137   2.244   1.922
  178fsi     F1 2094   1.633   1.916   2.074
  178fsi     S1 2095   1.476   1.916   2.073
  178fsi      N 2096   1.443   2.025   1.974
  178fsi     O1 2097   1.441   1.783   2.030
  178fsi     O2 2098   1.439   1.946   2.209
  178fsi     S2 2099   1.427   1.992   1.829
  178fsi     O3 2100   1.516   1.879   1.813
  178fsi     O4 2101   1.469   2.114   1.764
  178fsi     F2 2102   1.274   1.959   1.817
  179fsi     F1 2103   0.596   0.926   1.918
  179fsi     S1 2104   0.604   0.899   1.763
  179fsi      N 2105   0.746   0.934   1.730
  179fsi     O1 2106   0.573   0.758   1.750
  179fsi     O2 2107   0.505   0.987   1.706
  179fsi     S2 2108   0.853   0.830   1.737
  179fsi     O3 2109   0.804   0.742   1.840
  179fsi     O4 2110   0.970   0.907   1.771
  179fsi     F2 2111   0.853   0.769   1.591
  180fsi     F1 2112   0.732   0.550   2.496
  180fsi     S1 2113   0.866   0.469   2.476
  180fsi      N 2114   0.866   0.375   2.592
  180fsi     O1 2115   0.850   0.406   2.347
  180fsi     O2 2116   0.969   0.570   2.480
  180fsi     S2 2117   0.803   0.240   2.579
  180fsi     O3 2118   0.698   0.263   2.483
  180fsi     O4 2119   0.758   0.213   2.714
  180fsi     F2 2120   0.921   0.149   2.528
  181fsi     F1 2121   1.314   2.393   0.570
  181fsi     S1 2122   1.166   2.350   0.602
  181fsi      N 2123   1.086   2.431   0.504
  181fsi     O1 2124   1.165   2.208   0.577
  181fsi     O2 2125   1.148   2.386   0.740
  181fsi     S2 2126   1.055   2.376   0.368
  181fsi     O3 2127   1.168   2.291   0.342
  181fsi     O4 2128   1.046   2.495   0.287
  181fsi     F2 2129   0.918   2.301   0.391
  182fsi     F1 2130   2.257   1.869   0.615
  182fsi     S1 2131   2.207   1.720   0.605
  182fsi      N 2132   2.058   1.735   0.593
  182fsi     O1 2133   2.272   1.669   0.487
  182fsi     O2 2134   2.252   1.660   0.728
  182fsi     S2 2135   1.995   1.747   0.458
  182fsi     O3 2136   2.098   1.811   0.380
  182fsi     O4 2137   1.878   1.828   0.485
  182fsi     F2 2138   1.965   1.597   0.419
  183fsi     F1 2139   2.656   2.662   0.181
  183fsi     S1 2140   2.708   2.791   0.255
  183fsi      N 2141   2.601   2.817   0.356
  183fsi     O1 2142   2.835   2.751   0.310
  183fsi     O2 2143   2.717   2.890   0.150
  183fsi     S2 2144   2.611   2.756   0.493
  183fsi     O3 2145   2.682   2.633   0.467
  183fsi     O4 2146   2.472   2.740   0.530
  183fsi     F2 2147   2.691   2.864   0.575
  184fsi     F1 2148   2.767   0.761   2.422
  184fsi     S1 2149   2.726   0.902   2.480
  184fsi      N 2150   2.850   0.984   2.461
  184fsi     O1 2151   2.614   0.942   2.398
  184fsi     O2 2152   2.693   0.874   2.618
  184fsi     S2 2153   2.870   1.061   2.333
  184fsi     O3 2154   2.799   0.981   2.237
  184fsi     O4 2155   3.014   1.063   2.320
  184fsi     F2 2156   2.804   1.201   2.366
  185fsi     F1 2157   2.008   1.609   2.047
  185fsi     S1 2158   2.157   1.644   2.086
  185fsi      N 2159   2.235   1.529   2.030
  185fsi     O1 2160   2.181   1.771   2.022
  185fsi     O2 2161   2.154   1.650   2.230
  185fsi     S2 2162   2.288   1.537   1.890
  185fsi     O3 2163   2.191   1.621   1.823
  185fsi     O4 2164   2.288   1.398   1.848
  185fsi     F2 2165   2.431   1.601   1.909
  186fsi     F1 2166   1.697   2.601   0.167
  186fsi     S1 2167   1.723   2.744   0.226
  186fsi      N 2168   1.695   2.726   0.373
  186fsi     O1 2169   1.861   2.772   0.194
  186fsi     O2 2170   1.628   2.828   0.157
  186fsi     S2 2171   1.806   2.686   0.465
  186fsi     O3 2172   1.893   2.609   0.380
  186fsi     O4 2173   1.737   2.611   0.567
  186fsi     F2 2174   1.865   2.825   0.512
  187fsi     F1 2175   0.629   1.619   1.433
  187fsi     S1 2176   0.758   1.707   1.410
  187fsi      N 2177   0.869   1.618   1.459
  187fsi     O1 2178   0.759   1.731   1.268
  187fsi     O2 2179   0.735   1.825   1.490
  187fsi     S2 2180   0.937   1.524   1.365
  187fsi     O3 2181   0.833   1.493   1.271
  187fsi     O4 2182   0.976   1.416   1.452
  187fsi     F2 2183   1.056   1.610   1.308
  188fsi     F1 2184   1.721   1.406   1.413
  188fsi     S1 2185   1.750   1.255   1.376
  188fsi      N 2186   1.866   1.220   1.464
  188fsi     O1 2187   1.628   1.187   1.408
  188fsi     O2 2188   1.781   1.259   1.235
  188fsi     S2 2189   1.842   1.164   1.601
  188fsi     O3 2190   1.716   1.224   1.638
  188fsi     O4 2191   1.957   1.211   1.675
  188fsi     F2 2192   1.838   1.009   1.575
  189fsi     F1 2193   1.888   2.323   2.578
  189fsi     S1 2194   2.039   2.286   2.606
  189fsi      N 2195   2.063   2.169   2.516
  189fsi     O1 2196   2.112   2.405   2.570
  189fsi     O2 2197   2.041   2.255   2.747
  189fsi     S2 2198   2.113   2.191   2.376
  189fsi     O3 2199   2.057   2.320   2.343
  189fsi     O4 2200   2.056   2.079   2.305
  189fsi     F2 2201   2.269   2.187   2.393
  190fsi     F1 2202   2.592   0.605   2.648
  190fsi     S1 2203   2.537   0.475   2.578
  190fsi      N 2204   2.630   0.459   2.461
  190fsi     O1 2205   2.548   0.373   2.678
  190fsi     O2 2206   2.401   0.509   2.542
  190fsi     S2 2207   2.755   0.377   2.475
  190fsi     O3 2208   2.788   0.395   2.615
  190fsi     O4 2209   2.845   0.441   2.382
  190fsi     F2 2210   2.708   0.232   2.436
  191fsi     F1 2211   2.664   2.847   2.082
  191fsi     S1 2212   2.640   2.726   2.181
  191fsi      N 2213   2.567   2.790   2.296
  191fsi     O1 2214   2.560   2.633   2.104
  191fsi     O2 2215   2.772   2.679   2.212
  191fsi     S2 2216   2.418   2.798   2.295
  191fsi     O3 2217   2.387   2.805   2.154
  191fsi     O4 2218   2.392   2.918   2.370
  191fsi     F2 2219   2.375   2.664   2.367
  192fsi     F1 2220   1.299   2.525   1.343
  192fsi     S1 2221   1.322   2.395   1.257
  192fsi      N 2222   1.224   2.298   1.315
  192fsi     O1 2223   1.292   2.437   1.122
  192fsi     O2 2224   1.460   2.362   1.279
  192fsi     S2 2225   1.084   2.290   1.260
  192fsi     O3 2226   1.061   2.424   1.214
  192fsi     O4 2227   1.008   2.249   1.376
  192fsi     F2 2228   1.097   2.181   1.147
  193fsi     F1 2229   2.566   1.309   2.217
  193fsi     S1 2230   2.434   1.244   2.160
  193fsi      N 2231   2.354   1.216   2.283
  193fsi     O1 2232   2.379   1.347   2.074
  193fsi     O2 2233   2.481   1.127   2.089
  193fsi     S2 2234   2.259   1.319   2.336
  193fsi     O3 2235   2.322   1.443   2.296
  193fsi     O4 2236   2.259   1.292   2.478
  193fsi     F2 2237   2.124   1.285   2.262
  194fsi     F1 2238   0.809   2.209   1.585
  194fsi     S1 2239   0.701   2.324   1.586
  194fsi      N 2240   0.785   2.449   1.577
  194fsi     O1 2241   0.621   2.297   1.469
  194fsi     O2 2242   0.632   2.306   1.711
  194fsi     S2 2243   0.820   2.506   1.443
  194fsi     O3 2244   0.825   2.389   1.359
  194fsi     O4 2245   0.947   2.569   1.469
  194fsi     F2 2246   0.701   2.605   1.414
  195fsi     F1 2247   1.801   1.025   0.556
  195fsi     S1 2248   1.663   1.090   0.517
  195fsi      N 2249   1.687   1.236   0.541
  195fsi     O1 2250   1.645   1.054   0.379
  195fsi     O2 2251   1.569   1.029   0.607
  195fsi     S2 2252   1.740   1.323   0.431
  195fsi     O3 2253   1.819   1.230   0.354
  195fsi     O4 2254   1.814   1.424   0.502
  195fsi     F2 2255   1.608   1.373   0.360
  196fsi     F1 2256   2.479   0.150   1.643
  196fsi     S1 2257   2.545   0.277   1.710
  196fsi      N 2258   2.675   0.289   1.637
  196fsi     O1 2259   2.451   0.383   1.683
  196fsi     O2 2260   2.556   0.241   1.849
  196fsi     S2 2261   2.684   0.371   1.512
  196fsi     O3 2262   2.551   0.358   1.456
  196fsi     O4 2263   2.789   0.304   1.438
  196fsi     F2 2264   2.721   0.514   1.565
  197fsi     F1 2265   2.691   0.538   0.645
  197fsi     S1 2266   2.645   0.470   0.780
  197fsi      N 2267   2.573   0.347   0.733
  197fsi     O1 2268   2.768   0.444   0.850
  197fsi     O2 2269   2.561   0.569   0.842
  197fsi     S2 2270   2.648   0.219   0.714
  197fsi     O3 2271   2.780   0.264   0.678
  197fsi     O4 2272   2.574   0.154   0.608
  197fsi     F2 2273   2.637   0.150   0.855
  198fsi     F1 2274   1.957   1.747   2.248
  198fsi     S1 2275   1.952   1.714   2.402
  198fsi      N 2276   1.809   1.675   2.424
  198fsi     O1 2277   2.047   1.606   2.417
  198fsi     O2 2278   1.992   1.837   2.466
  198fsi     S2 2279   1.767   1.532   2.410
  198fsi     O3 2280   1.859   1.482   2.310
  198fsi     O4 2281   1.630   1.544   2.366
  198fsi     F2 2282   1.787   1.474   2.555
  199fsi     F1 2283   0.631   0.906   1.027
  199fsi     S1 2284   0.555   1.038   0.987
  199fsi      N 2285   0.664   1.124   0.930
  199fsi     O1 2286   0.456   0.994   0.891
  199fsi     O2 2287   0.499   1.085   1.111
  199fsi     S2 2288   0.696   1.118   0.784
  199fsi     O3 2289   0.662   0.982   0.750
  199fsi     O4 2290   0.836   1.149   0.781
  199fsi     F2 2291   0.601   1.228   0.723
  200fsi     F1 2292   2.436   2.429   2.020
  200fsi     S1 2293   2.320   2.464   2.121
  200fsi      N 2294   2.299   2.610   2.099
  200fsi     O1 2295   2.210   2.380   2.080
  200fsi     O2 2296   2.376   2.429   2.250
  200fsi     S2 2297   2.200   2.657   1.997
  200fsi     O3 2298   2.203   2.551   1.899
  200fsi     O4 2299   2.257   2.783   1.954
  200fsi     F2 2300   2.067   2.669   2.080
   3.24840   3.24840   3.24840
