L2P1 short trajectory practice
 1400
    1Li+     Li    1   4.532   4.081   1.606
    2Li+     Li    2   3.809   1.128   3.316
    3Li+     Li    3   1.518   1.911   4.201
    4Li+     Li    4   1.875   5.031   1.032
    5Li+     Li    5   4.270   1.390   3.999
    6Li+     Li    6   1.630   3.847   3.557
    7Li+     Li    7   4.479   1.766   2.539
    8Li+     Li    8   2.798   1.425   0.758
    9Li+     Li    9   3.011   5.071   4.057
   10Li+     Li   10   1.964   3.348   2.088
   11Li+     Li   11   5.564   0.998   0.622
   12Li+     Li   12   3.786   0.362   1.289
   13Li+     Li   13   5.539   1.047   3.947
   14Li+     Li   14   3.960   3.713   2.532
   15Li+     Li   15   2.195   1.326   2.290
   16Li+     Li   16   1.412   2.314   1.598
   17Li+     Li   17   4.746   0.992   1.550
   18Li+     Li   18   4.560   4.600   2.792
   19Li+     Li   19   0.785   4.027   4.942
   20Li+     Li   20   2.582   1.128   5.487
   21Li+     Li   21   4.066   5.098   2.673
   22Li+     Li   22   1.123   4.760   4.564
   23Li+     Li   23   4.837   5.008   4.247
   24Li+     Li   24   1.477   2.471   1.106
   25Li+     Li   25   1.575   5.239   4.193
   26Li+     Li   26   2.597   2.666   4.338
   27Li+     Li   27   2.996   1.558   1.716
   28Li+     Li   28   0.424   1.735   2.345
   29Li+     Li   29   4.331   3.301   5.128
   30Li+     Li   30   3.620   0.874   5.215
   31Li+     Li   31   4.726   4.931   0.488
   32Li+     Li   32   0.879   1.038   2.748
   33Li+     Li   33   5.210   3.365   4.140
   34Li+     Li   34   1.353   2.109   0.469
   35Li+     Li   35   2.903   1.813   4.729
   36Li+     Li   36   2.852   4.217   4.274
   37Li+     Li   37   1.840   1.087   1.161
   38Li+     Li   38   2.079   3.714   4.878
   39Li+     Li   39   5.498   3.578   0.288
   40Li+     Li   40   3.212   5.341   0.070
   41Li+     Li   41   2.199   0.891   0.463
   42Li+     Li   42   4.349   5.010   3.600
   43Li+     Li   43   0.473   0.359   0.207
   44Li+     Li   44   1.808   2.112   2.680
   45Li+     Li   45   2.583   2.469   2.313
   46Li+     Li   46   1.970   4.456   3.229
   47Li+     Li   47   4.931   2.676   2.680
   48Li+     Li   48   2.802   1.001   2.992
   49Li+     Li   49   2.882   1.595   2.738
   50Li+     Li   50   1.264   1.831   2.121
   51c3c     N4   51   1.892   3.104   1.296
   51c3c     C1   52   1.855   3.243   1.329
   51c3c     C1   53   1.766   3.029   1.292
   51c3c     C2   54   1.726   3.238   1.411
   51c3c     C2   55   1.667   3.099   1.387
   51c3c     C1   56   1.954   3.101   1.163
   51c3c     C1   57   1.991   3.046   1.390
   51c3c     H1   58   1.833   3.300   1.239
   51c3c     H1   59   1.934   3.297   1.381
   51c3c     H1   60   1.721   3.031   1.193
   51c3c     H1   61   1.778   2.923   1.317
   51c3c     HC   62   1.656   3.315   1.380
   51c3c     HC   63   1.744   3.252   1.518
   51c3c     HC   64   1.568   3.106   1.341
   51c3c     HC   65   1.656   3.045   1.481
   51c3c     H1   66   2.046   3.159   1.160
   51c3c     H1   67   1.977   2.999   1.132
   51c3c     H1   68   1.888   3.142   1.087
   51c3c     H1   69   2.016   2.945   1.356
   51c3c     H1   70   2.084   3.103   1.383
   51c3c     C2   71   1.954   3.036   1.539
   51c3c     HC   72   1.865   2.974   1.552
   51c3c     HC   73   1.930   3.134   1.580
   51c3c     CT   74   2.068   2.976   1.622
   51c3c     HC   75   2.158   3.037   1.616
   51c3c     HC   76   2.093   2.875   1.587
   51c3c     HC   77   2.040   2.968   1.727
   52c3c     N4   78   3.919   1.777   4.770
   52c3c     C1   79   3.779   1.734   4.789
   52c3c     C1   80   3.999   1.653   4.770
   52c3c     C2   81   3.781   1.603   4.869
   52c3c     C2   82   3.924   1.550   4.856
   52c3c     C1   83   3.932   1.842   4.639
   52c3c     C1   84   3.964   1.876   4.870
   52c3c     H1   85   3.731   1.713   4.694
   52c3c     H1   86   3.718   1.811   4.837
   52c3c     H1   87   4.007   1.611   4.670
   52c3c     H1   88   4.101   1.669   4.805
   52c3c     HC   89   3.709   1.532   4.829
   52c3c     HC   90   3.757   1.619   4.974
   52c3c     HC   91   3.925   1.452   4.809
   52c3c     HC   92   3.969   1.539   4.955
   52c3c     H1   93   3.871   1.933   4.633
   52c3c     H1   94   4.035   1.871   4.619
   52c3c     H1   95   3.901   1.778   4.557
   52c3c     H1   96   4.066   1.906   4.847
   52c3c     H1   97   3.905   1.967   4.860
   52c3c     C2   98   3.962   1.835   5.019
   52c3c     HC   99   4.026   1.748   5.036
   52c3c     HC  100   3.861   1.808   5.050
   52c3c     CT  101   4.011   1.949   5.108
   52c3c     HC  102   3.948   2.038   5.098
   52c3c     HC  103   4.113   1.978   5.083
   52c3c     HC  104   4.010   1.920   5.213
   53c3c     N4  105   3.717   2.196   2.368
   53c3c     C1  106   3.691   2.071   2.440
   53c3c     C1  107   3.587   2.264   2.356
   53c3c     C2  108   3.546   2.030   2.408
   53c3c     C2  109   3.479   2.155   2.353
   53c3c     C1  110   3.808   2.281   2.448
   53c3c     C1  111   3.784   2.176   2.238
   53c3c     H1  112   3.697   2.086   2.548
   53c3c     H1  113   3.762   1.992   2.416
   53c3c     H1  114   3.567   2.327   2.442
   53c3c     H1  115   3.583   2.329   2.269
   53c3c     HC  116   3.495   1.994   2.497
   53c3c     HC  117   3.542   1.950   2.334
   53c3c     HC  118   3.393   2.184   2.414
   53c3c     HC  119   3.442   2.137   2.252
   53c3c     H1  120   3.905   2.233   2.462
   53c3c     H1  121   3.826   2.377   2.399
   53c3c     H1  122   3.768   2.303   2.547
   53c3c     H1  123   3.804   2.273   2.192
   53c3c     H1  124   3.882   2.132   2.254
   53c3c     C2  125   3.712   2.089   2.132
   53c3c     HC  126   3.615   2.132   2.106
   53c3c     HC  127   3.695   1.989   2.170
   53c3c     CT  128   3.795   2.077   2.004
   53c3c     HC  129   3.892   2.031   2.023
   53c3c     HC  130   3.813   2.175   1.959
   53c3c     HC  131   3.743   2.016   1.930
   54c3c     N4  132   2.668   3.206   3.297
   54c3c     C1  133   2.590   3.170   3.177
   54c3c     C1  134   2.727   3.338   3.267
   54c3c     C2  135   2.657   3.236   3.057
   54c3c     C2  136   2.747   3.345   3.115
   54c3c     C1  137   2.578   3.219   3.412
   54c3c     C1  138   2.769   3.104   3.334
   54c3c     H1  139   2.489   3.212   3.183
   54c3c     H1  140   2.577   3.063   3.165
   54c3c     H1  141   2.659   3.418   3.294
   54c3c     H1  142   2.819   3.357   3.322
   54c3c     HC  143   2.583   3.279   2.989
   54c3c     HC  144   2.717   3.166   2.999
   54c3c     HC  145   2.718   3.444   3.077
   54c3c     HC  146   2.851   3.329   3.086
   54c3c     H1  147   2.527   3.125   3.435
   54c3c     H1  148   2.630   3.251   3.502
   54c3c     H1  149   2.499   3.293   3.394
   54c3c     H1  150   2.819   3.136   3.426
   54c3c     H1  151   2.717   3.012   3.361
   54c3c     C2  152   2.879   3.069   3.232
   54c3c     HC  153   2.938   3.157   3.208
   54c3c     HC  154   2.836   3.032   3.139
   54c3c     CT  155   2.975   2.961   3.285
   54c3c     HC  156   2.922   2.868   3.308
   54c3c     HC  157   3.025   2.994   3.377
   54c3c     HC  158   3.052   2.937   3.212
   55c3c     N4  159   3.029   4.416   1.070
   55c3c     C1  160   2.930   4.517   1.108
   55c3c     C1  161   3.129   4.416   1.178
   55c3c     C2  162   3.002   4.622   1.193
   55c3c     C2  163   3.132   4.557   1.238
   55c3c     C1  164   2.964   4.284   1.064
   55c3c     C1  165   3.088   4.438   0.936
   55c3c     H1  166   2.852   4.474   1.170
   55c3c     H1  167   2.878   4.561   1.022
   55c3c     H1  168   3.100   4.348   1.258
   55c3c     H1  169   3.228   4.383   1.145
   55c3c     HC  170   2.941   4.651   1.279
   55c3c     HC  171   3.022   4.713   1.136
   55c3c     HC  172   3.138   4.553   1.347
   55c3c     HC  173   3.217   4.615   1.203
   55c3c     H1  174   2.886   4.281   0.988
   55c3c     H1  175   3.035   4.204   1.041
   55c3c     H1  176   2.917   4.257   1.159
   55c3c     H1  177   3.156   4.357   0.912
   55c3c     H1  178   3.009   4.432   0.861
   55c3c     C2  179   3.164   4.571   0.911
   55c3c     HC  180   3.248   4.580   0.979
   55c3c     HC  181   3.099   4.656   0.927
   55c3c     CT  182   3.218   4.578   0.767
   55c3c     HC  183   3.138   4.573   0.694
   55c3c     HC  184   3.288   4.497   0.747
   55c3c     HC  185   3.272   4.672   0.751
   56c3c     N4  186   3.785   2.857   2.847
   56c3c     C1  187   3.895   2.775   2.795
   56c3c     C1  188   3.770   2.818   2.989
   56c3c     C2  189   3.896   2.644   2.874
   56c3c     C2  190   3.815   2.671   3.000
   56c3c     C1  191   3.823   2.999   2.841
   56c3c     C1  192   3.659   2.844   2.770
   56c3c     H1  193   3.991   2.824   2.812
   56c3c     H1  194   3.889   2.760   2.687
   56c3c     H1  195   3.837   2.876   3.052
   56c3c     H1  196   3.670   2.835   3.028
   56c3c     HC  197   3.998   2.614   2.899
   56c3c     HC  198   3.852   2.562   2.817
   56c3c     HC  199   3.875   2.656   3.089
   56c3c     HC  200   3.730   2.603   3.006
   56c3c     H1  201   3.839   3.032   2.738
   56c3c     H1  202   3.746   3.064   2.884
   56c3c     H1  203   3.914   3.020   2.895
   56c3c     H1  204   3.585   2.912   2.811
   56c3c     H1  205   3.677   2.880   2.668
   56c3c     C2  206   3.594   2.704   2.759
   56c3c     HC  207   3.570   2.665   2.857
   56c3c     HC  208   3.663   2.634   2.712
   56c3c     CT  209   3.466   2.708   2.675
   56c3c     HC  210   3.485   2.743   2.574
   56c3c     HC  211   3.391   2.775   2.719
   56c3c     HC  212   3.421   2.609   2.668
   57c3c     N4  213   3.986   0.629   3.022
   57c3c     C1  214   3.841   0.653   3.007
   57c3c     C1  215   3.996   0.512   3.110
   57c3c     C2  216   3.773   0.605   3.135
   57c3c     C2  217   3.873   0.512   3.203
   57c3c     C1  218   4.043   0.596   2.891
   57c3c     C1  219   4.061   0.747   3.071
   57c3c     H1  220   3.801   0.594   2.925
   57c3c     H1  221   3.818   0.757   2.982
   57c3c     H1  222   3.991   0.419   3.053
   57c3c     H1  223   4.090   0.507   3.166
   57c3c     HC  224   3.680   0.551   3.112
   57c3c     HC  225   3.747   0.687   3.202
   57c3c     HC  226   3.833   0.412   3.213
   57c3c     HC  227   3.897   0.548   3.303
   57c3c     H1  228   4.033   0.678   2.820
   57c3c     H1  229   4.149   0.571   2.897
   57c3c     H1  230   3.995   0.510   2.844
   57c3c     H1  231   4.167   0.721   3.074
   57c3c     H1  232   4.053   0.827   2.998
   57c3c     C2  233   4.023   0.805   3.209
   57c3c     HC  234   4.036   0.730   3.287
   57c3c     HC  235   3.919   0.836   3.210
   57c3c     CT  236   4.109   0.927   3.245
   57c3c     HC  237   4.098   1.008   3.172
   57c3c     HC  238   4.215   0.901   3.248
   57c3c     HC  239   4.083   0.967   3.343
   58c3c     N4  240   3.145   2.181   3.324
   58c3c     C1  241   3.141   2.324   3.292
   58c3c     C1  242   3.284   2.139   3.302
   58c3c     C2  243   3.249   2.351   3.187
   58c3c     C2  244   3.342   2.230   3.192
   58c3c     C1  245   3.111   2.162   3.466
   58c3c     C1  246   3.047   2.101   3.247
   58c3c     H1  247   3.166   2.384   3.379
   58c3c     H1  248   3.042   2.358   3.260
   58c3c     H1  249   3.345   2.155   3.391
   58c3c     H1  250   3.294   2.034   3.277
   58c3c     HC  251   3.303   2.443   3.209
   58c3c     HC  252   3.206   2.361   3.087
   58c3c     HC  253   3.444   2.261   3.217
   58c3c     HC  254   3.345   2.181   3.095
   58c3c     H1  255   3.010   2.196   3.489
   58c3c     H1  256   3.118   2.057   3.496
   58c3c     H1  257   3.178   2.217   3.532
   58c3c     H1  258   3.051   1.997   3.281
   58c3c     H1  259   2.946   2.134   3.273
   58c3c     C2  260   3.057   2.100   3.093
   58c3c     HC  261   3.154   2.063   3.061
   58c3c     HC  262   3.046   2.201   3.054
   58c3c     CT  263   2.949   2.012   3.030
   58c3c     HC  264   2.849   2.047   3.055
   58c3c     HC  265   2.957   1.909   3.063
   58c3c     HC  266   2.957   2.013   2.921
   59c3c     N4  267   0.717   1.120   4.793
   59c3c     C1  268   0.710   1.191   4.664
   59c3c     C1  269   0.790   0.996   4.765
   59c3c     C2  270   0.711   1.085   4.553
   59c3c     C2  271   0.763   0.958   4.619
   59c3c     C1  272   0.794   1.202   4.888
   59c3c     C1  273   0.585   1.098   4.855
   59c3c     H1  274   0.798   1.254   4.648
   59c3c     H1  275   0.624   1.258   4.657
   59c3c     H1  276   0.898   1.010   4.775
   59c3c     H1  277   0.765   0.915   4.834
   59c3c     HC  278   0.776   1.116   4.471
   59c3c     HC  279   0.612   1.069   4.511
   59c3c     HC  280   0.854   0.923   4.570
   59c3c     HC  281   0.689   0.878   4.610
   59c3c     H1  282   0.746   1.298   4.907
   59c3c     H1  283   0.807   1.151   4.984
   59c3c     H1  284   0.895   1.224   4.852
   59c3c     H1  285   0.599   1.051   4.952
   59c3c     H1  286   0.539   1.195   4.877
   59c3c     C2  287   0.481   1.015   4.777
   59c3c     HC  288   0.519   0.915   4.757
   59c3c     HC  289   0.458   1.061   4.681
   59c3c     CT  290   0.350   1.001   4.856
   59c3c     HC  291   0.305   1.098   4.876
   59c3c     HC  292   0.366   0.951   4.952
   59c3c     HC  293   0.277   0.942   4.800
   60c3c     N4  294   3.909   4.241   5.254
   60c3c     C1  295   4.003   4.252   5.367
   60c3c     C1  296   3.927   4.364   5.175
   60c3c     C2  297   4.022   4.402   5.396
   60c3c     C2  298   3.973   4.474   5.272
   60c3c     C1  299   3.945   4.125   5.172
   60c3c     C1  300   3.769   4.220   5.298
   60c3c     H1  301   4.101   4.213   5.339
   60c3c     H1  302   3.971   4.196   5.454
   60c3c     H1  303   4.006   4.351   5.102
   60c3c     H1  304   3.839   4.392   5.119
   60c3c     HC  305   4.126   4.425   5.416
   60c3c     HC  306   3.964   4.434   5.483
   60c3c     HC  307   4.053   4.534   5.227
   60c3c     HC  308   3.892   4.543   5.296
   60c3c     H1  309   3.934   4.030   5.225
   60c3c     H1  310   3.883   4.118   5.082
   60c3c     H1  311   4.048   4.129   5.136
   60c3c     H1  312   3.706   4.208   5.209
   60c3c     H1  313   3.762   4.124   5.350
   60c3c     C2  314   3.703   4.327   5.387
   60c3c     HC  315   3.701   4.424   5.336
   60c3c     HC  316   3.760   4.341   5.479
   60c3c     CT  317   3.559   4.290   5.426
   60c3c     HC  318   3.556   4.197   5.482
   60c3c     HC  319   3.497   4.278   5.338
   60c3c     HC  320   3.514   4.368   5.488
   61c3c     N4  321   2.406   0.879   3.671
   61c3c     C1  322   2.296   0.879   3.574
   61c3c     C1  323   2.475   0.750   3.655
   61c3c     C2  324   2.256   0.733   3.549
   61c3c     C2  325   2.372   0.649   3.601
   61c3c     C1  326   2.500   0.988   3.639
   61c3c     C1  327   2.362   0.904   3.810
   61c3c     H1  328   2.327   0.920   3.478
   61c3c     H1  329   2.211   0.940   3.606
   61c3c     H1  330   2.554   0.756   3.580
   61c3c     H1  331   2.522   0.714   3.746
   61c3c     HC  332   2.239   0.715   3.443
   61c3c     HC  333   2.164   0.707   3.602
   61c3c     HC  334   2.414   0.588   3.522
   61c3c     HC  335   2.337   0.581   3.679
   61c3c     H1  336   2.451   1.085   3.646
   61c3c     H1  337   2.585   0.988   3.706
   61c3c     H1  338   2.539   0.979   3.538
   61c3c     H1  339   2.449   0.908   3.876
   61c3c     H1  340   2.316   1.002   3.816
   61c3c     C2  341   2.262   0.804   3.873
   61c3c     HC  342   2.303   0.703   3.874
   61c3c     HC  343   2.169   0.800   3.815
   61c3c     CT  344   2.227   0.844   4.017
   61c3c     HC  345   2.181   0.943   4.020
   61c3c     HC  346   2.315   0.846   4.080
   61c3c     HC  347   2.156   0.774   4.061
   62c3c     N4  348   0.883   1.589   1.387
   62c3c     C1  349   0.767   1.647   1.318
   62c3c     C1  350   0.864   1.443   1.380
   62c3c     C2  351   0.650   1.549   1.335
   62c3c     C2  352   0.713   1.417   1.376
   62c3c     C1  353   1.005   1.626   1.315
   62c3c     C1  354   0.899   1.640   1.526
   62c3c     H1  355   0.786   1.656   1.211
   62c3c     H1  356   0.742   1.748   1.352
   62c3c     H1  357   0.905   1.404   1.287
   62c3c     H1  358   0.914   1.390   1.460
   62c3c     HC  359   0.595   1.538   1.241
   62c3c     HC  360   0.579   1.583   1.410
   62c3c     HC  361   0.689   1.338   1.305
   62c3c     HC  362   0.675   1.386   1.474
   62c3c     H1  363   1.021   1.734   1.313
   62c3c     H1  364   1.094   1.580   1.359
   62c3c     H1  365   1.003   1.594   1.211
   62c3c     H1  366   0.991   1.597   1.568
   62c3c     H1  367   0.917   1.747   1.522
   62c3c     C2  368   0.785   1.615   1.627
   62c3c     HC  369   0.767   1.508   1.639
   62c3c     HC  370   0.693   1.660   1.593
   62c3c     CT  371   0.819   1.673   1.765
   62c3c     HC  372   0.834   1.781   1.761
   62c3c     HC  373   0.909   1.628   1.807
   62c3c     HC  374   0.737   1.655   1.836
   63c3c     N4  375   2.416   0.332   2.121
   63c3c     C1  376   2.322   0.227   2.078
   63c3c     C1  377   2.367   0.377   2.253
   63c3c     C2  378   2.185   0.259   2.142
   63c3c     C2  379   2.215   0.357   2.255
   63c3c     C1  380   2.549   0.272   2.137
   63c3c     C1  381   2.431   0.441   2.023
   63c3c     H1  382   2.352   0.129   2.115
   63c3c     H1  383   2.316   0.218   1.970
   63c3c     H1  384   2.408   0.315   2.332
   63c3c     H1  385   2.396   0.480   2.275
   63c3c     HC  386   2.138   0.169   2.180
   63c3c     HC  387   2.117   0.304   2.070
   63c3c     HC  388   2.182   0.317   2.350
   63c3c     HC  389   2.161   0.451   2.238
   63c3c     H1  390   2.587   0.233   2.042
   63c3c     H1  391   2.623   0.345   2.172
   63c3c     H1  392   2.550   0.189   2.207
   63c3c     H1  393   2.507   0.511   2.058
   63c3c     H1  394   2.471   0.400   1.930
   63c3c     C2  395   2.306   0.524   1.986
   63c3c     HC  396   2.262   0.570   2.074
   63c3c     HC  397   2.230   0.460   1.941
   63c3c     CT  398   2.340   0.635   1.886
   63c3c     HC  399   2.383   0.595   1.794
   63c3c     HC  400   2.412   0.705   1.928
   63c3c     HC  401   2.251   0.692   1.858
   64c3c     N4  402   2.354   0.590   2.700
   64c3c     C1  403   2.207   0.587   2.689
   64c3c     C1  404   2.399   0.450   2.690
   64c3c     C2  405   2.160   0.450   2.740
   64c3c     C2  406   2.284   0.362   2.741
   64c3c     C1  407   2.410   0.666   2.588
   64c3c     C1  408   2.401   0.658   2.823
   64c3c     H1  409   2.175   0.594   2.585
   64c3c     H1  410   2.157   0.669   2.741
   64c3c     H1  411   2.416   0.422   2.587
   64c3c     H1  412   2.492   0.431   2.743
   64c3c     HC  413   2.083   0.409   2.674
   64c3c     HC  414   2.116   0.457   2.839
   64c3c     HC  415   2.270   0.275   2.677
   64c3c     HC  416   2.303   0.326   2.842
   64c3c     H1  417   2.376   0.770   2.588
   64c3c     H1  418   2.519   0.667   2.589
   64c3c     H1  419   2.380   0.625   2.491
   64c3c     H1  420   2.510   0.661   2.822
   64c3c     H1  421   2.368   0.761   2.821
   64c3c     C2  422   2.358   0.599   2.959
   64c3c     HC  423   2.392   0.496   2.969
   64c3c     HC  424   2.250   0.598   2.968
   64c3c     CT  425   2.416   0.680   3.077
   64c3c     HC  426   2.382   0.783   3.074
   64c3c     HC  427   2.525   0.680   3.075
   64c3c     HC  428   2.385   0.637   3.172
   65c3c     N4  429   4.679   1.138   3.274
   65c3c     C1  430   4.654   1.230   3.386
   65c3c     C1  431   4.549   1.074   3.247
   65c3c     C2  432   4.541   1.170   3.470
   65c3c     C2  433   4.473   1.067   3.380
   65c3c     C1  434   4.719   1.216   3.156
   65c3c     C1  435   4.788   1.042   3.299
   65c3c     H1  436   4.620   1.327   3.351
   65c3c     H1  437   4.744   1.249   3.445
   65c3c     H1  438   4.489   1.134   3.179
   65c3c     H1  439   4.559   0.976   3.199
   65c3c     HC  440   4.470   1.247   3.500
   65c3c     HC  441   4.578   1.122   3.561
   65c3c     HC  442   4.368   1.090   3.366
   65c3c     HC  443   4.479   0.968   3.425
   65c3c     H1  444   4.812   1.270   3.172
   65c3c     H1  445   4.733   1.153   3.068
   65c3c     H1  446   4.644   1.291   3.128
   65c3c     H1  447   4.804   0.981   3.209
   65c3c     H1  448   4.881   1.097   3.312
   65c3c     C2  449   4.775   0.945   3.418
   65c3c     HC  450   4.687   0.882   3.407
   65c3c     HC  451   4.765   1.000   3.512
   65c3c     CT  452   4.897   0.853   3.431
   65c3c     HC  453   4.989   0.911   3.446
   65c3c     HC  454   4.911   0.793   3.341
   65c3c     HC  455   4.887   0.785   3.515
   66c3c     N4  456   5.288   3.892   3.525
   66c3c     C1  457   5.407   3.875   3.440
   66c3c     C1  458   5.222   3.761   3.527
   66c3c     C2  459   5.375   3.764   3.338
   66c3c     C2  460   5.254   3.691   3.394
   66c3c     C1  461   5.331   3.928   3.661
   66c3c     C1  462   5.199   4.002   3.480
   66c3c     H1  463   5.492   3.840   3.498
   66c3c     H1  464   5.440   3.967   3.392
   66c3c     H1  465   5.264   3.698   3.606
   66c3c     H1  466   5.115   3.768   3.547
   66c3c     HC  467   5.460   3.696   3.327
   66c3c     HC  468   5.354   3.805   3.239
   66c3c     HC  469   5.275   3.586   3.409
   66c3c     HC  470   5.170   3.698   3.324
   66c3c     H1  471   5.385   4.022   3.663
   66c3c     H1  472   5.247   3.938   3.729
   66c3c     H1  473   5.398   3.853   3.704
   66c3c     H1  474   5.117   4.013   3.551
   66c3c     H1  475   5.254   4.096   3.485
   66c3c     C2  476   5.137   3.992   3.338
   66c3c     HC  477   5.077   3.902   3.329
   66c3c     HC  478   5.216   3.988   3.263
   66c3c     CT  479   5.048   4.113   3.308
   66c3c     HC  480   5.104   4.206   3.313
   66c3c     HC  481   4.965   4.120   3.379
   66c3c     HC  482   5.005   4.106   3.208
   67c3c     N4  483   2.700   2.845   2.678
   67c3c     C1  484   2.798   2.826   2.786
   67c3c     C1  485   2.757   2.777   2.561
   67c3c     C2  486   2.937   2.813   2.722
   67c3c     C2  487   2.910   2.779   2.575
   67c3c     C1  488   2.573   2.782   2.714
   67c3c     C1  489   2.669   2.988   2.652
   67c3c     H1  490   2.778   2.733   2.840
   67c3c     H1  491   2.794   2.905   2.861
   67c3c     H1  492   2.726   2.672   2.557
   67c3c     H1  493   2.725   2.821   2.466
   67c3c     HC  494   2.995   2.735   2.770
   67c3c     HC  495   2.994   2.905   2.729
   67c3c     HC  496   2.953   2.682   2.550
   67c3c     HC  497   2.956   2.853   2.510
   67c3c     H1  498   2.528   2.828   2.803
   67c3c     H1  499   2.499   2.790   2.634
   67c3c     H1  500   2.584   2.676   2.736
   67c3c     H1  501   2.594   2.994   2.573
   67c3c     H1  502   2.621   3.031   2.740
   67c3c     C2  503   2.785   3.081   2.611
   67c3c     HC  504   2.831   3.047   2.519
   67c3c     HC  505   2.862   3.083   2.688
   67c3c     CT  506   2.736   3.225   2.590
   67c3c     HC  507   2.692   3.266   2.681
   67c3c     HC  508   2.660   3.229   2.512
   67c3c     HC  509   2.817   3.290   2.560
   68c3c     N4  510   3.411   1.574   3.606
   68c3c     C1  511   3.547   1.560   3.554
   68c3c     C1  512   3.322   1.557   3.490
   68c3c     C2  513   3.545   1.606   3.407
   68c3c     C2  514   3.399   1.604   3.366
   68c3c     C1  515   3.385   1.466   3.703
   68c3c     C1  516   3.388   1.701   3.679
   68c3c     H1  517   3.579   1.456   3.554
   68c3c     H1  518   3.621   1.614   3.613
   68c3c     H1  519   3.297   1.452   3.475
   68c3c     H1  520   3.226   1.608   3.502
   68c3c     HC  521   3.604   1.539   3.345
   68c3c     HC  522   3.587   1.706   3.395
   68c3c     HC  523   3.383   1.535   3.283
   68c3c     HC  524   3.367   1.703   3.333
   68c3c     H1  525   3.452   1.472   3.789
   68c3c     H1  526   3.283   1.470   3.742
   68c3c     H1  527   3.398   1.367   3.660
   68c3c     H1  528   3.287   1.701   3.720
   68c3c     H1  529   3.454   1.704   3.767
   68c3c     C2  530   3.408   1.833   3.603
   68c3c     HC  531   3.341   1.839   3.517
   68c3c     HC  532   3.510   1.841   3.565
   68c3c     CT  533   3.381   1.955   3.693
   68c3c     HC  534   3.448   1.956   3.779
   68c3c     HC  535   3.279   1.954   3.731
   68c3c     HC  536   3.396   2.048   3.639
   69c3c     N4  537   1.598   1.018   4.447
   69c3c     C1  538   1.555   0.879   4.465
   69c3c     C1  539   1.514   1.074   4.340
   69c3c     C2  540   1.501   0.831   4.329
   69c3c     C2  541   1.475   0.957   4.248
   69c3c     C1  542   1.573   1.092   4.572
   69c3c     C1  543   1.743   1.032   4.421
   69c3c     H1  544   1.473   0.871   4.536
   69c3c     H1  545   1.634   0.814   4.503
   69c3c     H1  546   1.422   1.115   4.380
   69c3c     H1  547   1.563   1.154   4.285
   69c3c     HC  548   1.409   0.773   4.342
   69c3c     HC  549   1.572   0.766   4.277
   69c3c     HC  550   1.370   0.964   4.219
   69c3c     HC  551   1.534   0.956   4.157
   69c3c     H1  552   1.629   1.052   4.656
   69c3c     H1  553   1.599   1.198   4.562
   69c3c     H1  554   1.468   1.089   4.601
   69c3c     H1  555   1.769   1.138   4.414
   69c3c     H1  556   1.799   0.994   4.506
   69c3c     C2  557   1.800   0.964   4.294
   69c3c     HC  558   1.753   1.004   4.205
   69c3c     HC  559   1.781   0.856   4.296
   69c3c     CT  560   1.952   0.985   4.283
   69c3c     HC  561   2.005   0.943   4.369
   69c3c     HC  562   1.977   1.091   4.276
   69c3c     HC  563   1.991   0.937   4.193
   70c3c     N4  564   4.334   0.533   1.763
   70c3c     C1  565   4.190   0.553   1.786
   70c3c     C1  566   4.399   0.654   1.815
   70c3c     C2  567   4.163   0.703   1.781
   70c3c     C2  568   4.298   0.769   1.806
   70c3c     C1  569   4.379   0.416   1.840
   70c3c     C1  570   4.366   0.504   1.622
   70c3c     H1  571   4.161   0.519   1.886
   70c3c     H1  572   4.127   0.497   1.716
   70c3c     H1  573   4.424   0.643   1.921
   70c3c     H1  574   4.493   0.677   1.765
   70c3c     HC  575   4.090   0.732   1.857
   70c3c     HC  576   4.122   0.734   1.685
   70c3c     HC  577   4.296   0.826   1.899
   70c3c     HC  578   4.322   0.838   1.726
   70c3c     H1  579   4.328   0.325   1.809
   70c3c     H1  580   4.486   0.400   1.830
   70c3c     H1  581   4.359   0.427   1.947
   70c3c     H1  582   4.473   0.485   1.613
   70c3c     H1  583   4.318   0.411   1.592
   70c3c     C2  584   4.329   0.610   1.516
   70c3c     HC  585   4.378   0.706   1.538
   70c3c     HC  586   4.222   0.628   1.515
   70c3c     CT  587   4.371   0.566   1.375
   70c3c     HC  588   4.321   0.474   1.346
   70c3c     HC  589   4.478   0.549   1.368
   70c3c     HC  590   4.345   0.642   1.301
   71c3c     N4  591   4.691   4.054   0.871
   71c3c     C1  592   4.680   4.064   1.017
   71c3c     C1  593   4.829   4.010   0.845
   71c3c     C2  594   4.819   4.102   1.071
   71c3c     C2  595   4.916   4.064   0.960
   71c3c     C1  596   4.598   3.950   0.823
   71c3c     C1  597   4.655   4.179   0.799
   71c3c     H1  598   4.655   3.968   1.061
   71c3c     H1  599   4.602   4.134   1.049
   71c3c     H1  600   4.837   3.902   0.849
   71c3c     H1  601   4.867   4.040   0.747
   71c3c     HC  602   4.841   4.048   1.162
   71c3c     HC  603   4.827   4.208   1.093
   71c3c     HC  604   4.986   3.988   0.994
   71c3c     HC  605   4.975   4.151   0.930
   71c3c     H1  606   4.494   3.976   0.844
   71c3c     H1  607   4.607   3.935   0.715
   71c3c     H1  608   4.617   3.854   0.869
   71c3c     H1  609   4.661   4.161   0.692
   71c3c     H1  610   4.550   4.201   0.819
   71c3c     C2  611   4.735   4.307   0.830
   71c3c     HC  612   4.841   4.292   0.807
   71c3c     HC  613   4.728   4.333   0.935
   71c3c     CT  614   4.685   4.426   0.748
   71c3c     HC  615   4.581   4.449   0.770
   71c3c     HC  616   4.693   4.407   0.641
   71c3c     HC  617   4.743   4.516   0.770
   72c3c     N4  618   2.277   4.725   2.345
   72c3c     C1  619   2.165   4.663   2.417
   72c3c     C1  620   2.399   4.673   2.409
   72c3c     C2  621   2.212   4.635   2.561
   72c3c     C2  622   2.364   4.641   2.555
   72c3c     C1  623   2.274   4.682   2.205
   72c3c     C1  624   2.271   4.873   2.344
   72c3c     H1  625   2.138   4.567   2.373
   72c3c     H1  626   2.074   4.723   2.414
   72c3c     H1  627   2.431   4.580   2.363
   72c3c     H1  628   2.484   4.740   2.400
   72c3c     HC  629   2.178   4.538   2.594
   72c3c     HC  630   2.174   4.709   2.631
   72c3c     HC  631   2.408   4.546   2.585
   72c3c     HC  632   2.402   4.717   2.623
   72c3c     H1  633   2.183   4.715   2.154
   72c3c     H1  634   2.359   4.721   2.149
   72c3c     H1  635   2.278   4.574   2.195
   72c3c     H1  636   2.355   4.911   2.285
   72c3c     H1  637   2.182   4.904   2.290
   72c3c     C2  638   2.272   4.947   2.479
   72c3c     HC  639   2.362   4.925   2.535
   72c3c     HC  640   2.187   4.917   2.540
   72c3c     CT  641   2.264   5.100   2.460
   72c3c     HC  642   2.173   5.129   2.408
   72c3c     HC  643   2.349   5.137   2.402
   72c3c     HC  644   2.265   5.151   2.556
   73c3c     N4  645   4.817   3.392   3.306
   73c3c     C1  646   4.675   3.415   3.277
   73c3c     C1  647   4.880   3.525   3.301
   73c3c     C2  648   4.665   3.539   3.188
   73c3c     C2  649   4.798   3.611   3.204
   73c3c     C1  650   4.830   3.337   3.442
   73c3c     C1  651   4.881   3.294   3.216
   73c3c     H1  652   4.619   3.437   3.368
   73c3c     H1  653   4.626   3.328   3.232
   73c3c     H1  654   4.876   3.574   3.398
   73c3c     H1  655   4.986   3.521   3.274
   73c3c     HC  656   4.582   3.603   3.219
   73c3c     HC  657   4.649   3.513   3.083
   73c3c     HC  658   4.784   3.711   3.244
   73c3c     HC  659   4.848   3.622   3.107
   73c3c     H1  660   4.781   3.241   3.452
   73c3c     H1  661   4.935   3.323   3.470
   73c3c     H1  662   4.786   3.403   3.517
   73c3c     H1  663   4.984   3.278   3.247
   73c3c     H1  664   4.833   3.197   3.229
   73c3c     C2  665   4.883   3.324   3.064
   73c3c     HC  666   4.935   3.418   3.044
   73c3c     HC  667   4.781   3.335   3.026
   73c3c     CT  668   4.952   3.212   2.986
   73c3c     HC  669   4.902   3.117   2.999
   73c3c     HC  670   5.056   3.200   3.017
   73c3c     HC  671   4.953   3.234   2.879
   74c3c     N4  672   4.849   2.789   4.094
   74c3c     C1  673   4.962   2.825   4.007
   74c3c     C1  674   4.907   2.758   4.226
   74c3c     C2  675   5.086   2.751   4.060
   74c3c     C2  676   5.051   2.710   4.203
   74c3c     C1  677   4.759   2.904   4.107
   74c3c     C1  678   4.767   2.678   4.039
   74c3c     H1  679   4.984   2.931   4.013
   74c3c     H1  680   4.944   2.803   3.902
   74c3c     H1  681   4.913   2.846   4.289
   74c3c     H1  682   4.849   2.685   4.282
   74c3c     HC  683   5.174   2.814   4.057
   74c3c     HC  684   5.108   2.662   4.000
   74c3c     HC  685   5.119   2.758   4.274
   74c3c     HC  686   5.061   2.603   4.215
   74c3c     H1  687   4.717   2.934   4.011
   74c3c     H1  688   4.676   2.883   4.175
   74c3c     H1  689   4.810   2.992   4.147
   74c3c     H1  690   4.683   2.660   4.107
   74c3c     H1  691   4.722   2.711   3.945
   74c3c     C2  692   4.836   2.543   4.014
   74c3c     HC  693   4.878   2.503   4.106
   74c3c     HC  694   4.918   2.554   3.943
   74c3c     CT  695   4.737   2.440   3.957
   74c3c     HC  696   4.696   2.473   3.862
   74c3c     HC  697   4.654   2.423   4.025
   74c3c     HC  698   4.786   2.344   3.940
   75c3c     N4  699   4.074   1.413   0.823
   75c3c     C1  700   4.093   1.508   0.711
   75c3c     C1  701   3.930   1.415   0.852
   75c3c     C2  702   3.983   1.614   0.722
   75c3c     C2  703   3.877   1.553   0.813
   75c3c     C1  704   4.113   1.278   0.779
   75c3c     C1  705   4.158   1.444   0.941
   75c3c     H1  706   4.079   1.458   0.615
   75c3c     H1  707   4.193   1.552   0.709
   75c3c     H1  708   3.877   1.342   0.790
   75c3c     H1  709   3.907   1.388   0.955
   75c3c     HC  710   3.942   1.638   0.624
   75c3c     HC  711   4.020   1.707   0.765
   75c3c     HC  712   3.781   1.544   0.761
   75c3c     HC  713   3.860   1.616   0.900
   75c3c     H1  714   4.219   1.273   0.753
   75c3c     H1  715   4.096   1.204   0.857
   75c3c     H1  716   4.058   1.245   0.691
   75c3c     H1  717   4.143   1.367   1.016
   75c3c     H1  718   4.263   1.435   0.913
   75c3c     C2  719   4.140   1.581   1.009
   75c3c     HC  720   4.038   1.593   1.045
   75c3c     HC  721   4.160   1.662   0.939
   75c3c     CT  722   4.235   1.598   1.128
   75c3c     HC  723   4.339   1.592   1.097
   75c3c     HC  724   4.218   1.520   1.203
   75c3c     HC  725   4.221   1.694   1.176
   76fsi    FSI  726   2.826   1.223   1.615
   76fsi    SBT  727   2.673   1.192   1.634
   76fsi    NBT  728   2.645   1.088   1.519
   76fsi    OBT  729   2.663   1.140   1.768
   76fsi    OBT  730   2.612   1.319   1.609
   76fsi    SBT  731   2.679   0.934   1.515
   76fsi    OBT  732   2.775   0.891   1.613
   76fsi    OBT  733   2.696   0.886   1.380
   76fsi    FSI  734   2.544   0.867   1.561
   77fsi    FSI  735   1.647   2.592   2.002
   77fsi    SBT  736   1.523   2.656   1.929
   77fsi    NBT  737   1.477   2.767   2.030
   77fsi    OBT  738   1.577   2.704   1.805
   77fsi    OBT  739   1.430   2.546   1.920
   77fsi    SBT  740   1.531   2.914   2.049
   77fsi    OBT  741   1.658   2.940   1.987
   77fsi    OBT  742   1.512   2.963   2.183
   77fsi    FSI  743   1.429   2.999   1.964
   78fsi    FSI  744   4.522   1.145   1.861
   78fsi    SBT  745   4.624   1.027   1.877
   78fsi    NBT  746   4.737   1.089   1.967
   78fsi    OBT  747   4.549   0.921   1.938
   78fsi    OBT  748   4.670   1.004   1.742
   78fsi    SBT  749   4.737   1.108   2.123
   78fsi    OBT  750   4.606   1.121   2.182
   78fsi    OBT  751   4.838   1.202   2.166
   78fsi    FSI  752   4.791   0.970   2.176
   79fsi    FSI  753   2.600   3.036   2.115
   79fsi    SBT  754   2.513   2.918   2.058
   79fsi    NBT  755   2.621   2.808   2.027
   79fsi    OBT  756   2.426   2.885   2.168
   79fsi    OBT  757   2.454   2.973   1.940
   79fsi    SBT  758   2.654   2.673   2.102
   79fsi    OBT  759   2.632   2.670   2.245
   79fsi    OBT  760   2.776   2.613   2.057
   79fsi    FSI  761   2.544   2.575   2.047
   80fsi    FSI  762   2.889   1.577   0.487
   80fsi    SBT  763   2.778   1.664   0.556
   80fsi    NBT  764   2.647   1.607   0.489
   80fsi    OBT  765   2.793   1.631   0.695
   80fsi    OBT  766   2.809   1.797   0.514
   80fsi    SBT  767   2.542   1.504   0.545
   80fsi    OBT  768   2.588   1.429   0.659
   80fsi    OBT  769   2.477   1.430   0.440
   80fsi    FSI  770   2.428   1.596   0.601
   81fsi    FSI  771   0.897   0.442   2.540
   81fsi    SBT  772   0.852   0.535   2.658
   81fsi    NBT  773   0.944   0.662   2.640
   81fsi    OBT  774   0.713   0.559   2.634
   81fsi    OBT  775   0.887   0.459   2.775
   81fsi    SBT  776   0.916   0.789   2.553
   81fsi    OBT  777   0.854   0.764   2.425
   81fsi    OBT  778   1.023   0.884   2.558
   81fsi    FSI  779   0.804   0.863   2.635
   82fsi    FSI  780   3.816   1.291   3.013
   82fsi    SBT  781   3.810   1.356   3.156
   82fsi    NBT  782   3.946   1.313   3.222
   82fsi    OBT  783   3.792   1.496   3.135
   82fsi    OBT  784   3.702   1.285   3.221
   82fsi    SBT  785   4.087   1.379   3.200
   82fsi    OBT  786   4.106   1.441   3.072
   82fsi    OBT  787   4.193   1.295   3.250
   82fsi    FSI  788   4.086   1.500   3.302
   83fsi    FSI  789   3.960   1.145   1.185
   83fsi    SBT  790   4.030   1.004   1.168
   83fsi    NBT  791   4.148   1.037   1.070
   83fsi    OBT  792   4.070   0.968   1.301
   83fsi    OBT  793   3.928   0.924   1.106
   83fsi    SBT  794   4.295   1.080   1.103
   83fsi    OBT  795   4.311   1.152   1.226
   83fsi    OBT  796   4.362   1.132   0.987
   83fsi    FSI  797   4.368   0.943   1.129
   84fsi    FSI  798   1.936   4.610   4.770
   84fsi    SBT  799   1.996   4.493   4.857
   84fsi    NBT  800   2.146   4.535   4.875
   84fsi    OBT  801   1.917   4.495   4.977
   84fsi    OBT  802   1.982   4.378   4.772
   84fsi    SBT  803   2.209   4.632   4.982
   84fsi    OBT  804   2.119   4.729   5.037
   84fsi    OBT  805   2.340   4.678   4.942
   84fsi    FSI  806   2.241   4.535   5.102
   85fsi    FSI  807   4.268   3.572   5.051
   85fsi    SBT  808   4.251   3.728   5.075
   85fsi    NBT  809   4.330   3.791   4.956
   85fsi    OBT  810   4.109   3.748   5.073
   85fsi    OBT  811   4.317   3.746   5.201
   85fsi    SBT  812   4.291   3.796   4.803
   85fsi    OBT  813   4.199   3.693   4.764
   85fsi    OBT  814   4.406   3.816   4.720
   85fsi    FSI  815   4.210   3.930   4.790
   86fsi    FSI  816   1.286   2.658   1.342
   86fsi    SBT  817   1.243   2.556   1.231
   86fsi    NBT  818   1.329   2.428   1.263
   86fsi    OBT  819   1.102   2.539   1.248
   86fsi    OBT  820   1.293   2.613   1.109
   86fsi    SBT  821   1.291   2.308   1.357
   86fsi    OBT  822   1.230   2.345   1.481
   86fsi    OBT  823   1.401   2.215   1.369
   86fsi    FSI  824   1.182   2.228   1.277
   87fsi    FSI  825   1.585   2.697   1.376
   87fsi    SBT  826   1.676   2.569   1.363
   87fsi    NBT  827   1.661   2.530   1.212
   87fsi    OBT  828   1.808   2.616   1.399
   87fsi    OBT  829   1.613   2.473   1.449
   87fsi    SBT  830   1.746   2.577   1.088
   87fsi    OBT  831   1.800   2.710   1.097
   87fsi    OBT  832   1.678   2.540   0.968
   87fsi    FSI  833   1.871   2.482   1.092
   88fsi    FSI  834   3.041   2.026   4.457
   88fsi    SBT  835   3.103   1.899   4.527
   88fsi    NBT  836   2.983   1.798   4.532
   88fsi    OBT  837   3.213   1.860   4.443
   88fsi    OBT  838   3.131   1.944   4.661
   88fsi    SBT  839   2.935   1.697   4.422
   88fsi    OBT  840   2.961   1.736   4.287
   88fsi    OBT  841   2.804   1.647   4.454
   88fsi    FSI  842   3.029   1.572   4.446
   89fsi    FSI  843   4.347   3.278   2.329
   89fsi    SBT  844   4.196   3.318   2.305
   89fsi    NBT  845   4.194   3.472   2.335
   89fsi    OBT  846   4.172   3.283   2.168
   89fsi    OBT  847   4.126   3.243   2.406
   89fsi    SBT  848   4.243   3.590   2.244
   89fsi    OBT  849   4.351   3.558   2.155
   89fsi    OBT  850   4.252   3.713   2.319
   89fsi    FSI  851   4.120   3.615   2.149
   90fsi    FSI  852   3.091   0.873   0.306
   90fsi    SBT  853   3.016   0.771   0.213
   90fsi    NBT  854   3.134   0.694   0.143
   90fsi    OBT  855   2.937   0.692   0.303
   90fsi    OBT  856   2.945   0.855   0.120
   90fsi    SBT  857   3.217   0.571   0.196
   90fsi    OBT  858   3.221   0.557   0.339
   90fsi    OBT  859   3.341   0.556   0.124
   90fsi    FSI  860   3.132   0.448   0.147
   91fsi    FSI  861   0.622   3.568   2.837
   91fsi    SBT  862   0.673   3.690   2.922
   91fsi    NBT  863   0.579   3.687   3.048
   91fsi    OBT  864   0.811   3.660   2.948
   91fsi    OBT  865   0.645   3.803   2.837
   91fsi    SBT  866   0.597   3.606   3.181
   91fsi    OBT  867   0.661   3.478   3.167
   91fsi    OBT  868   0.479   3.611   3.263
   91fsi    FSI  869   0.701   3.692   3.262
   92fsi    FSI  870   1.581   2.673   4.930
   92fsi    SBT  871   1.687   2.681   4.814
   92fsi    NBT  872   1.817   2.730   4.887
   92fsi    OBT  873   1.695   2.548   4.762
   92fsi    OBT  874   1.633   2.782   4.727
   92fsi    SBT  875   1.928   2.645   4.959
   92fsi    OBT  876   1.881   2.525   5.023
   92fsi    OBT  877   2.022   2.726   5.031
   92fsi    FSI  878   2.014   2.592   4.838
   93fsi    FSI  879   2.535   5.047   3.669
   93fsi    SBT  880   2.645   5.132   3.594
   93fsi    NBT  881   2.760   5.144   3.700
   93fsi    OBT  882   2.677   5.054   3.477
   93fsi    OBT  883   2.580   5.258   3.571
   93fsi    SBT  884   2.876   5.042   3.731
   93fsi    OBT  885   2.843   4.904   3.707
   93fsi    OBT  886   2.943   5.073   3.854
   93fsi    FSI  887   2.983   5.077   3.621
   94fsi    FSI  888   4.245   1.109   2.386
   94fsi    SBT  889   4.216   0.954   2.398
   94fsi    NBT  890   4.360   0.891   2.389
   94fsi    OBT  891   4.151   0.941   2.526
   94fsi    OBT  892   4.136   0.926   2.282
   94fsi    SBT  893   4.462   0.858   2.504
   94fsi    OBT  894   4.438   0.926   2.629
   94fsi    OBT  895   4.598   0.852   2.458
   94fsi    FSI  896   4.428   0.708   2.537
   95fsi    FSI  897   1.934   2.404   2.604
   95fsi    SBT  898   2.005   2.544   2.598
   95fsi    NBT  899   1.885   2.644   2.613
   95fsi    OBT  900   2.099   2.540   2.708
   95fsi    OBT  901   2.063   2.545   2.466
   95fsi    SBT  902   1.812   2.695   2.743
   95fsi    OBT  903   1.859   2.635   2.865
   95fsi    OBT  904   1.669   2.704   2.726
   95fsi    FSI  905   1.858   2.845   2.754
   96fsi    FSI  906   1.689   3.524   3.622
   96fsi    SBT  907   1.564   3.541   3.527
   96fsi    NBT  908   1.630   3.542   3.385
   96fsi    OBT  909   1.480   3.429   3.557
   96fsi    OBT  910   1.516   3.672   3.563
   96fsi    SBT  911   1.682   3.419   3.301
   96fsi    OBT  912   1.717   3.304   3.380
   96fsi    OBT  913   1.775   3.459   3.199
   96fsi    FSI  914   1.554   3.374   3.220
   97fsi    FSI  915   3.901   4.176   4.441
   97fsi    SBT  916   4.027   4.122   4.519
   97fsi    NBT  917   4.032   3.970   4.477
   97fsi    OBT  918   4.136   4.202   4.469
   97fsi    OBT  919   3.990   4.140   4.657
   97fsi    SBT  920   4.104   3.904   4.354
   97fsi    OBT  921   4.119   3.988   4.238
   97fsi    OBT  922   4.061   3.769   4.331
   97fsi    FSI  923   4.252   3.885   4.406
   98fsi    FSI  924   0.793   4.640   4.825
   98fsi    SBT  925   0.928   4.715   4.855
   98fsi    NBT  926   0.880   4.854   4.910
   98fsi    OBT  927   0.995   4.630   4.950
   98fsi    OBT  928   0.988   4.726   4.724
   98fsi    SBT  929   0.830   4.890   5.055
   98fsi    OBT  930   0.783   4.778   5.132
   98fsi    OBT  931   0.749   5.009   5.056
   98fsi    FSI  932   0.961   4.935   5.129
   99fsi    FSI  933   3.034   2.289   1.855
   99fsi    SBT  934   3.171   2.245   1.917
   99fsi    NBT  935   3.245   2.382   1.940
   99fsi    OBT  936   3.135   2.175   2.038
   99fsi    OBT  937   3.232   2.166   1.813
   99fsi    SBT  938   3.261   2.468   2.070
   99fsi    OBT  939   3.162   2.446   2.172
   99fsi    OBT  940   3.300   2.603   2.044
   99fsi    FSI  941   3.391   2.407   2.133
  100fsi    FSI  942   3.129   1.428   0.548
  100fsi    SBT  943   3.070   1.294   0.605
  100fsi    NBT  944   3.197   1.202   0.615
  100fsi    OBT  945   3.009   1.333   0.730
  100fsi    OBT  946   2.979   1.252   0.502
  100fsi    SBT  947   3.319   1.207   0.715
  100fsi    OBT  948   3.320   1.321   0.802
  100fsi    OBT  949   3.443   1.170   0.652
  100fsi    FSI  950   3.289   1.086   0.811
  101fsi    FSI  951   4.001   0.735   5.200
  101fsi    SBT  952   3.879   0.676   5.119
  101fsi    NBT  953   3.783   0.799   5.103
  101fsi    OBT  954   3.937   0.629   4.996
  101fsi    OBT  955   3.822   0.579   5.209
  101fsi    SBT  956   3.778   0.906   4.989
  101fsi    OBT  957   3.904   0.950   4.937
  101fsi    OBT  958   3.681   1.006   5.025
  101fsi    FSI  959   3.709   0.830   4.870
  102fsi    FSI  960   1.930   1.663   2.254
  102fsi    SBT  961   2.055   1.620   2.168
  102fsi    NBT  962   2.069   1.466   2.197
  102fsi    OBT  963   2.019   1.652   2.033
  102fsi    OBT  964   2.164   1.691   2.228
  102fsi    SBT  965   1.986   1.347   2.137
  102fsi    OBT  966   1.846   1.372   2.115
  102fsi    OBT  967   2.024   1.227   2.206
  102fsi    FSI  968   2.048   1.327   1.994
  103fsi    FSI  969   2.781   5.194   5.502
  103fsi    SBT  970   2.722   5.063   5.437
  103fsi    NBT  971   2.810   5.048   5.307
  103fsi    OBT  972   2.743   4.962   5.537
  103fsi    OBT  973   2.586   5.101   5.408
  103fsi    SBT  974   2.951   4.981   5.290
  103fsi    OBT  975   3.025   4.966   5.413
  103fsi    OBT  976   3.022   5.033   5.177
  103fsi    FSI  977   2.915   4.833   5.248
  104fsi    FSI  978   1.743   3.821   4.216
  104fsi    SBT  979   1.898   3.850   4.210
  104fsi    NBT  980   1.960   3.706   4.194
  104fsi    OBT  981   1.914   3.935   4.096
  104fsi    OBT  982   1.926   3.906   4.339
  104fsi    SBT  983   1.987   3.624   4.063
  104fsi    OBT  984   1.900   3.656   3.952
  104fsi    OBT  985   2.011   3.485   4.090
  104fsi    FSI  986   2.128   3.677   4.017
  105fsi    FSI  987   5.446   4.165   4.245
  105fsi    SBT  988   5.325   4.082   4.302
  105fsi    NBT  989   5.353   4.081   4.457
  105fsi    OBT  990   5.209   4.156   4.261
  105fsi    OBT  991   5.344   3.952   4.243
  105fsi    SBT  992   5.321   4.193   4.564
  105fsi    OBT  993   5.308   4.326   4.510
  105fsi    OBT  994   5.400   4.177   4.683
  105fsi    FSI  995   5.176   4.156   4.611
  106fsi    FSI  996   5.269   2.585   3.340
  106fsi    SBT  997   5.151   2.688   3.353
  106fsi    NBT  998   5.130   2.702   3.508
  106fsi    OBT  999   5.199   2.808   3.289
  106fsi    OBT 1000   5.040   2.621   3.289
  106fsi    SBT 1001   5.210   2.791   3.610
  106fsi    OBT 1002   5.348   2.811   3.578
  106fsi    OBT 1003   5.177   2.760   3.747
  106fsi    FSI 1004   5.144   2.933   3.591
  107fsi    FSI 1005   4.775   1.790   4.978
  107fsi    SBT 1006   4.742   1.890   5.095
  107fsi    NBT 1007   4.725   2.027   5.018
  107fsi    OBT 1008   4.622   1.836   5.153
  107fsi    OBT 1009   4.861   1.886   5.176
  107fsi    SBT 1010   4.595   2.099   4.965
  107fsi    OBT 1011   4.475   2.019   4.965
  107fsi    OBT 1012   4.620   2.177   4.847
  107fsi    FSI 1013   4.568   2.207   5.076
  108fsi    FSI 1014   1.444   5.285   3.314
  108fsi    SBT 1015   1.581   5.217   3.275
  108fsi    NBT 1016   1.535   5.081   3.210
  108fsi    OBT 1017   1.643   5.310   3.185
  108fsi    OBT 1018   1.646   5.197   3.402
  108fsi    SBT 1019   1.499   5.050   3.060
  108fsi    OBT 1020   1.459   5.164   2.981
  108fsi    OBT 1021   1.421   4.930   3.046
  108fsi    FSI 1022   1.639   5.009   2.999
  109fsi    FSI 1023   3.478   1.432   1.812
  109fsi    SBT 1024   3.568   1.558   1.839
  109fsi    NBT 1025   3.462   1.670   1.868
  109fsi    OBT 1026   3.649   1.521   1.952
  109fsi    OBT 1027   3.636   1.579   1.714
  109fsi    SBT 1028   3.408   1.725   2.005
  109fsi    OBT 1029   3.415   1.633   2.116
  109fsi    OBT 1030   3.286   1.798   1.991
  109fsi    FSI 1031   3.514   1.836   2.043
  110fsi    FSI 1032   1.494   5.123   3.918
  110fsi    SBT 1033   1.648   5.149   3.897
  110fsi    NBT 1034   1.702   5.008   3.854
  110fsi    OBT 1035   1.654   5.252   3.797
  110fsi    OBT 1036   1.691   5.186   4.029
  110fsi    SBT 1037   1.676   4.932   3.719
  110fsi    OBT 1038   1.552   4.965   3.655
  110fsi    OBT 1039   1.709   4.792   3.729
  110fsi    FSI 1040   1.787   4.989   3.622
  111fsi    FSI 1041   3.403   4.884   4.095
  111fsi    SBT 1042   3.272   4.923   4.017
  111fsi    NBT 1043   3.325   4.979   3.880
  111fsi    OBT 1044   3.196   4.801   4.008
  111fsi    OBT 1045   3.214   5.028   4.096
  111fsi    SBT 1046   3.360   4.901   3.748
  111fsi    OBT 1047   3.393   4.762   3.766
  111fsi    OBT 1048   3.443   4.979   3.660
  111fsi    FSI 1049   3.221   4.898   3.673
  112fsi    FSI 1050   0.827   1.816   3.572
  112fsi    SBT 1051   0.792   1.702   3.675
  112fsi    NBT 1052   0.929   1.679   3.750
  112fsi    OBT 1053   0.688   1.757   3.757
  112fsi    OBT 1054   0.757   1.590   3.592
  112fsi    SBT 1055   0.983   1.748   3.880
  112fsi    OBT 1056   0.945   1.885   3.897
  112fsi    OBT 1057   1.121   1.715   3.907
  112fsi    FSI 1058   0.906   1.672   3.994
  113fsi    FSI 1059   4.090   5.128   5.200
  113fsi    SBT 1060   3.950   5.063   5.230
  113fsi    NBT 1061   3.867   5.099   5.101
  113fsi    OBT 1062   3.978   4.923   5.247
  113fsi    OBT 1063   3.904   5.135   5.346
  113fsi    SBT 1064   3.868   5.029   4.960
  113fsi    OBT 1065   3.984   4.949   4.934
  113fsi    OBT 1066   3.824   5.118   4.856
  113fsi    FSI 1067   3.750   4.925   4.972
  114fsi    FSI 1068   0.405   3.187   1.657
  114fsi    SBT 1069   0.550   3.242   1.625
  114fsi    NBT 1070   0.605   3.135   1.524
  114fsi    OBT 1071   0.526   3.373   1.571
  114fsi    OBT 1072   0.615   3.235   1.753
  114fsi    SBT 1073   0.590   3.130   1.367
  114fsi    OBT 1074   0.477   3.201   1.314
  114fsi    OBT 1075   0.614   2.998   1.316
  114fsi    FSI 1076   0.715   3.212   1.317
  115fsi    FSI 1077   5.073   2.583   1.203
  115fsi    SBT 1078   5.164   2.474   1.133
  115fsi    NBT 1079   5.200   2.378   1.253
  115fsi    OBT 1080   5.079   2.417   1.032
  115fsi    OBT 1081   5.277   2.550   1.088
  115fsi    SBT 1082   5.124   2.250   1.303
  115fsi    OBT 1083   4.983   2.246   1.274
  115fsi    OBT 1084   5.163   2.211   1.436
  115fsi    FSI 1085   5.184   2.135   1.213
  116fsi    FSI 1086   1.290   1.272   0.898
  116fsi    SBT 1087   1.342   1.385   0.994
  116fsi    NBT 1088   1.446   1.308   1.084
  116fsi    OBT 1089   1.400   1.481   0.904
  116fsi    OBT 1090   1.225   1.424   1.067
  116fsi    SBT 1091   1.603   1.302   1.071
  116fsi    OBT 1092   1.654   1.304   0.936
  116fsi    OBT 1093   1.663   1.203   1.157
  116fsi    FSI 1094   1.650   1.438   1.133
  117fsi    FSI 1095   5.358   5.000   4.171
  117fsi    SBT 1096   5.346   4.996   4.328
  117fsi    NBT 1097   5.222   5.088   4.355
  117fsi    OBT 1098   5.325   4.857   4.357
  117fsi    OBT 1099   5.469   5.056   4.372
  117fsi    SBT 1100   5.072   5.046   4.372
  117fsi    OBT 1101   5.030   4.931   4.296
  117fsi    OBT 1102   4.980   5.156   4.364
  117fsi    FSI 1103   5.062   5.000   4.522
  118fsi    FSI 1104   3.130   1.270   2.975
  118fsi    SBT 1105   2.976   1.300   2.964
  118fsi    NBT 1106   2.965   1.398   2.842
  118fsi    OBT 1107   2.915   1.171   2.943
  118fsi    OBT 1108   2.946   1.366   3.088
  118fsi    SBT 1109   3.006   1.370   2.693
  118fsi    OBT 1110   3.091   1.256   2.673
  118fsi    OBT 1111   3.038   1.495   2.630
  118fsi    FSI 1112   2.869   1.330   2.627
  119fsi    FSI 1113   4.754   5.027   3.684
  119fsi    SBT 1114   4.610   4.983   3.638
  119fsi    NBT 1115   4.621   4.828   3.617
  119fsi    OBT 1116   4.521   5.022   3.744
  119fsi    OBT 1117   4.588   5.051   3.514
  119fsi    SBT 1118   4.612   4.712   3.723
  119fsi    OBT 1119   4.634   4.755   3.859
  119fsi    OBT 1120   4.678   4.593   3.679
  119fsi    FSI 1121   4.459   4.674   3.719
  120fsi    FSI 1122   2.010   3.750   3.361
  120fsi    SBT 1123   2.078   3.875   3.293
  120fsi    NBT 1124   2.008   3.882   3.153
  120fsi    OBT 1125   2.047   3.985   3.381
  120fsi    OBT 1126   2.216   3.836   3.283
  120fsi    SBT 1127   1.869   3.946   3.117
  120fsi    OBT 1128   1.778   3.962   3.228
  120fsi    OBT 1129   1.815   3.894   2.994
  120fsi    FSI 1130   1.908   4.094   3.079
  121fsi    FSI 1131   3.676   0.486   1.792
  121fsi    SBT 1132   3.834   0.481   1.784
  121fsi    NBT 1133   3.862   0.333   1.738
  121fsi    OBT 1134   3.866   0.581   1.686
  121fsi    OBT 1135   3.876   0.505   1.919
  121fsi    SBT 1136   3.894   0.275   1.596
  121fsi    OBT 1137   3.860   0.360   1.484
  121fsi    OBT 1138   3.859   0.137   1.583
  121fsi    FSI 1139   4.051   0.273   1.593
  122fsi    FSI 1140   4.006   5.162   2.313
  122fsi    SBT 1141   3.988   5.022   2.383
  122fsi    NBT 1142   3.848   5.034   2.452
  122fsi    OBT 1143   3.998   4.926   2.277
  122fsi    OBT 1144   4.094   5.022   2.481
  122fsi    SBT 1145   3.706   5.029   2.384
  122fsi    OBT 1146   3.707   5.059   2.243
  122fsi    OBT 1147   3.606   5.093   2.464
  122fsi    FSI 1148   3.668   4.877   2.391
  123fsi    FSI 1149   1.166   2.891   0.383
  123fsi    SBT 1150   1.032   2.856   0.308
  123fsi    NBT 1151   1.068   2.724   0.231
  123fsi    OBT 1152   0.935   2.839   0.414
  123fsi    OBT 1153   1.013   2.967   0.219
  123fsi    SBT 1154   1.062   2.575   0.282
  123fsi    OBT 1155   1.084   2.558   0.423
  123fsi    OBT 1156   1.132   2.484   0.195
  123fsi    FSI 1157   0.911   2.537   0.261
  124fsi    FSI 1158   1.998   1.397   3.768
  124fsi    SBT 1159   1.892   1.287   3.807
  124fsi    NBT 1160   1.906   1.280   3.964
  124fsi    OBT 1161   1.767   1.340   3.761
  124fsi    OBT 1162   1.943   1.169   3.743
  124fsi    SBT 1163   1.839   1.371   4.073
  124fsi    OBT 1164   1.823   1.509   4.035
  124fsi    OBT 1165   1.892   1.345   4.204
  124fsi    FSI 1166   1.692   1.314   4.082
  125fsi    FSI 1167   4.529   2.837   5.096
  125fsi    SBT 1168   4.613   2.708   5.130
  125fsi    NBT 1169   4.571   2.610   5.014
  125fsi    OBT 1170   4.749   2.754   5.126
  125fsi    OBT 1171   4.559   2.668   5.258
  125fsi    SBT 1172   4.631   2.595   4.869
  125fsi    OBT 1173   4.700   2.712   4.821
  125fsi    OBT 1174   4.539   2.533   4.778
  125fsi    FSI 1175   4.745   2.488   4.888
  126fsi    FSI 1176   1.177   2.027   1.028
  126fsi    SBT 1177   1.162   1.882   0.968
  126fsi    NBT 1178   1.108   1.910   0.823
  126fsi    OBT 1179   1.295   1.828   0.974
  126fsi    OBT 1180   1.063   1.821   1.053
  126fsi    SBT 1181   1.184   1.920   0.685
  126fsi    OBT 1182   1.323   1.958   0.691
  126fsi    OBT 1183   1.108   1.987   0.583
  126fsi    FSI 1184   1.187   1.771   0.636
  127fsi    FSI 1185   0.815   2.053   3.328
  127fsi    SBT 1186   0.718   2.146   3.246
  127fsi    NBT 1187   0.709   2.276   3.336
  127fsi    OBT 1188   0.784   2.164   3.120
  127fsi    OBT 1189   0.594   2.073   3.246
  127fsi    SBT 1190   0.806   2.399   3.340
  127fsi    OBT 1191   0.941   2.372   3.297
  127fsi    OBT 1192   0.790   2.477   3.460
  127fsi    FSI 1193   0.748   2.493   3.227
  128fsi    FSI 1194   1.195   5.261   4.893
  128fsi    SBT 1195   1.345   5.255   4.846
  128fsi    NBT 1196   1.365   5.102   4.811
  128fsi    OBT 1197   1.351   5.344   4.734
  128fsi    OBT 1198   1.418   5.295   4.964
  128fsi    SBT 1199   1.352   5.029   4.673
  128fsi    OBT 1200   1.272   5.096   4.574
  128fsi    OBT 1201   1.329   4.887   4.685
  128fsi    FSI 1202   1.498   5.038   4.615
  129fsi    FSI 1203   5.073   3.866   1.326
  129fsi    SBT 1204   5.026   3.757   1.222
  129fsi    NBT 1205   5.065   3.622   1.292
  129fsi    OBT 1206   4.885   3.781   1.208
  129fsi    OBT 1207   5.107   3.785   1.106
  129fsi    SBT 1208   4.985   3.535   1.396
  129fsi    OBT 1209   4.870   3.600   1.452
  129fsi    OBT 1210   5.071   3.464   1.487
  129fsi    FSI 1211   4.925   3.421   1.306
  130fsi    FSI 1212   4.711   1.708   4.381
  130fsi    SBT 1213   4.667   1.815   4.488
  130fsi    NBT 1214   4.764   1.934   4.456
  130fsi    OBT 1215   4.528   1.837   4.456
  130fsi    OBT 1216   4.696   1.748   4.612
  130fsi    SBT 1217   4.744   2.060   4.363
  130fsi    OBT 1218   4.638   2.047   4.267
  130fsi    OBT 1219   4.868   2.113   4.315
  130fsi    FSI 1220   4.693   2.170   4.463
  131fsi    FSI 1221   0.701   4.591   1.425
  131fsi    SBT 1222   0.848   4.566   1.371
  131fsi    NBT 1223   0.925   4.693   1.423
  131fsi    OBT 1224   0.886   4.443   1.432
  131fsi    OBT 1225   0.831   4.569   1.228
  131fsi    SBT 1226   0.996   4.715   1.562
  131fsi    OBT 1227   0.933   4.648   1.673
  131fsi    OBT 1228   1.034   4.852   1.581
  131fsi    FSI 1229   1.134   4.641   1.544
  132fsi    FSI 1230   1.452   2.394   5.000
  132fsi    SBT 1231   1.449   2.244   4.950
  132fsi    NBT 1232   1.427   2.162   5.082
  132fsi    OBT 1233   1.338   2.240   4.857
  132fsi    OBT 1234   1.580   2.222   4.895
  132fsi    SBT 1235   1.292   2.119   5.151
  132fsi    OBT 1236   1.180   2.207   5.128
  132fsi    OBT 1237   1.312   2.071   5.285
  132fsi    FSI 1238   1.254   1.988   5.071
  133fsi    FSI 1239   0.214   1.097   0.637
  133fsi    SBT 1240   0.316   1.200   0.699
  133fsi    NBT 1241   0.446   1.115   0.715
  133fsi    OBT 1242   0.321   1.305   0.601
  133fsi    OBT 1243   0.254   1.231   0.826
  133fsi    SBT 1244   0.558   1.085   0.608
  133fsi    OBT 1245   0.512   1.089   0.472
  133fsi    OBT 1246   0.640   0.974   0.646
  133fsi    FSI 1247   0.655   1.209   0.621
  134fsi    FSI 1248   2.838   5.180   4.501
  134fsi    SBT 1249   2.941   5.072   4.452
  134fsi    NBT 1250   2.847   4.964   4.385
  134fsi    OBT 1251   3.025   5.144   4.359
  134fsi    OBT 1252   3.001   5.025   4.573
  134fsi    SBT 1253   2.805   4.949   4.235
  134fsi    OBT 1254   2.821   5.068   4.155
  134fsi    OBT 1255   2.684   4.873   4.218
  134fsi    FSI 1256   2.916   4.853   4.178
  135fsi    FSI 1257   5.322   2.284   5.235
  135fsi    SBT 1258   5.321   2.134   5.284
  135fsi    NBT 1259   5.239   2.062   5.172
  135fsi    OBT 1260   5.460   2.098   5.290
  135fsi    OBT 1261   5.250   2.141   5.409
  135fsi    SBT 1262   5.289   1.994   5.039
  135fsi    OBT 1263   5.414   2.044   4.988
  135fsi    OBT 1264   5.184   1.973   4.944
  135fsi    FSI 1265   5.324   1.847   5.087
  136fsi    FSI 1266   1.056   1.594   2.649
  136fsi    SBT 1267   1.024   1.568   2.497
  136fsi    NBT 1268   0.929   1.443   2.502
  136fsi    OBT 1269   0.961   1.690   2.452
  136fsi    OBT 1270   1.152   1.537   2.440
  136fsi    SBT 1271   0.772   1.437   2.514
  136fsi    OBT 1272   0.710   1.551   2.577
  136fsi    OBT 1273   0.725   1.307   2.553
  136fsi    FSI 1274   0.725   1.449   2.364
  137fsi    FSI 1275   2.950   4.828   2.100
  137fsi    SBT 1276   2.855   4.702   2.094
  137fsi    NBT 1277   2.712   4.766   2.105
  137fsi    OBT 1278   2.885   4.640   1.968
  137fsi    OBT 1279   2.890   4.629   2.213
  137fsi    SBT 1280   2.621   4.824   1.991
  137fsi    OBT 1281   2.692   4.873   1.875
  137fsi    OBT 1282   2.514   4.905   2.042
  137fsi    FSI 1283   2.546   4.696   1.938
  138fsi    FSI 1284   3.594   3.659   3.247
  138fsi    SBT 1285   3.676   3.538   3.307
  138fsi    NBT 1286   3.794   3.610   3.383
  138fsi    OBT 1287   3.583   3.468   3.390
  138fsi    OBT 1288   3.723   3.469   3.189
  138fsi    SBT 1289   3.789   3.689   3.519
  138fsi    OBT 1290   3.657   3.728   3.561
  138fsi    OBT 1291   3.893   3.788   3.526
  138fsi    FSI 1292   3.833   3.581   3.624
  139fsi    FSI 1293   3.999   5.425   0.926
  139fsi    SBT 1294   4.050   5.291   0.860
  139fsi    NBT 1295   4.204   5.292   0.893
  139fsi    OBT 1296   3.974   5.188   0.926
  139fsi    OBT 1297   4.025   5.311   0.720
  139fsi    SBT 1298   4.277   5.239   1.022
  139fsi    OBT 1299   4.199   5.242   1.142
  139fsi    OBT 1300   4.413   5.286   1.030
  139fsi    FSI 1301   4.294   5.085   0.991
  140fsi    FSI 1302   0.566   0.818   3.012
  140fsi    SBT 1303   0.716   0.827   3.060
  140fsi    NBT 1304   0.774   0.947   2.976
  140fsi    OBT 1305   0.707   0.852   3.202
  140fsi    OBT 1306   0.772   0.701   3.019
  140fsi    SBT 1307   0.767   1.099   3.010
  140fsi    OBT 1308   0.649   1.142   3.080
  140fsi    OBT 1309   0.809   1.176   2.896
  140fsi    FSI 1310   0.884   1.119   3.113
  141fsi    FSI 1311   1.219   1.891   2.371
  141fsi    SBT 1312   1.229   2.033   2.305
  141fsi    NBT 1313   1.385   2.053   2.296
  141fsi    OBT 1314   1.165   2.012   2.178
  141fsi    OBT 1315   1.165   2.119   2.400
  141fsi    SBT 1316   1.481   2.042   2.172
  141fsi    OBT 1317   1.434   1.953   2.069
  141fsi    OBT 1318   1.619   2.028   2.212
  141fsi    FSI 1319   1.474   2.186   2.107
  142fsi    FSI 1320   3.802   4.356   3.816
  142fsi    SBT 1321   3.776   4.491   3.892
  142fsi    NBT 1322   3.922   4.546   3.916
  142fsi    OBT 1323   3.697   4.568   3.800
  142fsi    OBT 1324   3.713   4.449   4.014
  142fsi    SBT 1325   4.006   4.646   3.828
  142fsi    OBT 1326   3.978   4.643   3.687
  142fsi    OBT 1327   4.145   4.649   3.865
  142fsi    FSI 1328   3.954   4.787   3.875
  143fsi    FSI 1329   4.184   5.142   3.052
  143fsi    SBT 1330   4.056   5.058   3.016
  143fsi    NBT 1331   4.105   4.910   3.033
  143fsi    OBT 1332   3.957   5.103   3.109
  143fsi    OBT 1333   4.035   5.091   2.877
  143fsi    SBT 1334   4.140   4.834   3.166
  143fsi    OBT 1335   4.177   4.920   3.276
  143fsi    OBT 1336   4.224   4.721   3.140
  143fsi    FSI 1337   4.002   4.771   3.210
  144fsi    FSI 1338   3.631   4.003   4.817
  144fsi    SBT 1339   3.641   3.888   4.924
  144fsi    NBT 1340   3.494   3.832   4.931
  144fsi    OBT 1341   3.737   3.796   4.871
  144fsi    OBT 1342   3.676   3.958   5.045
  144fsi    SBT 1343   3.427   3.721   4.841
  144fsi    OBT 1344   3.470   3.719   4.704
  144fsi    OBT 1345   3.286   3.709   4.866
  144fsi    FSI 1346   3.485   3.588   4.902
  145fsi    FSI 1347   2.837   0.348   1.697
  145fsi    SBT 1348   2.746   0.221   1.716
  145fsi    NBT 1349   2.600   0.279   1.705
  145fsi    OBT 1350   2.785   0.133   1.610
  145fsi    OBT 1351   2.775   0.180   1.851
  145fsi    SBT 1352   2.518   0.310   1.574
  145fsi    OBT 1353   2.596   0.347   1.460
  145fsi    OBT 1354   2.401   0.388   1.603
  145fsi    FSI 1355   2.458   0.169   1.536
  146fsi    FSI 1356   4.984   1.908   2.224
  146fsi    SBT 1357   5.055   2.039   2.274
  146fsi    NBT 1358   5.176   1.984   2.358
  146fsi    OBT 1359   5.091   2.109   2.154
  146fsi    OBT 1360   4.955   2.100   2.358
  146fsi    SBT 1361   5.314   1.929   2.306
  146fsi    OBT 1362   5.311   1.874   2.173
  146fsi    OBT 1363   5.383   1.854   2.407
  146fsi    FSI 1364   5.402   2.060   2.292
  147fsi    FSI 1365   1.063   3.897   1.547
  147fsi    SBT 1366   1.136   3.766   1.594
  147fsi    NBT 1367   1.070   3.655   1.504
  147fsi    OBT 1368   1.276   3.790   1.568
  147fsi    OBT 1369   1.097   3.755   1.732
  147fsi    SBT 1370   1.113   3.603   1.362
  147fsi    OBT 1371   1.191   3.695   1.284
  147fsi    OBT 1372   1.007   3.533   1.294
  147fsi    FSI 1373   1.215   3.488   1.397
  148fsi    FSI 1374   1.066   4.269   1.026
  148fsi    SBT 1375   1.184   4.165   1.041
  148fsi    NBT 1376   1.256   4.211   1.173
  148fsi    OBT 1377   1.117   4.038   1.048
  148fsi    OBT 1378   1.264   4.191   0.924
  148fsi    SBT 1379   1.214   4.184   1.322
  148fsi    OBT 1380   1.074   4.158   1.342
  148fsi    OBT 1381   1.278   4.277   1.412
  148fsi    FSI 1382   1.285   4.048   1.354
  149fsi    FSI 1383   1.635   3.456   2.300
  149fsi    SBT 1384   1.787   3.494   2.305
  149fsi    NBT 1385   1.850   3.383   2.399
  149fsi    OBT 1386   1.831   3.486   2.168
  149fsi    OBT 1387   1.790   3.624   2.365
  149fsi    SBT 1388   1.919   3.246   2.365
  149fsi    OBT 1389   1.906   3.204   2.228
  149fsi    OBT 1390   1.906   3.148   2.468
  149fsi    FSI 1391   2.071   3.286   2.373
  150fsi    FSI 1392   1.642   0.396   2.545
  150fsi    SBT 1393   1.623   0.373   2.700
  150fsi    NBT 1394   1.745   0.452   2.762
  150fsi    OBT 1395   1.494   0.431   2.727
  150fsi    OBT 1396   1.637   0.231   2.715
  150fsi    SBT 1397   1.752   0.603   2.804
  150fsi    OBT 1398   1.684   0.694   2.716
  150fsi    OBT 1399   1.886   0.639   2.845
  150fsi    FSI 1400   1.671   0.608   2.939
   5.64600   5.64600   5.64600
