L2P1 short trajectory practice
 1400
    1Li+     Li    1   0.516   1.194   2.277 -0.0300 -0.8551 -0.3447
    2Li+     Li    2   3.782   1.013   3.345  0.3385  0.0693 -0.9851
    3Li+     Li    3   0.649   0.233   3.184 -0.5542 -0.2867 -0.6561
    4Li+     Li    4   0.860   0.832   2.033 -0.6408 -0.4417  0.5424
    5Li+     Li    5   5.127   0.542   2.672 -0.1578 -0.7376  0.1983
    6Li+     Li    6   2.605   0.861   3.467  0.2645 -0.5374 -0.5699
    7Li+     Li    7   5.054   0.573   3.195  0.1315  1.2625  0.3513
    8Li+     Li    8   3.813   0.307   2.138  0.3416  0.7559  0.5837
    9Li+     Li    9   3.379   0.609   3.155 -0.4082 -0.2250  0.5543
   10Li+     Li   10   1.251   0.527   3.335 -0.2774  1.1342 -0.3876
   11Li+     Li   11   0.472   0.935   2.680 -0.3527  0.4546  0.1634
   12Li+     Li   12   4.302   5.352   3.007  0.1820 -0.0909 -0.3585
   13Li+     Li   13   2.646   5.133   2.631 -0.0331  1.0973  1.0245
   14Li+     Li   14   2.134   0.613   2.339  0.1827 -0.0673 -0.2585
   15Li+     Li   15   1.168   0.507   2.749 -0.6883  0.0116  0.0941
   16Li+     Li   16   0.511   0.540   2.331  0.4273  1.3658  0.5333
   17Li+     Li   17   4.188   5.470   2.187  0.1334 -0.1138 -0.9635
   18Li+     Li   18   3.415   0.109   2.280 -0.3982 -0.1158 -0.3759
   19Li+     Li   19   2.811   5.080   3.189 -0.1153 -0.2898  0.2019
   20Li+     Li   20   4.367   0.457   1.989 -0.1833  1.1533 -0.7563
   21Li+     Li   21   2.790   0.564   2.385 -0.0497  0.1474 -0.3374
   22Li+     Li   22   5.030   1.142   2.620 -0.4948  0.2916 -0.1015
   23Li+     Li   23   3.676   5.181   2.577 -0.1801  0.6699  0.4680
   24Li+     Li   24   0.938   0.981   2.852 -0.8389 -0.4906  0.4120
   25Li+     Li   25   2.556   0.602   2.951 -0.7335 -1.5238 -0.3345
   26Li+     Li   26   1.490   0.880   3.190 -0.0526 -0.6304  1.1899
   27Li+     Li   27   4.275   0.964   2.683 -0.4998 -0.2291 -0.7357
   28Li+     Li   28   0.362   5.423   2.997 -0.3842  1.0507 -0.6041
   29Li+     Li   29   2.149   0.111   2.745  1.0483 -0.9561 -0.4840
   30Li+     Li   30   3.681   1.052   2.679  0.3321  0.0730 -0.0594
   31Li+     Li   31   4.060   5.294   2.601 -0.5214 -0.8624 -0.5313
   32Li+     Li   32   0.796   0.183   2.702  0.0863  0.8935 -1.0154
   33Li+     Li   33   4.704   1.000   3.043  0.5449  0.2496 -0.2519
   34Li+     Li   34   1.016   1.226   2.381 -0.0610 -0.0041 -0.2282
   35Li+     Li   35   4.807   0.745   2.262  1.1141 -1.1419  0.2825
   36Li+     Li   36   3.296   0.068   2.768 -1.1235 -0.3401 -0.2647
   37Li+     Li   37   0.026   1.091   2.314 -0.4036 -0.8567 -0.4394
   38Li+     Li   38   3.152   1.097   2.547  0.8307  0.4246  1.0760
   39Li+     Li   39   5.373   0.164   2.272  0.0829  0.0952  0.0119
   40Li+     Li   40   3.192   5.482   3.271 -0.6591  0.2695 -0.7055
   41Li+     Li   41   4.110   0.571   2.806  0.4710  0.4141  1.0921
   42Li+     Li   42   3.682   0.135   2.930 -0.2263  0.0422  0.3112
   43Li+     Li   43   2.571   1.052   2.456  0.6998  0.7757  0.6133
   44Li+     Li   44   3.090   5.096   2.549  1.0382  0.1115  0.4159
   45Li+     Li   45   0.852   0.396   3.547 -0.4185  0.3952 -0.2995
   46Li+     Li   46   2.805   0.905   2.880  0.4680  0.1072 -0.6955
   47Li+     Li   47   0.302   5.466   2.562  0.0698  0.4946 -0.4215
   48Li+     Li   48   4.661   0.213   2.870  0.8581 -0.0761 -0.2405
   49Li+     Li   49   3.912   0.652   3.325  0.0045  0.3309 -0.8804
   50Li+     Li   50   1.451   1.323   2.905 -0.7419 -0.5760 -0.1751
   51c3c     N4   51   0.031   0.837   2.858 -0.0100  0.2117  0.5531
   51c3c     C1   52  -0.046   0.714   2.892  0.2025 -0.2592 -0.2920
   51c3c     C1   53   0.176   0.794   2.863  0.0146  0.6793 -0.0589
   51c3c     C2   54   0.028   0.598   2.832  0.4240  0.9710 -0.6414
   51c3c     C2   55   0.167   0.654   2.798 -0.1993 -0.2631  0.3429
   51c3c     C1   56   0.003   0.884   2.719  0.7449  0.4543 -0.4545
   51c3c     C1   57  -0.002   0.959   2.940  0.8193 -0.0720  0.1038
   51c3c     H1   58  -0.151   0.730   2.868  0.3356  0.2474 -0.5550
   51c3c     H1   59  -0.049   0.693   2.998  2.4547  0.3932 -0.0566
   51c3c     H1   60   0.245   0.862   2.813  0.8907 -0.0160  0.2048
   51c3c     H1   61   0.201   0.786   2.968 -0.1897 -0.4338 -0.0953
   51c3c     HC   62  -0.020   0.556   2.744  0.0304 -1.0458  0.5043
   51c3c     HC   63   0.037   0.514   2.902  0.6268 -1.3979 -3.4256
   51c3c     HC   64   0.156   0.656   2.689 -0.9254 -1.8079  0.3771
   51c3c     HC   65   0.250   0.590   2.828  0.7110  1.0245  0.6518
   51c3c     H1   66  -0.100   0.918   2.704  0.9537  1.1947 -0.2210
   51c3c     H1   67   0.056   0.969   2.677  0.6592  0.0933 -1.3011
   51c3c     H1   68   0.021   0.802   2.649 -0.9223 -2.6981  2.6172
   51c3c     H1   69   0.069   1.041   2.925  2.0682 -1.2187 -0.4370
   51c3c     H1   70  -0.102   0.996   2.918  0.5067 -1.3341 -0.6876
   51c3c     C2   71  -0.013   0.942   3.096 -0.2386  0.1748 -0.7470
   51c3c     HC   72   0.078   0.903   3.143 -1.8291 -1.5133  1.0361
   51c3c     HC   73  -0.099   0.878   3.117  1.5878 -1.2461  2.8828
   51c3c     CT   74  -0.049   1.074   3.165  0.2782 -0.4532 -1.0994
   51c3c     HC   75  -0.041   1.061   3.273  1.4325  0.1065 -1.1087
   51c3c     HC   76  -0.145   1.118   3.138  0.0412  0.3993  1.0353
   51c3c     HC   77   0.026   1.150   3.144 -0.8148 -0.1371 -4.0115
   52c3c     N4   78   3.801   1.012   2.174 -0.6913 -0.4085  0.0206
   52c3c     C1   79   3.881   0.968   2.057 -0.2707  0.3035  0.3512
   52c3c     C1   80   3.673   0.961   2.141  0.1082  0.3508  0.5843
   52c3c     C2   81   3.838   0.827   2.025 -0.6474  0.8283  0.0905
   52c3c     C2   82   3.695   0.826   2.073  0.3438 -0.2484  0.9891
   52c3c     C1   83   3.859   0.953   2.295 -0.2617 -0.0709 -0.3553
   52c3c     C1   84   3.810   1.162   2.188  0.0318  0.0978 -0.2511
   52c3c     H1   85   3.988   0.977   2.079 -0.1204 -1.1500  0.2405
   52c3c     H1   86   3.852   1.031   1.973 -0.1787  1.2712  1.0341
   52c3c     H1   87   3.604   0.945   2.224 -0.8432 -0.3104 -0.3098
   52c3c     H1   88   3.621   1.026   2.070 -2.1395  0.4060  2.2008
   52c3c     HC   89   3.890   0.752   2.084 -0.7565 -0.6258 -1.6200
   52c3c     HC   90   3.839   0.802   1.919 -0.4776  0.0593  0.2737
   52c3c     HC   91   3.667   0.750   2.146  0.9209 -2.1151 -0.6958
   52c3c     HC   92   3.633   0.823   1.984 -0.1060 -2.3208  1.3505
   52c3c     H1   93   3.964   0.979   2.310 -0.1979  0.5798 -1.8312
   52c3c     H1   94   3.805   1.001   2.377 -1.2892  1.0928 -1.6863
   52c3c     H1   95   3.836   0.850   2.319 -1.9720  0.6714  1.3525
   52c3c     H1   96   3.757   1.172   2.282 -2.0447 -1.1032 -1.2445
   52c3c     H1   97   3.916   1.180   2.205 -0.5212  0.5900  2.8723
   52c3c     C2   98   3.752   1.254   2.076  0.3157 -0.1730 -0.2600
   52c3c     HC   99   3.647   1.234   2.056 -0.1914  0.7813  1.3231
   52c3c     HC  100   3.804   1.227   1.984 -2.1243 -0.3341 -1.6279
   52c3c     CT  101   3.760   1.395   2.115 -0.4197  0.8820  0.2714
   52c3c     HC  102   3.783   1.461   2.032 -1.6798  0.2396 -0.6026
   52c3c     HC  103   3.837   1.410   2.191  0.3335 -2.1518  0.1950
   52c3c     HC  104   3.664   1.428   2.156 -0.8173 -0.2342  0.2513
   53c3c     N4  105   5.035   5.377   2.701  0.3218 -0.3127 -0.1730
   53c3c     C1  106   5.013   5.507   2.634 -0.6594 -0.3303 -0.5133
   53c3c     C1  107   5.161   5.338   2.640  0.4948 -0.1670 -0.2244
   53c3c     C2  108   5.154   5.573   2.625 -0.1239 -0.4848 -0.2794
   53c3c     C2  109   5.256   5.459   2.637 -0.0730  0.3268  0.0056
   53c3c     C1  110   5.052   5.400   2.846 -0.1156  0.4627 -0.5873
   53c3c     C1  111   4.927   5.271   2.689  0.6859 -0.2099 -0.2091
   53c3c     H1  112   4.933   5.568   2.677  0.9132  0.7234  0.9603
   53c3c     H1  113   4.982   5.476   2.534  2.1086 -2.1608 -0.8349
   53c3c     H1  114   5.209   5.254   2.690  0.9938  0.7854  0.9446
   53c3c     H1  115   5.150   5.308   2.536 -0.5052  0.5530 -0.3309
   53c3c     HC  116   5.174   5.641   2.708 -1.1865  0.8207 -1.0544
   53c3c     HC  117   5.173   5.627   2.532 -0.9088  1.2233  0.5267
   53c3c     HC  118   5.328   5.461   2.719 -0.3715 -1.7249  0.3482
   53c3c     HC  119   5.310   5.447   2.543  1.8800 -2.1667  1.3750
   53c3c     H1  120   4.960   5.431   2.895 -0.0094 -0.5441  0.2586
   53c3c     H1  121   5.101   5.322   2.904  1.9351  3.5695  2.0376
   53c3c     H1  122   5.126   5.479   2.861  0.7707 -0.7529  1.6626
   53c3c     H1  123   4.952   5.181   2.746 -1.1330 -1.6791 -1.7084
   53c3c     H1  124   4.845   5.299   2.755  0.9947 -0.4731  0.3000
   53c3c     C2  125   4.865   5.234   2.557 -0.1602  0.0366  0.4272
   53c3c     HC  126   4.938   5.215   2.478 -2.0388  1.3452 -1.6428
   53c3c     HC  127   4.799   5.311   2.518  0.0365 -0.1084 -0.1910
   53c3c     CT  128   4.779   5.107   2.572  0.2021 -0.5729  0.8626
   53c3c     HC  129   4.750   5.084   2.469  0.5082  0.6215  0.4989
   53c3c     HC  130   4.698   5.122   2.643 -2.1165  1.9067 -2.1226
   53c3c     HC  131   4.841   5.025   2.606  3.9129  2.5441  1.9142
   54c3c     N4  132   2.971   0.462   3.620  0.4054 -0.0812 -0.4117
   54c3c     C1  133   3.058   0.358   3.683  0.0460 -0.3317 -0.8016
   54c3c     C1  134   2.919   0.398   3.502  0.4020 -0.1601  0.3070
   54c3c     C2  135   2.982   0.222   3.650 -0.4590 -0.2978  0.4695
   54c3c     C2  136   2.874   0.258   3.542 -0.0309  0.0273  0.1535
   54c3c     C1  137   2.859   0.492   3.709 -0.1356 -0.0456 -0.0751
   54c3c     C1  138   3.058   0.581   3.605  0.4316  0.0323 -0.2576
   54c3c     H1  139   3.084   0.376   3.788 -2.5512  1.7274 -0.4511
   54c3c     H1  140   3.156   0.349   3.636 -0.0717  2.7757 -1.7723
   54c3c     H1  141   2.841   0.458   3.455 -0.5428 -1.2534  0.4708
   54c3c     H1  142   2.998   0.389   3.427  0.8020 -1.8722  0.9102
   54c3c     HC  143   2.949   0.165   3.736  0.4860 -1.2749  0.2071
   54c3c     HC  144   3.044   0.148   3.598 -0.4904 -0.3964  0.5726
   54c3c     HC  145   2.775   0.249   3.585  0.1193  0.7489  0.6739
   54c3c     HC  146   2.875   0.196   3.453 -2.3390  1.5257 -0.9703
   54c3c     H1  147   2.780   0.529   3.644 -1.2202 -0.5761  0.9305
   54c3c     H1  148   2.813   0.408   3.761  2.8625 -0.1532  2.5374
   54c3c     H1  149   2.887   0.558   3.790  0.6141  0.2786 -0.5849
   54c3c     H1  150   3.102   0.623   3.696 -0.5566  1.4148 -0.4071
   54c3c     H1  151   3.146   0.551   3.547  2.0193 -0.6422  2.3494
   54c3c     C2  152   2.989   0.690   3.523  0.1430 -0.1829 -0.0287
   54c3c     HC  153   2.887   0.703   3.561  1.1724  0.0688  2.7435
   54c3c     HC  154   2.993   0.654   3.420  0.2749 -1.0885  0.2902
   54c3c     CT  155   3.056   0.825   3.539  0.1243 -0.5417  0.3266
   54c3c     HC  156   3.080   0.842   3.644  0.4175  4.7369 -0.4576
   54c3c     HC  157   2.992   0.907   3.507 -0.4193 -1.4553 -0.9411
   54c3c     HC  158   3.155   0.819   3.494 -0.6215  3.1795 -2.0453
   55c3c     N4  159   1.540   5.505   2.850 -0.4582  0.1193  0.1667
   55c3c     C1  160   1.642   5.560   2.940 -0.0715  0.2588  0.2115
   55c3c     C1  161   1.540   5.362   2.891 -0.5461 -0.2723  0.1782
   55c3c     C2  162   1.620   5.504   3.073 -0.1764  0.7504 -0.2846
   55c3c     C2  163   1.567   5.360   3.042  0.1867 -0.6474 -1.1383
   55c3c     C1  164   1.415   5.566   2.886 -0.0562 -0.1856  0.1076
   55c3c     C1  165   1.561   5.535   2.707 -0.5149  0.3033 -0.3833
   55c3c     H1  166   1.640   5.669   2.936 -0.6057  0.2688  0.7147
   55c3c     H1  167   1.743   5.540   2.905  0.0095  0.0946  0.5365
   55c3c     H1  168   1.446   5.317   2.859  0.8052  0.5178 -5.3663
   55c3c     H1  169   1.620   5.304   2.844 -2.0266 -1.5995 -0.7642
   55c3c     HC  170   1.552   5.563   3.134 -1.5438 -1.7034  0.6183
   55c3c     HC  171   1.716   5.496   3.123 -0.8146  1.0309  1.0134
   55c3c     HC  172   1.476   5.351   3.100 -0.3679  2.8346 -1.3845
   55c3c     HC  173   1.636   5.286   3.084  0.0900 -1.2726 -2.0600
   55c3c     H1  174   1.334   5.541   2.817  0.5878 -1.1272 -0.3326
   55c3c     H1  175   1.378   5.544   2.986  0.9709 -0.3507  0.4614
   55c3c     H1  176   1.430   5.674   2.883  0.3104 -0.2702 -2.0203
   55c3c     H1  177   1.473   5.498   2.654 -1.2286  0.6430  0.5503
   55c3c     H1  178   1.552   5.642   2.688  0.2731  0.2768 -0.9307
   55c3c     C2  179   1.696   5.489   2.640 -0.9678  0.7318  0.0786
   55c3c     HC  180   1.712   5.382   2.646 -4.5780  0.1389  0.2934
   55c3c     HC  181   1.785   5.540   2.678 -0.2399 -0.0121 -0.5927
   55c3c     CT  182   1.689   5.516   2.490 -0.3756 -0.2030  0.3492
   55c3c     HC  183   1.597   5.470   2.453 -0.3385 -0.9281  1.1326
   55c3c     HC  184   1.778   5.479   2.439  1.3100  2.7038  1.0681
   55c3c     HC  185   1.669   5.623   2.483 -0.7711 -0.2188  1.1236
   56c3c     N4  186   2.523   0.065   3.155  0.0302 -0.8047 -0.5922
   56c3c     C1  187   2.525  -0.012   3.037 -0.4785  0.3561 -0.1709
   56c3c     C1  188   2.656   0.124   3.160 -0.2500  0.6119  0.3251
   56c3c     C2  189   2.619   0.056   2.942  0.1108 -0.5270  0.3549
   56c3c     C2  190   2.700   0.160   3.019  0.3209  0.0452  0.9581
   56c3c     C1  191   2.428   0.181   3.140  0.0704 -0.1818  0.3295
   56c3c     C1  192   2.486  -0.011   3.269  0.3092  0.1616  0.3952
   56c3c     H1  193   2.422  -0.028   3.006  0.1567 -3.2201 -0.6726
   56c3c     H1  194   2.570  -0.111   3.042  0.6202  0.9706  3.3586
   56c3c     H1  195   2.672   0.207   3.229  0.5811 -2.0802  3.5355
   56c3c     H1  196   2.721   0.041   3.188 -1.9808 -1.7477 -2.4051
   56c3c     HC  197   2.553   0.108   2.872  1.3617  1.2434  0.4537
   56c3c     HC  198   2.681  -0.016   2.887  1.7850  0.6717  0.6366
   56c3c     HC  199   2.671   0.262   2.993  1.2278  0.6971  2.4382
   56c3c     HC  200   2.808   0.148   3.012  0.0345 -1.8610 -0.4805
   56c3c     H1  201   2.324   0.151   3.130  0.1037 -0.4670  0.8018
   56c3c     H1  202   2.418   0.241   3.231  1.2016  1.4139 -0.5833
   56c3c     H1  203   2.450   0.254   3.063 -0.6251 -0.0228  0.2740
   56c3c     H1  204   2.384  -0.047   3.256  1.2683 -2.1744 -0.9028
   56c3c     H1  205   2.545  -0.102   3.272 -0.6845 -0.4860  0.7337
   56c3c     C2  206   2.478   0.052   3.408  0.4137 -0.0552 -0.1673
   56c3c     HC  207   2.416   0.140   3.424 -3.6569 -2.4866 -1.6810
   56c3c     HC  208   2.576   0.087   3.442 -0.3629  0.7527  1.2949
   56c3c     CT  209   2.425  -0.049   3.513 -0.3528 -0.7881 -0.0446
   56c3c     HC  210   2.440  -0.022   3.618  2.3092 -0.9443 -0.3656
   56c3c     HC  211   2.475  -0.144   3.495  0.2434 -0.5122  0.1432
   56c3c     HC  212   2.319  -0.067   3.492 -0.4585  0.8115 -0.9655
   57c3c     N4  213   3.890   0.049   3.395 -1.1037 -0.7788  0.7044
   57c3c     C1  214   3.843  -0.088   3.421  0.1502  0.6665 -0.4444
   57c3c     C1  215   4.036   0.018   3.388  0.1774  0.2309 -0.1169
   57c3c     C2  216   3.942  -0.158   3.515 -0.8401  0.2770 -0.3654
   57c3c     C2  217   4.074  -0.090   3.494 -0.4612  0.4641  0.4730
   57c3c     C1  218   3.863   0.109   3.265  0.2842 -0.0282 -0.1177
   57c3c     C1  219   3.854   0.152   3.493 -0.0020 -0.1246 -0.3502
   57c3c     H1  220   3.846  -0.142   3.326  3.9348 -0.6055  0.3305
   57c3c     H1  221   3.740  -0.101   3.456  1.3524 -1.4238  2.5153
   57c3c     H1  222   4.074  -0.023   3.295  1.4363  0.1475  0.4257
   57c3c     H1  223   4.096   0.106   3.411  1.0408 -0.4720  0.3409
   57c3c     HC  224   3.948  -0.262   3.483 -0.1847  1.1041 -3.0601
   57c3c     HC  225   3.912  -0.148   3.619 -0.9200  2.0723 -0.5424
   57c3c     HC  226   4.146  -0.162   3.457  0.4824  2.1173 -0.9989
   57c3c     HC  227   4.109  -0.047   3.588  0.1721  0.6982  0.1281
   57c3c     H1  228   3.761   0.147   3.257  0.6460  0.6409 -1.7904
   57c3c     H1  229   3.933   0.187   3.234  0.6272 -0.3685 -0.2090
   57c3c     H1  230   3.886   0.044   3.181 -0.3102 -1.0257  0.4760
   57c3c     H1  231   3.907   0.242   3.464  0.7319 -0.8786 -1.3663
   57c3c     H1  232   3.748   0.174   3.478  0.0422 -0.4355 -1.1354
   57c3c     C2  233   3.858   0.109   3.638 -0.3731 -0.4724 -0.0903
   57c3c     HC  234   3.957   0.074   3.670 -1.0363 -1.7913  0.5473
   57c3c     HC  235   3.783   0.032   3.655 -0.8068  0.2985  1.5744
   57c3c     CT  236   3.814   0.219   3.743 -0.3992  0.2439  0.5432
   57c3c     HC  237   3.779   0.175   3.837  1.1794 -2.2210  0.0144
   57c3c     HC  238   3.745   0.290   3.698 -0.5365  1.5648  2.7254
   57c3c     HC  239   3.891   0.291   3.771  0.1930 -0.7448  1.4768
   58c3c     N4  240   1.909   0.914   2.744 -0.2949  0.3215 -0.3078
   58c3c     C1  241   2.028   1.004   2.741  0.5601  0.5276  0.5497
   58c3c     C1  242   1.801   1.013   2.723  0.6383 -0.4932 -0.0910
   58c3c     C2  243   2.003   1.112   2.635  0.2208  0.1909  0.0640
   58c3c     C2  244   1.850   1.108   2.618 -0.0639 -0.1476  0.0633
   58c3c     C1  245   1.914   0.818   2.636 -0.2582 -0.3537  0.8176
   58c3c     C1  246   1.899   0.822   2.863  1.2398  0.1480  0.1468
   58c3c     H1  247   2.117   0.943   2.725  0.3305  0.2486  0.3114
   58c3c     H1  248   2.043   1.059   2.834  0.0512  1.5712  0.0190
   58c3c     H1  249   1.702   0.972   2.703 -0.3273  1.5132  0.5000
   58c3c     H1  250   1.783   1.057   2.820  0.5053  0.0196 -0.3466
   58c3c     HC  251   2.059   1.107   2.542  0.6670 -0.3811  0.3542
   58c3c     HC  252   2.043   1.207   2.673  0.1041 -0.2905  1.4317
   58c3c     HC  253   1.827   1.071   2.518  0.3968  0.0356 -0.1152
   58c3c     HC  254   1.800   1.205   2.618 -1.4861 -0.8681  0.3599
   58c3c     H1  255   2.013   0.776   2.617 -0.6480 -1.3517  0.9482
   58c3c     H1  256   1.838   0.739   2.630 -0.9409  0.3658 -0.1605
   58c3c     H1  257   1.901   0.876   2.544  0.1829  1.3549  1.8216
   58c3c     H1  258   1.801   0.776   2.863  0.3688  1.9612 -1.0451
   58c3c     H1  259   1.969   0.740   2.850 -0.1289 -0.8196 -1.3625
   58c3c     C2  260   1.918   0.875   3.006 -0.2633 -0.2185  0.1656
   58c3c     HC  261   1.879   0.977   3.009  2.3470  0.8724 -0.8139
   58c3c     HC  262   2.025   0.881   3.024 -0.0362 -2.1933 -0.4511
   58c3c     CT  263   1.859   0.785   3.119 -0.3755 -0.6575  0.1661
   58c3c     HC  264   1.880   0.817   3.221  2.2484 -3.6785  0.6395
   58c3c     HC  265   1.869   0.677   3.110 -0.2964 -0.5627 -0.9642
   58c3c     HC  266   1.751   0.789   3.102 -0.4779 -1.1292  0.6971
   59c3c     N4  267   1.378   0.562   2.183  0.0093  0.6158  0.2074
   59c3c     C1  268   1.454   0.665   2.118 -1.0598 -0.0702 -0.0259
   59c3c     C1  269   1.399   0.598   2.324 -0.1775 -0.0747 -0.5585
   59c3c     C2  270   1.434   0.799   2.195 -0.1552  0.3399 -0.0907
   59c3c     C2  271   1.383   0.754   2.333 -0.4868 -0.2114  0.8569
   59c3c     C1  272   1.234   0.583   2.148  0.1561 -0.7185 -0.8568
   59c3c     C1  273   1.410   0.419   2.140 -0.5769  0.5346 -0.1804
   59c3c     H1  274   1.427   0.682   2.014  1.0567 -0.8334 -0.7231
   59c3c     H1  275   1.560   0.638   2.113 -1.2311 -0.7227 -0.1029
   59c3c     H1  276   1.337   0.532   2.386  1.9656  0.0707  1.7902
   59c3c     H1  277   1.501   0.583   2.359 -0.6837 -0.3537  0.8448
   59c3c     HC  278   1.361   0.869   2.154 -1.7661  0.1151  2.2955
   59c3c     HC  279   1.528   0.850   2.215 -0.1605  0.2255  0.2334
   59c3c     HC  280   1.277   0.778   2.335 -0.5866 -0.4373 -0.9073
   59c3c     HC  281   1.430   0.791   2.424  0.8005  1.1160 -0.3085
   59c3c     H1  282   1.217   0.566   2.042  0.6310  3.1218 -1.5978
   59c3c     H1  283   1.163   0.509   2.186  1.9897 -1.8279  0.5103
   59c3c     H1  284   1.192   0.680   2.172 -1.1925 -1.5364  0.2171
   59c3c     H1  285   1.346   0.340   2.180  1.9649 -1.4392  0.0938
   59c3c     H1  286   1.385   0.400   2.035 -0.9431  1.5590 -0.2854
   59c3c     C2  287   1.560   0.372   2.152 -0.0980  0.4894  0.2364
   59c3c     HC  288   1.603   0.378   2.252  1.0844 -3.1392  0.0306
   59c3c     HC  289   1.634   0.435   2.102  1.5628 -2.3135 -1.0286
   59c3c     CT  290   1.590   0.225   2.112 -0.8315  0.2034 -0.1451
   59c3c     HC  291   1.693   0.199   2.137 -1.2138  0.7602  2.0990
   59c3c     HC  292   1.586   0.214   2.004 -0.8119 -1.7268  0.0360
   59c3c     HC  293   1.525   0.153   2.162  1.0024 -0.2256  1.6826
   60c3c     N4  294   3.350   4.869   2.987  0.1128  0.4922 -0.5486
   60c3c     C1  295   3.440   4.753   2.979  0.1672  0.7676  0.4691
   60c3c     C1  296   3.395   4.935   3.113 -0.3562 -0.4259 -0.5572
   60c3c     C2  297   3.577   4.803   3.025  0.5966 -0.1094  0.2543
   60c3c     C2  298   3.541   4.920   3.116 -0.0713  0.2402 -0.3467
   60c3c     C1  299   3.365   4.965   2.876  0.3971 -0.3439  0.0562
   60c3c     C1  300   3.206   4.834   2.997 -0.5579 -0.4505  0.0642
   60c3c     H1  301   3.451   4.700   2.885  0.9022  2.7073 -0.5439
   60c3c     H1  302   3.411   4.671   3.046 -0.2485  0.6782  0.1838
   60c3c     H1  303   3.353   5.036   3.114 -1.2415 -0.7715 -1.7466
   60c3c     H1  304   3.355   4.881   3.199 -0.3213 -2.1060 -1.5833
   60c3c     HC  305   3.628   4.840   2.937 -2.0909  0.0012 -1.3353
   60c3c     HC  306   3.623   4.730   3.091 -1.3537 -2.1548 -0.5785
   60c3c     HC  307   3.594   5.013   3.093  1.3032 -0.5632 -0.4792
   60c3c     HC  308   3.574   4.901   3.218  2.0561  0.1141 -1.0365
   60c3c     H1  309   3.341   4.914   2.782 -0.0886  0.4294 -0.2486
   60c3c     H1  310   3.310   5.059   2.886  1.4960  0.2441  0.5991
   60c3c     H1  311   3.467   5.001   2.870 -1.2335  4.4013 -1.5684
   60c3c     H1  312   3.156   4.928   3.020 -0.4682 -0.5491  0.6746
   60c3c     H1  313   3.186   4.800   2.896  1.3072  2.1027 -1.2430
   60c3c     C2  314   3.159   4.722   3.089  0.2167  0.1426  0.0048
   60c3c     HC  315   3.198   4.725   3.190  0.3998 -0.1294 -0.0567
   60c3c     HC  316   3.181   4.623   3.048  1.9554  0.5900 -0.1488
   60c3c     CT  317   3.004   4.731   3.089  0.0374 -0.1516 -0.1488
   60c3c     HC  318   2.982   4.831   3.126  2.8775  0.4074  0.2041
   60c3c     HC  319   2.959   4.667   3.165 -1.6231  1.5608  0.3548
   60c3c     HC  320   2.954   4.706   2.996 -1.9760 -1.6489  1.3030
   61c3c     N4  321   0.746   5.506   2.156  0.1208 -0.6032 -0.6645
   61c3c     C1  322   0.852   5.428   2.082 -0.1633  0.2261  0.2013
   61c3c     C1  323   0.811   5.564   2.267  0.3465 -0.0814 -0.4198
   61c3c     C2  324   0.967   5.529   2.074  0.1057 -0.3761  0.3739
   61c3c     C2  325   0.949   5.615   2.202  0.8183  0.1668  0.1231
   61c3c     C1  326   0.694   5.615   2.078 -0.3228  0.2424  0.0740
   61c3c     C1  327   0.632   5.418   2.200  0.0220 -0.2942  0.2027
   61c3c     H1  328   0.810   5.391   1.988 -2.6324  3.8840 -0.2251
   61c3c     H1  329   0.892   5.340   2.131 -0.9201  0.2500  0.8657
   61c3c     H1  330   0.753   5.634   2.328  1.8294  1.4515 -0.7085
   61c3c     H1  331   0.833   5.492   2.346 -1.2196 -0.3845 -0.2379
   61c3c     HC  332   0.974   5.589   1.983 -0.4103 -2.1891 -0.8961
   61c3c     HC  333   1.063   5.479   2.080 -1.0354 -2.8988 -1.2836
   61c3c     HC  334   0.948   5.723   2.186 -0.7572  0.4049  1.7458
   61c3c     HC  335   1.034   5.597   2.267  3.2903  0.9619 -2.7571
   61c3c     H1  336   0.629   5.576   1.999 -0.0935  0.9413 -0.4676
   61c3c     H1  337   0.632   5.681   2.139  0.4021 -1.1541  2.3495
   61c3c     H1  338   0.759   5.689   2.030 -1.6671  0.0612 -2.1153
   61c3c     H1  339   0.554   5.482   2.242 -1.1935 -0.6177 -1.5562
   61c3c     H1  340   0.583   5.390   2.107  0.2781 -0.0445 -0.0116
   61c3c     C2  341   0.675   5.299   2.289  0.0303  0.9573  0.0802
   61c3c     HC  342   0.749   5.319   2.367  2.7178 -3.3718 -1.1942
   61c3c     HC  343   0.725   5.229   2.223  2.6542  1.5447  1.3831
   61c3c     CT  344   0.556   5.220   2.350  0.2232 -0.4877  0.6522
   61c3c     HC  345   0.474   5.208   2.278  0.1975 -1.7979  0.8773
   61c3c     HC  346   0.522   5.278   2.436  2.1069  0.4841  0.7433
   61c3c     HC  347   0.595   5.129   2.395  0.1336 -1.7202 -1.6692
   62c3c     N4  348   5.432   0.507   1.884  0.0407  0.4934  0.6394
   62c3c     C1  349   5.416   0.470   2.024  0.5388  0.4883  0.0165
   62c3c     C1  350   5.573   0.548   1.872 -0.1484  0.0805 -0.0990
   62c3c     C2  351   5.547   0.405   2.068  0.0447 -0.0044  0.1525
   62c3c     C2  352   5.649   0.449   1.960  0.6931  0.4499 -0.5475
   62c3c     C1  353   5.399   0.386   1.809 -0.0190  0.0606  0.9083
   62c3c     C1  354   5.341   0.607   1.834 -0.0236  0.1498  0.3067
   62c3c     H1  355   5.322   0.416   2.025  0.5925  0.4052  0.4860
   62c3c     H1  356   5.390   0.552   2.092 -1.0177  0.0490 -0.0353
   62c3c     H1  357   5.613   0.569   1.773 -0.1478  3.3423  0.5384
   62c3c     H1  358   5.602   0.646   1.911  0.4522  0.1852 -0.7970
   62c3c     HC  359   5.533   0.297   2.070  2.2906 -0.4366 -3.5833
   62c3c     HC  360   5.578   0.439   2.167 -0.5805 -0.8755  0.6565
   62c3c     HC  361   5.686   0.376   1.889  0.9755  1.4571 -1.4483
   62c3c     HC  362   5.736   0.482   2.016  0.0898 -1.8190  1.8352
   62c3c     H1  363   5.303   0.339   1.833  0.0889 -1.3508 -1.2198
   62c3c     H1  364   5.394   0.406   1.702  1.4162 -1.7175  0.4701
   62c3c     H1  365   5.471   0.306   1.826 -1.3919 -1.3911  0.1047
   62c3c     H1  366   5.351   0.620   1.726 -3.1904  1.2557  0.0742
   62c3c     H1  367   5.238   0.578   1.855 -0.0796 -1.5722 -2.1596
   62c3c     C2  368   5.353   0.751   1.892  0.8885 -0.2187  0.3538
   62c3c     HC  369   5.455   0.788   1.879  0.8970  1.1833  4.0491
   62c3c     HC  370   5.341   0.757   2.000  0.8807  0.5984  0.3125
   62c3c     CT  371   5.240   0.843   1.826 -0.3000 -0.2048 -0.3580
   62c3c     HC  372   5.225   0.833   1.719  1.7855  0.6688 -0.7535
   62c3c     HC  373   5.252   0.947   1.859  2.3378 -0.3981 -0.6236
   62c3c     HC  374   5.151   0.814   1.882  0.0202 -1.9738 -0.7407
   63c3c     N4  375   4.558   1.162   2.135 -0.1265  0.4272  0.6763
   63c3c     C1  376   4.534   1.235   2.259  0.0139  0.5328  0.2353
   63c3c     C1  377   4.663   1.235   2.062  0.1301  0.1938 -0.1813
   63c3c     C2  378   4.667   1.292   2.293 -0.5661 -0.0126  0.0104
   63c3c     C2  379   4.755   1.292   2.168 -0.0549  0.5464 -0.1818
   63c3c     C1  380   4.600   1.027   2.169 -0.2629  0.3769 -0.1819
   63c3c     C1  381   4.437   1.142   2.047 -0.6349 -0.4170  0.5160
   63c3c     H1  382   4.485   1.173   2.334 -0.8277  2.4382  1.2857
   63c3c     H1  383   4.467   1.318   2.237 -2.2047 -1.6148 -1.5808
   63c3c     H1  384   4.712   1.187   1.977  0.1102 -1.6826  0.8395
   63c3c     H1  385   4.622   1.326   2.020  0.0455 -0.2575 -1.0929
   63c3c     HC  386   4.726   1.257   2.378  0.4259  0.5748 -0.4281
   63c3c     HC  387   4.649   1.398   2.312  2.0607  0.3169  0.8625
   63c3c     HC  388   4.842   1.228   2.180 -1.0050 -0.2208  3.1213
   63c3c     HC  389   4.783   1.393   2.139 -1.8635  1.2475  0.4683
   63c3c     H1  390   4.531   0.960   2.219 -0.1868 -1.4458 -2.4104
   63c3c     H1  391   4.611   0.968   2.078  0.6740 -2.5751  1.7698
   63c3c     H1  392   4.692   1.028   2.227  0.8346  3.7682 -1.8304
   63c3c     H1  393   4.462   1.082   1.959  0.1336 -2.0173  1.8166
   63c3c     H1  394   4.360   1.076   2.086 -1.1699 -0.9648 -1.3873
   63c3c     C2  395   4.358   1.261   1.996 -0.5913  0.4100  0.3048
   63c3c     HC  396   4.420   1.336   1.948 -0.0684  0.9507  1.8032
   63c3c     HC  397   4.312   1.317   2.077 -1.7986 -0.3618  0.1685
   63c3c     CT  398   4.255   1.213   1.886 -0.3066  0.0650 -0.7356
   63c3c     HC  399   4.173   1.149   1.919  0.9371 -1.3674 -0.3793
   63c3c     HC  400   4.304   1.145   1.815 -1.4369 -0.2238 -1.2620
   63c3c     HC  401   4.207   1.285   1.819 -1.3642 -1.3740 -1.5570
   64c3c     N4  402   3.284   0.580   2.551  0.2458 -0.3505 -0.2179
   64c3c     C1  403   3.408   0.615   2.618 -0.3089  0.2258  0.0005
   64c3c     C1  404   3.254   0.696   2.464  0.0530 -0.2417 -0.5502
   64c3c     C2  405   3.495   0.678   2.506  0.2796 -0.4748  0.1929
   64c3c     C2  406   3.393   0.746   2.416  0.0924 -0.0590 -0.5340
   64c3c     C1  407   3.305   0.461   2.469  0.6532  0.5950 -0.3697
   64c3c     C1  408   3.177   0.539   2.646  0.1639  0.1513  0.5994
   64c3c     H1  409   3.447   0.530   2.674 -1.8285  0.9662  2.3018
   64c3c     H1  410   3.381   0.694   2.689  0.0203  1.2662 -1.0071
   64c3c     H1  411   3.177   0.680   2.389 -0.3857 -1.5744  0.1526
   64c3c     H1  412   3.199   0.760   2.533 -1.8257 -2.4127  0.0446
   64c3c     HC  413   3.553   0.607   2.447 -0.2054 -1.6077  1.0659
   64c3c     HC  414   3.569   0.746   2.549  1.4599 -1.7720  0.2651
   64c3c     HC  415   3.411   0.723   2.311 -0.8578 -1.3285 -0.4378
   64c3c     HC  416   3.405   0.853   2.428  1.6296 -0.1301 -1.4074
   64c3c     H1  417   3.333   0.375   2.530 -1.6976  0.8399  1.1212
   64c3c     H1  418   3.212   0.428   2.423 -0.3062  0.2572  1.7534
   64c3c     H1  419   3.389   0.471   2.400  1.6988  1.5371  1.0259
   64c3c     H1  420   3.090   0.526   2.581 -2.0686  0.5282  3.4270
   64c3c     H1  421   3.205   0.442   2.688 -1.1977 -0.6660 -0.3412
   64c3c     C2  422   3.157   0.626   2.761  0.1975  0.9678 -0.1404
   64c3c     HC  423   3.162   0.732   2.734 -2.7204  1.4895  1.1246
   64c3c     HC  424   3.232   0.612   2.839 -0.0199 -2.0156 -0.4276
   64c3c     CT  425   3.030   0.583   2.832 -0.2963 -0.2698  0.5007
   64c3c     HC  426   3.045   0.481   2.869  2.2511 -0.4897 -0.9959
   64c3c     HC  427   2.941   0.597   2.771  1.0854 -2.9682 -2.3045
   64c3c     HC  428   3.013   0.634   2.927 -2.6087  0.4852 -0.2904
   65c3c     N4  429   0.370   0.732   3.492  0.0786 -0.6793  0.3533
   65c3c     C1  430   0.423   0.849   3.570 -0.6774 -0.5290  0.5999
   65c3c     C1  431   0.248   0.779   3.428 -0.2150 -0.0248 -0.1893
   65c3c     C2  432   0.299   0.936   3.601  0.7762 -0.4812  0.5077
   65c3c     C2  433   0.183   0.892   3.509  0.0211  0.5808  0.7257
   65c3c     C1  434   0.468   0.690   3.388  0.2565 -0.4424  0.6742
   65c3c     C1  435   0.349   0.615   3.574 -0.0209 -0.3494  0.4919
   65c3c     H1  436   0.488   0.917   3.515 -2.2288 -0.5329 -1.2949
   65c3c     H1  437   0.482   0.809   3.653  1.3020  0.9936 -0.0316
   65c3c     H1  438   0.280   0.830   3.336  0.7204 -1.6774 -0.8044
   65c3c     H1  439   0.174   0.712   3.384 -0.7860 -0.3275  1.2369
   65c3c     HC  440   0.323   1.042   3.591  0.9598 -0.7019 -1.5134
   65c3c     HC  441   0.260   0.929   3.702 -2.0379 -0.5885 -0.5378
   65c3c     HC  442   0.161   0.975   3.441  1.3652  2.2647  2.2834
   65c3c     HC  443   0.089   0.864   3.557  0.7875  1.9369  3.0761
   65c3c     H1  444   0.555   0.648   3.438 -1.0580 -1.3545  2.2665
   65c3c     H1  445   0.441   0.612   3.316  1.3040  0.0372 -0.2514
   65c3c     H1  446   0.495   0.778   3.331 -1.4957  0.2856  0.9292
   65c3c     H1  447   0.320   0.525   3.520  0.5994 -1.1632  1.4924
   65c3c     H1  448   0.442   0.574   3.614  0.6090  2.1721  1.7438
   65c3c     C2  449   0.243   0.636   3.676 -0.6214  0.1342 -0.6122
   65c3c     HC  450   0.145   0.659   3.636 -2.0467 -0.2156  2.5290
   65c3c     HC  451   0.270   0.719   3.740 -0.5459 -1.5568  1.6163
   65c3c     CT  452   0.228   0.517   3.775  0.2270 -0.3967 -0.0661
   65c3c     HC  453   0.140   0.541   3.834  0.1730 -2.0287  0.5382
   65c3c     HC  454   0.312   0.509   3.844 -1.3510 -0.3387  1.9171
   65c3c     HC  455   0.207   0.419   3.732 -1.9209 -0.4506  1.0320
   66c3c     N4  456   2.172   1.124   3.266  0.2083 -0.6889 -0.4228
   66c3c     C1  457   2.315   1.105   3.295 -0.5460 -0.3240 -0.0670
   66c3c     C1  458   2.144   1.253   3.324  0.6560  0.0935 -0.3234
   66c3c     C2  459   2.380   1.246   3.258  0.0763 -0.2021 -0.0445
   66c3c     C2  460   2.268   1.350   3.298  0.4681 -0.0809  0.0552
   66c3c     C1  461   2.160   1.132   3.124  0.0266  0.4097 -0.5557
   66c3c     C1  462   2.085   1.014   3.311  0.1519 -0.4163  0.4357
   66c3c     H1  463   2.347   1.013   3.249 -1.4041 -0.5117 -0.3008
   66c3c     H1  464   2.345   1.100   3.400  0.1331 -1.9223 -0.3350
   66c3c     H1  465   2.061   1.294   3.266  0.0735 -0.2903  0.2444
   66c3c     H1  466   2.114   1.263   3.428 -0.9897  0.8548 -0.8523
   66c3c     HC  467   2.407   1.264   3.154 -0.3264  1.0555  0.0610
   66c3c     HC  468   2.473   1.257   3.313  0.6097 -1.0441 -0.7517
   66c3c     HC  469   2.249   1.423   3.219 -1.9910 -0.2135  0.4946
   66c3c     HC  470   2.292   1.404   3.389  0.6306  1.6006 -0.9686
   66c3c     H1  471   2.202   1.047   3.070 -1.5905 -0.6303 -0.2271
   66c3c     H1  472   2.064   1.113   3.076 -1.4039 -0.1082  2.3561
   66c3c     H1  473   2.199   1.220   3.074 -1.8167  0.6424 -1.6425
   66c3c     H1  474   1.982   1.046   3.298  1.2763  4.0848  1.7609
   66c3c     H1  475   2.114   0.926   3.254 -1.6071 -0.3136 -0.6257
   66c3c     C2  476   2.085   0.981   3.464 -0.4262  0.1903  0.2689
   66c3c     HC  477   2.094   1.065   3.533  3.5339 -1.0431  1.3762
   66c3c     HC  478   2.174   0.922   3.484 -0.8084  0.0492  1.6339
   66c3c     CT  479   1.976   0.891   3.518 -0.1151 -0.4747  0.2000
   66c3c     HC  480   1.969   0.797   3.463 -0.8640 -1.9900  2.8323
   66c3c     HC  481   1.877   0.937   3.515 -0.0287 -0.3284 -2.5991
   66c3c     HC  482   2.002   0.871   3.621 -0.8444 -1.7209  0.1488
   67c3c     N4  483   0.962   1.189   3.382  0.1561 -0.2022 -0.2288
   67c3c     C1  484   0.989   1.107   3.266 -0.5290 -0.3015 -0.0164
   67c3c     C1  485   0.898   1.104   3.480 -0.1617  0.6220 -0.0694
   67c3c     C2  486   1.031   0.977   3.325 -0.0573 -0.6567  0.1915
   67c3c     C2  487   0.961   0.969   3.459  1.2493 -0.0276 -0.1583
   67c3c     C1  488   1.095   1.227   3.436  0.8414 -0.2000  0.5073
   67c3c     C1  489   0.880   1.307   3.348 -0.6093  0.0574 -0.6275
   67c3c     H1  490   1.052   1.147   3.186  1.3163  0.9982  2.0357
   67c3c     H1  491   0.893   1.084   3.220 -0.5194  0.1595 -0.2662
   67c3c     H1  492   0.910   1.133   3.584  0.6795 -0.1818  0.0670
   67c3c     H1  493   0.791   1.088   3.466 -0.4824  1.3083  1.5416
   67c3c     HC  494   1.138   0.977   3.347  0.0070 -0.0348 -0.1089
   67c3c     HC  495   1.011   0.888   3.265  1.9893 -0.3510 -1.0007
   67c3c     HC  496   1.032   0.948   3.538 -0.6199 -1.9573  1.0369
   67c3c     HC  497   0.889   0.887   3.454  1.1541  0.1192 -1.6047
   67c3c     H1  498   1.148   1.262   3.347 -2.3110  0.5996 -1.1384
   67c3c     H1  499   1.074   1.315   3.497 -1.9623  0.7429 -1.6811
   67c3c     H1  500   1.153   1.159   3.498  1.1986  0.4777  0.9273
   67c3c     H1  501   0.866   1.372   3.434 -2.9405 -1.9820  0.5954
   67c3c     H1  502   0.931   1.355   3.265 -1.1609  0.4601 -0.7424
   67c3c     C2  503   0.738   1.278   3.284 -0.3154  1.0505 -0.1168
   67c3c     HC  504   0.670   1.230   3.354  0.0506  1.6380  0.6600
   67c3c     HC  505   0.750   1.220   3.193 -0.8098  2.3560 -1.0307
   67c3c     CT  506   0.667   1.405   3.244 -0.1260 -0.0905 -0.0205
   67c3c     HC  507   0.645   1.469   3.330 -2.2907  0.8442 -1.2254
   67c3c     HC  508   0.568   1.385   3.204 -0.7461 -1.2051  1.9901
   67c3c     HC  509   0.724   1.459   3.169  0.6370  0.9522  1.2645
   68c3c     N4  510   4.237   1.305   3.103  0.5380  0.1106 -0.5832
   68c3c     C1  511   4.261   1.356   3.239 -0.3055 -0.3836  0.0631
   68c3c     C1  512   4.342   1.204   3.096  0.2242  0.4507  0.2067
   68c3c     C2  513   4.273   1.232   3.332 -0.2405  0.2678  0.6282
   68c3c     C2  514   4.344   1.140   3.234  1.2137 -0.6142 -0.1055
   68c3c     C1  515   4.103   1.231   3.095 -0.6892  0.3622 -0.6455
   68c3c     C1  516   4.242   1.398   2.989 -0.6568  0.1553  0.5733
   68c3c     H1  517   4.173   1.410   3.272 -1.2892 -2.0387  0.1817
   68c3c     H1  518   4.345   1.425   3.245 -0.4915 -0.3369  2.6092
   68c3c     H1  519   4.324   1.125   3.023  0.1352  0.0684  0.6400
   68c3c     H1  520   4.440   1.241   3.069  0.1972  0.2523 -0.1697
   68c3c     HC  521   4.182   1.182   3.366  0.0460 -0.3615  0.4763
   68c3c     HC  522   4.341   1.245   3.416  0.4386  0.7236  0.0145
   68c3c     HC  523   4.301   1.040   3.243  1.4457 -0.6879  0.1830
   68c3c     HC  524   4.444   1.123   3.272  0.0996 -1.8335  2.4317
   68c3c     H1  525   4.022   1.300   3.073 -0.0330  0.6515 -2.2573
   68c3c     H1  526   4.102   1.159   3.013  0.7819  2.3349 -2.4391
   68c3c     H1  527   4.076   1.183   3.189  1.6314 -1.5252 -0.8933
   68c3c     H1  528   4.209   1.345   2.899  1.1230  1.9820 -1.1925
   68c3c     H1  529   4.171   1.480   3.002 -1.2691 -0.4792  1.2776
   68c3c     C2  530   4.377   1.469   2.956 -0.3339  0.2742  0.0787
   68c3c     HC  531   4.453   1.400   2.921 -0.4482  1.5460 -2.8425
   68c3c     HC  532   4.418   1.494   3.054 -1.0141 -0.9589  0.6898
   68c3c     CT  533   4.390   1.583   2.866  0.3208 -0.4238  0.2053
   68c3c     HC  534   4.488   1.629   2.879  0.2540 -0.6853  1.8444
   68c3c     HC  535   4.322   1.664   2.893 -0.7481 -0.4825 -2.1922
   68c3c     HC  536   4.362   1.566   2.762 -4.7658  2.9227  0.8283
   69c3c     N4  537   1.880   0.380   3.390  0.3364  0.3460  0.2602
   69c3c     C1  538   1.979   0.271   3.370  0.0373 -0.7343 -0.5524
   69c3c     C1  539   1.946   0.447   3.505 -0.2921  0.8185  0.3656
   69c3c     C2  540   2.115   0.340   3.373 -0.1991 -0.3517 -0.2954
   69c3c     C2  541   2.091   0.461   3.472 -0.3111 -0.6721 -0.3890
   69c3c     C1  542   1.874   0.472   3.281  0.5651 -0.2264 -0.0243
   69c3c     C1  543   1.740   0.323   3.410 -0.0983 -0.2887 -0.1003
   69c3c     H1  544   1.983   0.207   3.282  0.4083 -1.3498 -0.0926
   69c3c     H1  545   1.979   0.209   3.460 -1.6595  0.4590  0.2833
   69c3c     H1  546   1.897   0.539   3.536 -1.5299 -0.3994  2.1353
   69c3c     H1  547   1.940   0.383   3.593  1.2710  0.1927  0.0352
   69c3c     HC  548   2.134   0.380   3.273  0.5190 -0.0360 -0.0272
   69c3c     HC  549   2.191   0.272   3.409 -0.2276  0.1162  0.6491
   69c3c     HC  550   2.108   0.554   3.416 -0.0109 -0.9228 -0.7168
   69c3c     HC  551   2.159   0.459   3.557 -0.0281  1.1061 -0.5463
   69c3c     H1  552   1.819   0.424   3.200  2.1188 -1.6569 -0.2745
   69c3c     H1  553   1.810   0.553   3.316 -1.1319 -1.9796  1.0752
   69c3c     H1  554   1.970   0.507   3.243  0.5245 -0.7077 -0.5860
   69c3c     H1  555   1.665   0.402   3.415 -0.0656 -0.1758 -1.3572
   69c3c     H1  556   1.716   0.260   3.325  0.3682 -0.4826 -0.0920
   69c3c     C2  557   1.718   0.231   3.531  0.3755 -0.5019 -0.0643
   69c3c     HC  558   1.722   0.295   3.619  0.5853 -2.5406  1.4440
   69c3c     HC  559   1.795   0.154   3.540 -0.2713 -1.2822 -1.1301
   69c3c     CT  560   1.575   0.164   3.530  0.0227  0.3311  0.0684
   69c3c     HC  561   1.562   0.100   3.617  1.7467  1.5832  1.2751
   69c3c     HC  562   1.561   0.104   3.439  1.8747  0.4771 -0.3307
   69c3c     HC  563   1.489   0.231   3.538  0.8438  1.3274  0.5370
   70c3c     N4  564   4.565   0.492   3.324  0.8893 -0.1820  0.5506
   70c3c     C1  565   4.513   0.385   3.416 -0.0181 -0.0547  0.3601
   70c3c     C1  566   4.699   0.445   3.303 -0.6568 -0.3083 -0.0008
   70c3c     C2  567   4.569   0.256   3.354 -0.0308  0.2886 -0.0549
   70c3c     C2  568   4.702   0.297   3.287  0.0400  0.1688 -0.3966
   70c3c     C1  569   4.491   0.489   3.198  0.1863  0.0078  0.4778
   70c3c     C1  570   4.563   0.628   3.381  0.4373 -0.2336  0.0057
   70c3c     H1  571   4.404   0.389   3.419 -0.0942 -0.2713 -1.4524
   70c3c     H1  572   4.550   0.389   3.518  1.9365 -2.2496 -0.2129
   70c3c     H1  573   4.737   0.507   3.223  0.9956  0.4677  1.3492
   70c3c     H1  574   4.766   0.463   3.387 -0.8296 -0.0253  0.0771
   70c3c     HC  575   4.504   0.212   3.277  0.9012 -2.3011  0.5711
   70c3c     HC  576   4.589   0.175   3.424 -2.3823 -1.0679 -0.8858
   70c3c     HC  577   4.708   0.278   3.180  0.3916  0.3406 -0.4104
   70c3c     HC  578   4.791   0.270   3.344  0.7638  0.7543 -1.2262
   70c3c     H1  579   4.392   0.529   3.216 -0.2523 -0.0578 -1.5957
   70c3c     H1  580   4.544   0.540   3.117 -0.8014 -0.7304 -0.6514
   70c3c     H1  581   4.474   0.386   3.164 -1.5922 -0.1958  1.9734
   70c3c     H1  582   4.603   0.700   3.309  1.0405 -0.4966  0.0744
   70c3c     H1  583   4.455   0.645   3.385  0.3916 -0.0966 -1.4525
   70c3c     C2  584   4.620   0.664   3.519 -0.5814  0.6139 -0.1213
   70c3c     HC  585   4.721   0.624   3.522 -0.2673  1.3767 -0.3291
   70c3c     HC  586   4.574   0.600   3.594 -0.7521 -0.2129 -0.9219
   70c3c     CT  587   4.602   0.808   3.563 -0.3824  0.1979  0.1092
   70c3c     HC  588   4.664   0.879   3.508 -0.6195  1.0585  0.9420
   70c3c     HC  589   4.656   0.823   3.657 -1.8432 -0.7540  1.1192
   70c3c     HC  590   4.497   0.837   3.562 -0.5994 -0.5668  0.5164
   71c3c     N4  591   3.292   5.127   2.015  0.0856 -0.7081 -0.5141
   71c3c     C1  592   3.240   5.224   1.918 -0.2214  0.3288  0.4204
   71c3c     C1  593   3.302   5.206   2.137 -0.5409  0.6900  1.0582
   71c3c     C2  594   3.152   5.321   1.997 -0.0680 -0.4765  0.4231
   71c3c     C2  595   3.182   5.294   2.149  0.4119 -0.6544 -0.2781
   71c3c     C1  596   3.191   5.033   2.038 -0.8030  0.3929 -0.1532
   71c3c     C1  597   3.423   5.062   1.980 -0.3279  0.6284  0.6226
   71c3c     H1  598   3.186   5.177   1.835  1.7115 -1.7467  0.3005
   71c3c     H1  599   3.319   5.290   1.882 -0.0346 -1.6018 -2.9160
   71c3c     H1  600   3.310   5.146   2.227 -1.7376  0.4946  1.0329
   71c3c     H1  601   3.388   5.272   2.126 -0.9981  0.8281 -2.2401
   71c3c     HC  602   3.048   5.293   1.980 -1.0899  3.1218  0.3187
   71c3c     HC  603   3.164   5.427   1.975  1.4441 -0.6793  0.2693
   71c3c     HC  604   3.108   5.244   2.211 -0.8280  0.6638 -0.6787
   71c3c     HC  605   3.211   5.386   2.199  0.2160  0.4745 -2.2077
   71c3c     H1  606   3.176   4.957   1.961  0.9128 -0.7914  0.6650
   71c3c     H1  607   3.213   4.978   2.129 -2.2007  0.6743  0.3682
   71c3c     H1  608   3.094   5.084   2.041 -1.8114 -1.4879  0.1494
   71c3c     H1  609   3.453   4.989   2.055 -0.1762  0.0590  0.0202
   71c3c     H1  610   3.422   5.023   1.878 -1.3226  2.2532 -0.0009
   71c3c     C2  611   3.547   5.151   1.964 -0.5006  0.1145 -0.1654
   71c3c     HC  612   3.577   5.173   2.066 -1.2797 -2.4663  0.6513
   71c3c     HC  613   3.525   5.242   1.908 -1.2851  0.7442  1.1664
   71c3c     CT  614   3.664   5.077   1.886  0.3641  0.1363  0.0552
   71c3c     HC  615   3.752   5.141   1.884 -1.1980  2.3121  0.1159
   71c3c     HC  616   3.631   5.056   1.784  0.5193  1.4671 -0.2793
   71c3c     HC  617   3.701   4.988   1.938  1.2984  0.1403 -0.5876
   72c3c     N4  618   2.234   4.854   3.021 -0.0716 -0.0362 -0.1215
   72c3c     C1  619   2.134   4.916   2.939  0.0285 -0.5049 -0.1349
   72c3c     C1  620   2.244   4.720   2.959 -0.2280  0.3787  0.1076
   72c3c     C2  621   2.157   4.868   2.792  0.2499 -0.0627  0.1917
   72c3c     C2  622   2.239   4.744   2.809  0.1604  0.3583 -0.3262
   72c3c     C1  623   2.360   4.932   3.007  1.1917  0.0545 -0.2450
   72c3c     C1  624   2.202   4.854   3.164  0.1508  0.1202 -0.2687
   72c3c     H1  625   2.139   5.024   2.955 -0.2027 -0.6771  1.1793
   72c3c     H1  626   2.032   4.883   2.957 -0.3819  0.6492 -0.2960
   72c3c     H1  627   2.337   4.671   2.987 -1.3173 -1.4642  0.5595
   72c3c     H1  628   2.163   4.655   2.989 -1.1157  1.8198  0.8898
   72c3c     HC  629   2.211   4.936   2.726  1.3729 -2.1946 -1.0948
   72c3c     HC  630   2.070   4.834   2.737  1.8213 -1.4424 -1.5165
   72c3c     HC  631   2.339   4.763   2.770  0.9092  1.0520  1.8294
   72c3c     HC  632   2.197   4.657   2.759  1.3444 -1.6810  2.1172
   72c3c     H1  633   2.343   5.033   3.042  0.0587 -0.0776 -0.3959
   72c3c     H1  634   2.439   4.898   3.073  1.8543  1.8645 -0.0966
   72c3c     H1  635   2.396   4.938   2.904  0.5131  1.0576 -0.4266
   72c3c     H1  636   2.290   4.825   3.221  0.5923  2.8993  0.5688
   72c3c     H1  637   2.180   4.953   3.205  1.4903 -0.0573  0.9304
   72c3c     C2  638   2.084   4.762   3.210 -0.7990 -0.3173 -0.8311
   72c3c     HC  639   2.121   4.662   3.231  0.9259  0.3898 -0.3351
   72c3c     HC  640   2.004   4.747   3.139 -1.5185 -1.0947  0.1302
   72c3c     CT  641   2.037   4.812   3.352 -0.2680  0.2297  0.3554
   72c3c     HC  642   1.975   4.900   3.337  0.3611  0.0927 -3.6722
   72c3c     HC  643   2.131   4.829   3.405 -1.2731  1.0339  1.8981
   72c3c     HC  644   1.986   4.724   3.390  2.0977 -0.7580  1.3675
   73c3c     N4  645   2.417   0.064   2.243  0.3535  0.0522  0.0707
   73c3c     C1  646   2.475   0.098   2.372  0.8780 -0.0440 -0.3015
   73c3c     C1  647   2.501   0.132   2.137 -0.2203 -0.4050  0.6958
   73c3c     C2  648   2.625   0.101   2.342  0.7248  0.1657 -0.4545
   73c3c     C2  649   2.639   0.134   2.193 -0.8984  0.0154  0.2605
   73c3c     C1  650   2.434  -0.082   2.224 -0.6559  0.4386 -0.2382
   73c3c     C1  651   2.271   0.079   2.228 -0.1414  0.6071  0.2631
   73c3c     H1  652   2.458   0.025   2.451 -0.9172  1.2084  0.5221
   73c3c     H1  653   2.434   0.191   2.413 -1.5952 -1.4349  0.5080
   73c3c     H1  654   2.495   0.100   2.033  1.5187  0.5830  0.2677
   73c3c     H1  655   2.473   0.238   2.140 -0.0957 -0.2157 -2.5648
   73c3c     HC  656   2.671   0.006   2.370  0.9202  0.4227  0.0838
   73c3c     HC  657   2.684   0.169   2.402 -1.1918  1.7398 -0.3226
   73c3c     HC  658   2.701   0.061   2.141  0.5216  2.0056 -0.8771
   73c3c     HC  659   2.681   0.232   2.172 -0.0129 -0.5890 -0.8373
   73c3c     H1  660   2.380  -0.133   2.304  1.2547  0.0717  0.8495
   73c3c     H1  661   2.404  -0.116   2.125 -0.5134 -1.6272  0.4159
   73c3c     H1  662   2.535  -0.122   2.232 -0.8684 -0.2025 -0.6777
   73c3c     H1  663   2.246   0.026   2.136  1.7675  1.7467 -0.9478
   73c3c     H1  664   2.221   0.031   2.312 -2.0002 -1.0581 -1.7166
   73c3c     C2  665   2.202   0.216   2.233  0.3825 -0.2554 -0.2188
   73c3c     HC  666   2.247   0.285   2.162 -4.0013  2.4563 -0.5624
   73c3c     HC  667   2.216   0.242   2.338  0.4590 -0.9656 -0.0496
   73c3c     CT  668   2.055   0.229   2.209  0.2236 -0.1396 -0.5980
   73c3c     HC  669   2.024   0.186   2.114  3.2002  1.4133 -2.3232
   73c3c     HC  670   2.026   0.333   2.193  0.4578 -0.1168 -0.8676
   73c3c     HC  671   2.001   0.193   2.297 -2.3175  0.5274 -1.8372
   74c3c     N4  672   5.503   0.271   3.383 -0.3042  0.2981  0.1225
   74c3c     C1  673   5.562   0.184   3.274 -0.1276  0.8663 -0.2955
   74c3c     C1  674   5.610   0.366   3.418 -0.5177  0.1023 -0.8448
   74c3c     C2  675   5.655   0.278   3.203 -0.3186  0.1407  0.1075
   74c3c     C2  676   5.688   0.396   3.293 -0.0220 -0.1351  0.1258
   74c3c     C1  677   5.394   0.358   3.330 -0.0989  0.3454 -0.0973
   74c3c     C1  678   5.451   0.188   3.497  0.7234  0.4009 -0.1993
   74c3c     H1  679   5.488   0.141   3.206 -0.6999 -1.8895  1.9397
   74c3c     H1  680   5.623   0.098   3.300 -1.3702 -0.1907 -0.7884
   74c3c     H1  681   5.590   0.458   3.473 -0.1904 -0.2584 -0.1096
   74c3c     H1  682   5.674   0.308   3.485 -2.7294  0.1664  1.4014
   74c3c     HC  683   5.617   0.308   3.105 -0.6870  0.0785  0.2340
   74c3c     HC  684   5.752   0.232   3.182 -0.0989  1.5504 -2.2695
   74c3c     HC  685   5.653   0.484   3.240  0.7329  0.0305 -0.1125
   74c3c     HC  686   5.792   0.414   3.319  0.2939  0.0140 -1.1800
   74c3c     H1  687   5.321   0.285   3.297 -0.6618 -0.0944  2.0664
   74c3c     H1  688   5.329   0.406   3.403 -0.5334  0.7503 -0.7390
   74c3c     H1  689   5.423   0.419   3.244 -0.2085 -1.3896 -1.3698
   74c3c     H1  690   5.409   0.254   3.573 -0.4037 -1.1036  0.5227
   74c3c     H1  691   5.372   0.120   3.466  1.3838 -0.5938  0.2782
   74c3c     C2  692   5.555   0.097   3.573  0.3040  0.1339 -0.0930
   74c3c     HC  693   5.630   0.158   3.624  0.3798  0.7823 -0.9545
   74c3c     HC  694   5.598   0.025   3.503  0.3761  1.4483 -1.4247
   74c3c     CT  695   5.508   0.007   3.690  1.6351 -0.2309  0.3029
   74c3c     HC  696   5.594  -0.045   3.733  1.8931  2.7224  3.6121
   74c3c     HC  697   5.434  -0.062   3.652  2.8724 -0.1916 -2.3202
   74c3c     HC  698   5.455   0.067   3.764 -1.3898 -0.5592 -1.5475
   75c3c     N4  699   4.766   0.190   2.237  0.2372  0.4312 -0.2467
   75c3c     C1  700   4.744   0.287   2.131  0.2212 -0.1224 -0.0531
   75c3c     C1  701   4.709   0.069   2.177  0.1640  0.3542 -0.4369
   75c3c     C2  702   4.792   0.212   2.005 -0.1200  0.4672  0.0342
   75c3c     C2  703   4.767   0.061   2.036  0.0941 -0.2643  0.2828
   75c3c     C1  704   4.916   0.182   2.267  1.3336 -0.2279  0.3999
   75c3c     C1  705   4.693   0.231   2.357 -0.1462  0.1116 -0.2506
   75c3c     H1  706   4.787   0.385   2.148  1.2801 -0.4155 -1.0010
   75c3c     H1  707   4.639   0.315   2.127  0.8668  2.2599 -1.2309
   75c3c     H1  708   4.732  -0.020   2.234 -2.3862  0.6107  1.0551
   75c3c     H1  709   4.601   0.058   2.167  0.1522 -0.1199  0.1872
   75c3c     HC  710   4.899   0.228   1.991 -0.2111 -1.1792 -2.8719
   75c3c     HC  711   4.739   0.250   1.918  0.5238  1.3876  0.0397
   75c3c     HC  712   4.862   0.012   2.054  0.7951  1.0421  0.1602
   75c3c     HC  713   4.696   0.010   1.971  0.0536 -0.1137  0.2104
   75c3c     H1  714   4.954   0.284   2.272 -1.2431  0.7712  0.1848
   75c3c     H1  715   4.941   0.124   2.356 -1.1694 -1.6411  0.2314
   75c3c     H1  716   4.975   0.144   2.184  2.9464  1.1958  0.8691
   75c3c     H1  717   4.743   0.201   2.448  1.1340 -1.6082 -1.4989
   75c3c     H1  718   4.686   0.340   2.362 -0.3416  0.1993 -2.1440
   75c3c     C2  719   4.536   0.196   2.369  0.0561  0.6096  0.1789
   75c3c     HC  720   4.530   0.087   2.375 -0.0987  0.4494 -2.2671
   75c3c     HC  721   4.483   0.220   2.277  1.6086  0.5390 -0.7646
   75c3c     CT  722   4.465   0.255   2.495 -0.4492  0.5418 -0.5460
   75c3c     HC  723   4.453   0.363   2.489 -0.3915  0.7049  1.7886
   75c3c     HC  724   4.536   0.272   2.576 -1.2297  3.1740 -0.3488
   75c3c     HC  725   4.368   0.208   2.512  1.2868 -1.5454  4.4903
   76fsi    FSI  726   4.242   1.336   2.460  0.0731 -0.2763  0.0162
   76fsi    SBT  727   4.154   1.201   2.427  0.1749 -0.2663  0.2733
   76fsi    NBT  728   4.009   1.235   2.450  0.3093  0.3896 -0.4140
   76fsi    OBT  729   4.180   1.180   2.286  0.1864  0.4510  0.3106
   76fsi    OBT  730   4.209   1.104   2.518  0.5058  0.0384  0.8133
   76fsi    SBT  731   3.935   1.285   2.579 -0.1153  0.1825 -0.1491
   76fsi    OBT  732   4.016   1.320   2.690  0.3860 -0.0687 -0.3338
   76fsi    OBT  733   3.815   1.212   2.605  0.2974 -0.2311 -0.2701
   76fsi    FSI  734   3.886   1.421   2.521  0.2044  0.0947  0.1750
   77fsi    FSI  735   1.553   1.051   3.550  0.1304 -0.0041  0.0079
   77fsi    SBT  736   1.439   0.946   3.524  0.2267 -0.1420 -0.1009
   77fsi    NBT  737   1.499   0.805   3.566 -0.2786  0.6492  0.9728
   77fsi    OBT  738   1.338   0.989   3.620  0.1200  0.1052  0.7457
   77fsi    OBT  739   1.407   0.967   3.385  0.3746 -0.7773  0.2082
   77fsi    SBT  740   1.561   0.697   3.471 -0.1933 -0.1516 -0.0449
   77fsi    OBT  741   1.648   0.608   3.536  0.2683  0.0838 -0.6348
   77fsi    OBT  742   1.602   0.744   3.342  0.4532  0.0197 -0.1503
   77fsi    FSI  743   1.439   0.609   3.438 -0.7115 -0.6579  0.0918
   78fsi    FSI  744   3.665   5.472   2.014 -0.2124  0.7770  0.1211
   78fsi    SBT  745   3.686   5.493   2.165  0.0404  0.1337 -0.3898
   78fsi    NBT  746   3.821   5.423   2.194 -0.7235  1.0376 -0.6326
   78fsi    OBT  747   3.700   5.637   2.180  0.0396  0.4681 -0.2708
   78fsi    OBT  748   3.560   5.443   2.219 -0.7377  0.0514 -0.1335
   78fsi    SBT  749   3.853   5.295   2.282  0.3249  0.1657  0.4899
   78fsi    OBT  750   3.756   5.276   2.383  0.7495  0.6327  0.8427
   78fsi    OBT  751   3.993   5.281   2.319 -0.5613 -0.5889 -0.6678
   78fsi    FSI  752   3.820   5.171   2.179 -0.2810 -0.4223 -0.1339
   79fsi    FSI  753   1.234   0.650   3.671  0.7272 -0.1567  0.1827
   79fsi    SBT  754   1.096   0.614   3.601  0.0310  0.0626  0.4131
   79fsi    NBT  755   0.990   0.709   3.673 -0.1203 -0.2939  0.3944
   79fsi    OBT  756   1.118   0.651   3.464  0.0722  0.3636  0.0794
   79fsi    OBT  757   1.071   0.476   3.627  0.6230 -0.0011  0.2073
   79fsi    SBT  758   0.845   0.670   3.733 -0.0174 -0.4205  0.2054
   79fsi    OBT  759   0.804   0.537   3.706  0.6481 -0.2735 -0.4249
   79fsi    OBT  760   0.746   0.771   3.702 -1.2508 -0.1887 -0.3288
   79fsi    FSI  761   0.858   0.670   3.888  0.5944 -0.4963 -0.4462
   80fsi    FSI  762   4.152   0.337   2.439  0.6908  0.5227 -0.3594
   80fsi    SBT  763   4.101   0.295   2.300  0.0935  0.0187  0.0211
   80fsi    NBT  764   4.161   0.406   2.204 -0.0116 -0.5861  0.2124
   80fsi    OBT  765   4.159   0.162   2.278  0.4431  0.1707  0.1800
   80fsi    OBT  766   3.954   0.304   2.306  0.1349  0.0751  0.1010
   80fsi    SBT  767   4.085   0.515   2.123  0.6532 -0.1413 -0.0030
   80fsi    OBT  768   3.945   0.493   2.093 -0.3591  0.0673 -0.5381
   80fsi    OBT  769   4.164   0.554   2.014 -0.8635  0.2823 -0.1271
   80fsi    FSI  770   4.087   0.643   2.209  0.1943  0.3050  0.1909
   81fsi    FSI  771   1.152   0.324   2.427 -0.2750 -0.2052 -0.3087
   81fsi    SBT  772   1.229   0.244   2.533  0.4606 -0.3517  0.1084
   81fsi    NBT  773   1.189   0.097   2.495  0.6963 -0.1078 -0.3868
   81fsi    OBT  774   1.366   0.263   2.501 -0.8254 -0.9003 -0.1429
   81fsi    OBT  775   1.180   0.295   2.659  0.4841 -0.7205  0.5510
   81fsi    SBT  776   1.083  -0.007   2.548 -0.3113  0.3857  0.3038
   81fsi    OBT  777   1.063  -0.105   2.441 -0.6263  0.1239 -0.4306
   81fsi    OBT  778   0.975   0.057   2.617 -0.4549 -0.0275  0.0670
   81fsi    FSI  779   1.163  -0.085   2.653 -0.6455 -0.3694  0.2534
   82fsi    FSI  780   3.565   1.128   3.090 -0.1127 -0.5164 -0.0092
   82fsi    SBT  781   3.718   1.125   3.042  0.0362  0.0416 -0.3488
   82fsi    NBT  782   3.776   1.266   3.091  0.0471 -0.2637  0.5404
   82fsi    OBT  783   3.769   1.016   3.121 -0.0140 -0.4007 -0.1623
   82fsi    OBT  784   3.724   1.111   2.896  0.2036 -0.4895 -0.0184
   82fsi    SBT  785   3.782   1.319   3.236  0.0096 -0.1996 -0.4716
   82fsi    OBT  786   3.878   1.422   3.250  0.6334 -0.1401 -0.2596
   82fsi    OBT  787   3.777   1.221   3.342 -0.3803  0.0292  0.1745
   82fsi    FSI  788   3.642   1.393   3.254  0.6832 -0.0707 -0.1837
   83fsi    FSI  789   4.282   0.040   2.687  0.8489  0.0882  0.7065
   83fsi    SBT  790   4.420  -0.037   2.712 -0.6887  0.0414 -0.2492
   83fsi    NBT  791   4.453  -0.099   2.572  0.0775 -0.3847 -0.4306
   83fsi    OBT  792   4.521   0.058   2.737  0.1419 -0.4891 -0.3236
   83fsi    OBT  793   4.388  -0.129   2.819  0.2298  0.1054  0.4525
   83fsi    SBT  794   4.359  -0.184   2.478 -0.0950 -0.1272 -0.1617
   83fsi    OBT  795   4.312  -0.122   2.358  0.0628 -0.1052 -0.0940
   83fsi    OBT  796   4.264  -0.263   2.554  0.0184  0.4138  0.2886
   83fsi    FSI  797   4.457  -0.299   2.427 -0.2292 -0.2753  0.2429
   84fsi    FSI  798   2.693   4.735   3.452 -0.2739  0.3205  0.1441
   84fsi    SBT  799   2.651   4.816   3.320 -0.4606  0.0410  0.1167
   84fsi    NBT  800   2.531   4.911   3.359  0.4857 -0.2336 -0.2536
   84fsi    OBT  801   2.779   4.883   3.293 -0.0443 -0.7846 -0.4830
   84fsi    OBT  802   2.607   4.719   3.226 -0.0768 -0.4928 -0.5933
   84fsi    SBT  803   2.517   5.066   3.352  0.0615  0.3466 -0.0633
   84fsi    OBT  804   2.387   5.124   3.350 -0.5959 -0.2836 -0.0131
   84fsi    OBT  805   2.615   5.122   3.267  0.0133 -0.3198 -0.2252
   84fsi    FSI  806   2.565   5.102   3.498 -0.3716  0.0021 -0.1132
   85fsi    FSI  807   3.143   5.270   3.014 -0.2143  0.0248 -0.3362
   85fsi    SBT  808   3.065   5.404   2.981  0.3898 -0.0654 -0.3319
   85fsi    NBT  809   2.934   5.343   2.921 -0.3624  0.0388 -0.4889
   85fsi    OBT  810   3.038   5.467   3.107  0.1212  0.0494  0.3015
   85fsi    OBT  811   3.157   5.469   2.886 -0.0311 -0.1322 -0.5620
   85fsi    SBT  812   2.895   5.305   2.776  0.0235  0.2909 -0.1894
   85fsi    OBT  813   2.763   5.245   2.761 -0.6655  0.2095  0.0860
   85fsi    OBT  814   3.001   5.249   2.699  0.1167 -0.0688  0.0079
   85fsi    FSI  815   2.877   5.446   2.703  0.5777 -0.3982 -0.4118
   86fsi    FSI  816   0.620   1.265   2.773 -0.1221  0.1537 -0.0155
   86fsi    SBT  817   0.703   1.185   2.667  0.6944  0.0008  0.6206
   86fsi    NBT  818   0.780   1.301   2.595  0.0398 -0.9116  0.5178
   86fsi    OBT  819   0.794   1.101   2.738  0.0892 -0.1517  0.0298
   86fsi    OBT  820   0.607   1.116   2.581  0.1881  0.2093  0.1519
   86fsi    SBT  821   0.763   1.365   2.454  0.4629 -0.4216 -0.5098
   86fsi    OBT  822   0.683   1.294   2.359 -0.0572  0.0320  0.2127
   86fsi    OBT  823   0.891   1.400   2.404 -0.1536 -0.5663  0.3889
   86fsi    FSI  824   0.688   1.508   2.480 -0.3813 -0.1433 -0.2635
   87fsi    FSI  825   0.399   1.193   3.123  0.6111 -0.0634  0.1933
   87fsi    SBT  826   0.424   1.044   3.175 -0.4205 -0.3409  0.1426
   87fsi    NBT  827   0.569   1.015   3.115  0.1048 -0.0118  0.2534
   87fsi    OBT  828   0.416   1.053   3.320 -0.4943  0.4142  0.2547
   87fsi    OBT  829   0.321   0.971   3.105  0.4674 -0.8027 -0.2326
   87fsi    SBT  830   0.620   0.925   2.993  0.1305 -0.1464 -0.0759
   87fsi    OBT  831   0.764   0.929   2.980  0.1800  0.2956 -0.2822
   87fsi    OBT  832   0.548   0.934   2.865  0.1148  0.0516  0.0271
   87fsi    FSI  833   0.594   0.778   3.045 -0.0018  0.0992  0.3895
   88fsi    FSI  834   4.609   1.248   2.676  0.2978 -0.5727 -0.2081
   88fsi    SBT  835   4.554   1.114   2.720  0.0703 -0.0237 -0.0809
   88fsi    NBT  836   4.582   1.022   2.595  0.7202  0.2658  0.4962
   88fsi    OBT  837   4.623   1.090   2.846  0.2502  0.0822 -0.5263
   88fsi    OBT  838   4.413   1.133   2.729  0.4228 -0.0037 -0.0509
   88fsi    SBT  839   4.719   0.951   2.566  0.0273 -0.0182  0.2502
   88fsi    OBT  840   4.831   1.033   2.599 -0.1327  0.3531 -0.2960
   88fsi    OBT  841   4.722   0.883   2.443 -0.3115 -0.3968  0.3445
   88fsi    FSI  842   4.718   0.837   2.675 -0.3535 -0.0031 -0.1744
   89fsi    FSI  843   2.377   0.720   2.650 -0.8390 -0.0563  0.1533
   89fsi    SBT  844   2.383   0.767   2.501 -0.0922 -0.0649  0.0497
   89fsi    NBT  845   2.481   0.667   2.423  0.0204  0.2139  0.0928
   89fsi    OBT  846   2.252   0.754   2.451 -0.1546 -0.5434  0.4458
   89fsi    OBT  847   2.430   0.903   2.504 -0.3234  0.6385  0.2701
   89fsi    SBT  848   2.448   0.548   2.323  0.1722  0.1286 -0.1449
   89fsi    OBT  849   2.325   0.482   2.348 -0.4230  0.1611  0.2611
   89fsi    OBT  850   2.567   0.467   2.305  0.0464  0.2795  0.2241
   89fsi    FSI  851   2.421   0.618   2.181  0.3914 -0.1666 -0.0687
   90fsi    FSI  852   3.758   0.527   2.700  0.0276  0.5888  0.5245
   90fsi    SBT  853   3.888   0.564   2.631  0.3074 -0.0703 -0.1029
   90fsi    NBT  854   3.935   0.694   2.707  0.3980  0.1969 -0.2199
   90fsi    OBT  855   3.980   0.455   2.656  0.1498  0.2433 -0.1453
   90fsi    OBT  856   3.847   0.579   2.496 -0.6024 -0.0911 -0.7089
   90fsi    SBT  857   3.963   0.839   2.653  0.6007  0.1627  0.0900
   90fsi    OBT  858   4.073   0.907   2.716  0.5720  0.4439 -0.1873
   90fsi    OBT  859   3.839   0.909   2.635  0.4731  0.2347 -0.2356
   90fsi    FSI  860   4.017   0.810   2.506  0.0630 -0.2010 -0.2475
   91fsi    FSI  861   1.647   1.260   3.317  0.4586 -0.1611 -0.3430
   91fsi    SBT  862   1.632   1.185   3.180  0.6379 -0.0091  0.4262
   91fsi    NBT  863   1.766   1.218   3.107 -0.0155 -0.3621 -0.1706
   91fsi    OBT  864   1.624   1.041   3.215 -0.0703  0.2428  0.1858
   91fsi    OBT  865   1.510   1.247   3.124 -0.1410  0.2627  0.2229
   91fsi    SBT  866   1.799   1.328   2.999 -0.3008 -0.0406  0.0744
   91fsi    OBT  867   1.679   1.381   2.934  0.2747 -0.2010  0.0499
   91fsi    OBT  868   1.908   1.293   2.920  0.2683 -0.1102  0.6047
   91fsi    FSI  869   1.849   1.440   3.091  0.5734 -0.0586 -0.0456
   92fsi    FSI  870   5.090   0.668   2.124 -0.2615 -0.2783 -0.0900
   92fsi    SBT  871   5.064   0.547   2.212  0.4175 -0.0666  0.1219
   92fsi    NBT  872   5.175   0.572   2.322 -0.4144  0.2607 -0.6796
   92fsi    OBT  873   4.930   0.574   2.266  0.2168 -0.1576  0.3209
   92fsi    OBT  874   5.087   0.437   2.125  0.3659  0.0273  0.4425
   92fsi    SBT  875   5.292   0.483   2.373  0.4450  0.1989  0.3315
   92fsi    OBT  876   5.312   0.361   2.302 -0.0471  0.0098 -0.0163
   92fsi    OBT  877   5.292   0.479   2.518  0.1615 -0.2282  0.2181
   92fsi    FSI  878   5.417   0.570   2.337 -0.5081  0.8980 -0.4201
   93fsi    FSI  879   3.248   0.983   3.121 -0.2750 -0.2129  0.4378
   93fsi    SBT  880   3.220   0.864   3.020  0.3288 -0.1714  0.1954
   93fsi    NBT  881   3.331   0.872   2.911 -0.8985  0.3338  0.7487
   93fsi    OBT  882   3.244   0.741   3.095 -0.2775  0.1118 -0.0876
   93fsi    OBT  883   3.089   0.894   2.972  0.0073  0.5151 -0.1713
   93fsi    SBT  884   3.350   0.972   2.791 -0.1864 -0.4423  0.5448
   93fsi    OBT  885   3.252   0.970   2.690  1.1374 -0.4295  0.0709
   93fsi    OBT  886   3.487   0.977   2.745  0.7764 -0.1115 -0.4758
   93fsi    FSI  887   3.342   1.110   2.866  0.2284  0.2836  0.2024
   94fsi    FSI  888   3.425   0.811   3.579 -0.3069 -0.2028  0.6070
   94fsi    SBT  889   3.508   0.806   3.444  0.3163 -0.2802  0.3331
   94fsi    NBT  890   3.608   0.686   3.473  0.3577 -0.3893 -0.0916
   94fsi    OBT  891   3.407   0.789   3.345  0.0784 -0.1780  0.1203
   94fsi    OBT  892   3.580   0.935   3.447 -0.1594  0.0535  0.7823
   94fsi    SBT  893   3.582   0.538   3.440 -0.0946 -0.1964  0.0084
   94fsi    OBT  894   3.698   0.459   3.465 -0.3846  0.0833  0.6158
   94fsi    OBT  895   3.514   0.514   3.315 -0.7020  0.4487  0.8340
   94fsi    FSI  896   3.480   0.488   3.539  0.0724  0.4816  0.2309
   95fsi    FSI  897   1.171   1.432   2.568 -0.1203 -0.2780  0.1569
   95fsi    SBT  898   1.218   1.299   2.623 -0.3673  0.2515 -0.2714
   95fsi    NBT  899   1.106   1.271   2.726  1.0382 -0.2241  0.0417
   95fsi    OBT  900   1.198   1.204   2.520  0.1404  0.3852  0.6928
   95fsi    OBT  901   1.353   1.323   2.672  0.4150  0.0587  0.3070
   95fsi    SBT  902   1.102   1.283   2.880  0.1550  0.3957  0.1516
   95fsi    OBT  903   1.227   1.311   2.946  0.4746  0.1775 -0.5602
   95fsi    OBT  904   1.026   1.169   2.930  0.0665  0.4418  0.4102
   95fsi    FSI  905   1.006   1.401   2.906  0.5211 -0.2098  0.3793
   96fsi    FSI  906   2.543   0.983   3.022 -0.2313 -0.5178  0.2151
   96fsi    SBT  907   2.484   0.919   2.892  0.1423 -0.2212 -0.0666
   96fsi    NBT  908   2.519   1.021   2.774  0.8374 -0.1763  0.0376
   96fsi    OBT  909   2.564   0.800   2.880 -0.4837  0.1018  0.3740
   96fsi    OBT  910   2.344   0.894   2.927 -0.0569 -0.1417 -0.1983
   96fsi    SBT  911   2.452   1.156   2.738  0.1925  0.0061 -0.0909
   96fsi    OBT  912   2.315   1.162   2.784  0.1619  0.3589  0.0798
   96fsi    OBT  913   2.482   1.192   2.606  0.2869  0.9778  0.1302
   96fsi    FSI  914   2.529   1.266   2.835  0.2439  0.1558  0.5793
   97fsi    FSI  915   1.812   0.366   2.886 -0.4043 -0.3734  0.2263
   97fsi    SBT  916   1.967   0.392   2.849 -0.0449 -0.4083  0.4268
   97fsi    NBT  917   1.961   0.472   2.710 -0.2605 -0.0028  0.1996
   97fsi    OBT  918   2.000   0.484   2.960  0.0447 -0.0461  0.7198
   97fsi    OBT  919   2.022   0.260   2.835  0.1805  0.0711  0.1770
   97fsi    SBT  920   1.949   0.409   2.567  0.4932 -0.2000 -0.2436
   97fsi    OBT  921   1.976   0.268   2.560  0.2710 -0.3745 -0.4719
   97fsi    OBT  922   2.014   0.488   2.455 -0.1332 -0.1743 -0.1842
   97fsi    FSI  923   1.791   0.422   2.537  0.3675  0.0839 -0.4761
   98fsi    FSI  924   5.163   0.952   2.179 -0.2398  0.4858 -0.0503
   98fsi    SBT  925   5.053   0.968   2.281  0.0604 -0.0083 -0.0125
   98fsi    NBT  926   5.072   0.854   2.388 -0.4165 -0.0500 -0.0365
   98fsi    OBT  927   5.074   1.103   2.332  0.3258  0.0536  0.0257
   98fsi    OBT  928   4.933   0.946   2.195  0.0819  0.0156 -0.0711
   98fsi    SBT  929   5.147   0.845   2.521  0.0876 -0.3635 -0.0392
   98fsi    OBT  930   5.104   0.735   2.599  0.0627  0.2807 -0.0760
   98fsi    OBT  931   5.173   0.966   2.587  0.1981  0.5971  0.0051
   98fsi    FSI  932   5.291   0.804   2.476  0.0519  0.0801  0.2967
   99fsi    FSI  933   4.762   0.474   2.581 -0.0377 -0.0660 -0.5263
   99fsi    SBT  934   4.876   0.415   2.674  0.0414  0.0015  0.3321
   99fsi    NBT  935   4.911   0.524   2.782  0.1543 -0.4220 -0.4164
   99fsi    OBT  936   4.804   0.307   2.736  0.4622 -0.1090 -0.6749
   99fsi    OBT  937   4.981   0.380   2.581  0.0764  0.1987 -0.8290
   99fsi    SBT  938   4.841   0.548   2.919  0.0728  0.2194  0.4534
   99fsi    OBT  939   4.934   0.589   3.021 -0.5897  0.5973  0.4668
   99fsi    OBT  940   4.739   0.451   2.962  0.0332 -0.8027  0.3371
   99fsi    FSI  941   4.750   0.679   2.889 -0.8355  0.3917  0.3709
  100fsi    FSI  942   4.014   0.067   1.783 -0.4418  0.5088 -0.2226
  100fsi    SBT  943   4.056   0.123   1.929  0.0342  0.5796  0.0309
  100fsi    NBT  944   4.196   0.192   1.911 -0.8179 -0.7497  0.1366
  100fsi    OBT  945   3.956   0.219   1.957  0.2936 -0.8995 -0.1507
  100fsi    OBT  946   4.062   0.008   2.011  0.7187  0.3633  0.0312
  100fsi    SBT  947   4.335   0.142   1.957 -0.2878  0.5695  0.1312
  100fsi    OBT  948   4.335   0.032   2.059  0.0518 -0.6094 -0.3182
  100fsi    OBT  949   4.426   0.253   1.969  0.3564  0.1342  0.4933
  100fsi    FSI  950   4.381   0.065   1.822 -0.3229  0.4207 -0.0857
  101fsi    FSI  951   3.210   1.145   2.190  0.2944  0.0732 -0.2308
  101fsi    SBT  952   3.275   1.023   2.249 -0.0488 -0.0133 -0.2072
  101fsi    NBT  953   3.411   1.090   2.299 -0.3788 -0.2073  0.7338
  101fsi    OBT  954   3.187   0.989   2.354 -0.5915 -0.1448 -0.5357
  101fsi    OBT  955   3.289   0.937   2.137  0.0922  0.0461  0.1626
  101fsi    SBT  956   3.443   1.184   2.418 -0.0740  0.1720  0.0886
  101fsi    OBT  957   3.562   1.137   2.487 -0.1750 -0.4245 -0.1048
  101fsi    OBT  958   3.326   1.220   2.497 -0.4859  0.3443  0.4424
  101fsi    FSI  959   3.485   1.309   2.332 -0.4640 -0.4510 -0.2940
  102fsi    FSI  960   0.906   0.504   2.409  0.4997  0.0367  0.2113
  102fsi    SBT  961   0.767   0.442   2.462  0.0544  0.1433  0.4057
  102fsi    NBT  962   0.688   0.570   2.497  0.1036 -0.4387  0.4795
  102fsi    OBT  963   0.715   0.367   2.352  0.0777 -0.2461  0.0124
  102fsi    OBT  964   0.808   0.373   2.580  0.1175 -0.2847 -0.2466
  102fsi    SBT  965   0.651   0.626   2.636  0.1038 -0.0738  0.1772
  102fsi    OBT  966   0.577   0.750   2.619  0.1233 -0.4434 -0.4395
  102fsi    OBT  967   0.751   0.629   2.735 -0.5298 -0.5478  0.4729
  102fsi    FSI  968   0.551   0.523   2.693  0.2207 -0.2695  0.2307
  103fsi    FSI  969   2.468   5.043   2.276 -0.3816 -0.1261  0.5637
  103fsi    SBT  970   2.598   4.980   2.353 -0.1364 -0.6203 -0.5250
  103fsi    NBT  971   2.715   5.067   2.289 -0.4389 -0.6166 -0.7673
  103fsi    OBT  972   2.573   5.013   2.490 -0.0414  0.2466 -0.5354
  103fsi    OBT  973   2.601   4.840   2.317  0.1602  0.2066  0.0878
  103fsi    SBT  974   2.799   5.182   2.352  0.1984  0.0149  0.4118
  103fsi    OBT  975   2.933   5.143   2.369  0.0015 -0.7880 -0.5594
  103fsi    OBT  976   2.724   5.250   2.457 -0.0161  0.8180 -0.7250
  103fsi    FSI  977   2.793   5.285   2.234  0.1244  0.2820  0.2977
  104fsi    FSI  978   2.275   0.695   3.224 -0.3117  0.0430  0.2791
  104fsi    SBT  979   2.430   0.663   3.262 -0.3401 -0.2169 -0.0899
  104fsi    NBT  980   2.412   0.549   3.382  0.2974 -0.9264  0.7998
  104fsi    OBT  981   2.483   0.607   3.141  0.2927  0.3968 -0.3117
  104fsi    OBT  982   2.472   0.796   3.303 -0.1992 -0.3546 -0.0219
  104fsi    SBT  983   2.496   0.540   3.515 -0.3606 -0.0031  0.2098
  104fsi    OBT  984   2.584   0.653   3.546 -0.3586  0.1919 -0.0705
  104fsi    OBT  985   2.542   0.412   3.534  0.3533 -0.0833  0.1105
  104fsi    FSI  986   2.383   0.552   3.628 -0.0388 -0.0386 -0.2122
  105fsi    FSI  987   2.853   1.404   2.458  0.3961  0.2414  0.1953
  105fsi    SBT  988   2.834   1.252   2.481 -0.5295 -0.0705  0.4333
  105fsi    NBT  989   2.804   1.241   2.635  0.0073 -0.0687 -0.5169
  105fsi    OBT  990   2.719   1.222   2.402 -0.0779 -0.2002 -0.0480
  105fsi    OBT  991   2.963   1.196   2.435 -0.1131  0.5050  0.4565
  105fsi    SBT  992   2.909   1.203   2.750 -0.3403  0.3210 -0.3197
  105fsi    OBT  993   3.054   1.192   2.715 -0.0404 -0.2277  0.4039
  105fsi    OBT  994   2.859   1.096   2.831  0.5189 -0.4180  0.0266
  105fsi    FSI  995   2.907   1.327   2.846  0.0870  0.0888 -0.0735
  106fsi    FSI  996   1.787   0.862   2.225 -0.2059 -0.1423  0.2595
  106fsi    SBT  997   1.850   0.732   2.286  0.1281  0.2318  0.0876
  106fsi    NBT  998   1.840   0.636   2.168  0.7205 -0.2639  0.3694
  106fsi    OBT  999   1.986   0.767   2.317  0.1639  0.1816 -0.4628
  106fsi    OBT 1000   1.759   0.701   2.395 -0.6532 -0.4468 -0.0794
  106fsi    SBT 1001   1.950   0.582   2.069  0.2257  0.0750  0.0504
  106fsi    OBT 1002   1.908   0.467   1.992 -0.4935  0.1364 -0.2055
  106fsi    OBT 1003   2.081   0.585   2.122  0.3392 -0.0697 -0.6843
  106fsi    FSI 1004   1.957   0.702   1.958 -0.6431  0.2474 -0.1882
  107fsi    FSI 1005   4.791   0.685   1.837 -0.0576  0.4830  0.3839
  107fsi    SBT 1006   4.665   0.675   1.930 -0.6246 -0.1520 -0.1577
  107fsi    NBT 1007   4.563   0.768   1.861  0.3720  0.0014  0.1542
  107fsi    OBT 1008   4.634   0.535   1.930 -0.0949  0.3965  0.3937
  107fsi    OBT 1009   4.713   0.725   2.059 -0.2739  0.3541 -0.1551
  107fsi    SBT 1010   4.417   0.741   1.817 -0.2812  0.0755 -0.1775
  107fsi    OBT 1011   4.321   0.825   1.880 -0.4137  0.6080  0.3116
  107fsi    OBT 1012   4.387   0.602   1.809 -0.1642  0.3006  0.9089
  107fsi    FSI 1013   4.421   0.791   1.668 -0.2290 -0.0998  0.0992
  108fsi    FSI 1014   2.950   0.973   3.267  0.4029 -0.0254  0.2385
  108fsi    SBT 1015   2.811   0.916   3.214  0.1394 -0.4872  0.3660
  108fsi    NBT 1016   2.806   0.765   3.261 -0.2245 -0.2861  0.1044
  108fsi    OBT 1017   2.715   0.993   3.288  0.3954  0.1670 -0.0503
  108fsi    OBT 1018   2.813   0.933   3.073  0.2205  0.0527 -0.0923
  108fsi    SBT 1019   2.810   0.633   3.178 -0.0032  0.1732 -0.0345
  108fsi    OBT 1020   2.792   0.646   3.036  0.1639  0.1872 -0.4832
  108fsi    OBT 1021   2.741   0.526   3.240 -0.3207 -0.0730  0.4209
  108fsi    FSI 1022   2.967   0.594   3.185  0.3988  0.1005  0.1896
  109fsi    FSI 1023   4.104   0.885   3.118  0.3073 -0.0310 -0.1979
  109fsi    SBT 1024   4.152   0.743   3.094  0.2511  0.2238 -0.2934
  109fsi    NBT 1025   4.303   0.766   3.094  1.0776  0.1048 -0.6250
  109fsi    OBT 1026   4.109   0.673   3.205  0.1310 -0.1505 -0.2099
  109fsi    OBT 1027   4.094   0.714   2.969 -0.4001 -0.8261 -0.1462
  109fsi    SBT 1028   4.405   0.805   2.984 -0.4791 -0.1663 -0.0111
  109fsi    OBT 1029   4.523   0.864   3.039 -0.2839  0.7232  0.3941
  109fsi    OBT 1030   4.347   0.871   2.871 -0.1819  0.0300 -0.4297
  109fsi    FSI 1031   4.449   0.662   2.927  0.0956  0.1451 -0.4242
  110fsi    FSI 1032   2.267   0.884   3.754 -0.5735  0.0340  0.2105
  110fsi    SBT 1033   2.402   0.959   3.705 -0.3564  0.1342  0.3022
  110fsi    NBT 1034   2.506   0.900   3.810  0.5422 -0.0870 -0.4640
  110fsi    OBT 1035   2.415   0.916   3.566  0.2022  0.0998  0.6047
  110fsi    OBT 1036   2.358   1.095   3.722  0.1033 -1.0451 -0.5590
  110fsi    SBT 1037   2.661   0.881   3.793  0.5365 -0.5292 -0.4920
  110fsi    OBT 1038   2.710   0.900   3.660 -0.1831 -0.1097 -0.1515
  110fsi    OBT 1039   2.713   0.761   3.853  1.3719 -0.1061  0.7211
  110fsi    FSI 1040   2.722   1.001   3.880  0.2759  0.1909 -0.1370
  111fsi    FSI 1041   3.007   0.317   3.114 -0.3490 -0.1083 -0.2705
  111fsi    SBT 1042   3.144   0.299   3.195 -0.1020 -0.2538 -0.0033
  111fsi    NBT 1043   3.234   0.236   3.083  0.2039 -0.0000 -0.3167
  111fsi    OBT 1044   3.177   0.429   3.241 -0.6310 -0.1951  0.0492
  111fsi    OBT 1045   3.110   0.196   3.297 -0.3805 -0.5008  0.4118
  111fsi    SBT 1046   3.327   0.301   2.980  0.0931 -0.0628 -0.3314
  111fsi    OBT 1047   3.353   0.444   2.997 -0.1409  0.2192 -0.9177
  111fsi    OBT 1048   3.319   0.254   2.847 -0.2661 -0.4308  0.5899
  111fsi    FSI 1049   3.463   0.249   3.031 -0.7777 -0.4834 -0.4319
  112fsi    FSI 1050   0.572   0.106   3.590  0.5877  0.3859  0.0780
  112fsi    SBT 1051   0.538   0.223   3.494 -0.5653  0.0534  0.0691
  112fsi    NBT 1052   0.522   0.150   3.362 -0.5363 -0.3130 -0.0286
  112fsi    OBT 1053   0.410   0.270   3.540 -0.7178  0.4244 -0.0984
  112fsi    OBT 1054   0.658   0.305   3.496 -0.1484 -0.0921 -0.1187
  112fsi    SBT 1055   0.440   0.028   3.321 -0.0506 -0.1907 -0.3720
  112fsi    OBT 1056   0.406   0.028   3.182 -0.2749 -0.5239  0.9737
  112fsi    OBT 1057   0.330  -0.005   3.413 -0.2387 -0.6674 -0.0461
  112fsi    FSI 1058   0.537  -0.092   3.333 -0.1968 -0.7913 -0.6706
  113fsi    FSI 1059   3.109   5.042   3.446  0.4907 -0.3111 -0.5252
  113fsi    SBT 1060   3.068   5.141   3.323  0.1033  0.1428 -0.0442
  113fsi    NBT 1061   2.937   5.203   3.359 -0.2882 -0.0308 -0.7310
  113fsi    OBT 1062   3.182   5.222   3.320  0.3687  0.2677 -0.5706
  113fsi    OBT 1063   3.044   5.063   3.205  0.0001 -0.6289  0.5311
  113fsi    SBT 1064   2.905   5.342   3.433 -0.0359 -0.1384 -0.6527
  113fsi    OBT 1065   2.783   5.414   3.396 -0.7223 -0.6693  0.1260
  113fsi    OBT 1066   3.023   5.427   3.441  0.3562 -0.4798  0.4053
  113fsi    FSI 1067   2.868   5.304   3.582  0.4852 -0.3802 -0.2979
  114fsi    FSI 1068   0.013   0.306   2.656  0.2629  0.1780  0.5424
  114fsi    SBT 1069   0.052   0.213   2.533  0.3694  0.1182  0.1028
  114fsi    NBT 1070   0.137   0.295   2.433  0.2530 -0.1824  0.3656
  114fsi    OBT 1071   0.130   0.113   2.600  0.4534  0.1771 -0.1080
  114fsi    OBT 1072  -0.082   0.173   2.488  0.1089  0.6506 -0.4140
  114fsi    SBT 1073   0.285   0.279   2.384 -0.5760 -0.1231 -0.4354
  114fsi    OBT 1074   0.357   0.158   2.422  0.2770 -0.5910 -0.3800
  114fsi    OBT 1075   0.364   0.398   2.385  0.0145  0.3603  0.0274
  114fsi    FSI 1076   0.273   0.251   2.231 -0.5956  0.0042  0.4029
  115fsi    FSI 1077   5.372   0.359   2.985 -0.2816  0.3901  0.0170
  115fsi    SBT 1078   5.235   0.425   2.957 -0.6316 -0.2366  0.3595
  115fsi    NBT 1079   5.134   0.307   2.972 -0.3513 -0.4740 -0.2237
  115fsi    OBT 1080   5.223   0.524   3.057 -0.2308 -0.1805 -0.6883
  115fsi    OBT 1081   5.240   0.469   2.819 -0.8037 -0.7218  0.5093
  115fsi    SBT 1082   5.053   0.256   3.093  0.4837  0.0935 -0.3746
  115fsi    OBT 1083   4.939   0.177   3.041  0.4380  0.7035 -0.2305
  115fsi    OBT 1084   5.031   0.354   3.202 -0.0110 -0.6889  0.3208
  115fsi    FSI 1085   5.157   0.158   3.162  0.2774  0.8885 -0.2930
  116fsi    FSI 1086   0.328   1.316   2.665 -0.3813 -0.5274  0.2378
  116fsi    SBT 1087   0.246   1.184   2.648 -0.2710  0.2408  0.0197
  116fsi    NBT 1088   0.108   1.219   2.705  0.3132  0.4307 -0.1464
  116fsi    OBT 1089   0.250   1.172   2.506 -0.3494  0.2934  0.1415
  116fsi    OBT 1090   0.314   1.087   2.728 -0.4236  0.7490  0.1275
  116fsi    SBT 1091  -0.020   1.265   2.621  0.0887  0.3237  0.0837
  116fsi    OBT 1092  -0.138   1.271   2.701  0.0994  0.3303  0.0124
  116fsi    OBT 1093  -0.035   1.202   2.492 -0.3273  0.2260 -0.3915
  116fsi    FSI 1094   0.015   1.416   2.606 -0.1791  0.0335 -0.0087
  117fsi    FSI 1095   3.659   0.350   2.454 -0.5462  0.3389  0.1652
  117fsi    SBT 1096   3.611   0.221   2.541 -0.0716 -0.3099 -0.0101
  117fsi    NBT 1097   3.732   0.113   2.536  0.2869 -0.4085 -0.6987
  117fsi    OBT 1098   3.585   0.274   2.676 -0.0904  0.3391  0.1777
  117fsi    OBT 1099   3.505   0.171   2.462  0.9082  0.3381 -0.6268
  117fsi    SBT 1100   3.847   0.089   2.635  0.3177 -0.1085  0.1088
  117fsi    OBT 1101   3.909  -0.043   2.622  0.7346  0.3639  0.7004
  117fsi    OBT 1102   3.833   0.138   2.770 -0.2736  0.1489  0.0727
  117fsi    FSI 1103   3.965   0.180   2.580  0.1689  0.5025  0.3223
  118fsi    FSI 1104   4.490   0.624   2.619 -0.0918 -0.2572  0.1835
  118fsi    SBT 1105   4.356   0.677   2.540  0.0065  0.1691 -0.1483
  118fsi    NBT 1106   4.357   0.592   2.405  0.5487 -0.2045  0.4923
  118fsi    OBT 1107   4.245   0.637   2.625  0.4180 -0.2892 -0.0670
  118fsi    OBT 1108   4.381   0.817   2.525  0.2013 -0.3092  0.5219
  118fsi    SBT 1109   4.459   0.609   2.286 -0.1599  0.0926 -0.0641
  118fsi    OBT 1110   4.436   0.512   2.187  0.3114 -0.1528  0.2155
  118fsi    OBT 1111   4.593   0.644   2.319  0.5633  0.9722  0.9623
  118fsi    FSI 1112   4.399   0.742   2.224 -0.7484 -0.0281 -0.0663
  119fsi    FSI 1113   3.378   5.430   2.448 -0.8291 -0.0507 -0.4337
  119fsi    SBT 1114   3.358   5.311   2.542  0.1132  0.3599 -0.0427
  119fsi    NBT 1115   3.386   5.368   2.684  0.2724 -0.4078 -0.2072
  119fsi    OBT 1116   3.220   5.270   2.522  0.1286 -0.1299 -0.4285
  119fsi    OBT 1117   3.462   5.220   2.496 -0.0317  0.1424 -0.3772
  119fsi    SBT 1118   3.516   5.371   2.773 -0.1166 -0.2672  0.2448
  119fsi    OBT 1119   3.530   5.496   2.837 -0.0143  0.1582  0.7069
  119fsi    OBT 1120   3.633   5.317   2.715 -0.8102  0.3371 -0.0670
  119fsi    FSI 1121   3.481   5.273   2.885  0.4002  0.2060 -0.5969
  120fsi    FSI 1122   2.845   0.948   2.194  0.0551  0.0996 -0.2591
  120fsi    SBT 1123   2.740   0.883   2.286  0.1341 -0.0888 -0.1157
  120fsi    NBT 1124   2.781   0.921   2.434 -0.0358 -0.0653  0.8328
  120fsi    OBT 1125   2.620   0.950   2.252 -0.0981  0.1010 -0.7055
  120fsi    OBT 1126   2.741   0.739   2.254  0.1052 -0.4820 -0.5260
  120fsi    SBT 1127   2.851   0.836   2.538  0.0703 -0.3587 -0.7651
  120fsi    OBT 1128   2.920   0.721   2.494  0.3171  0.1503  0.1046
  120fsi    OBT 1129   2.780   0.814   2.660 -0.3076  0.1541 -0.1102
  120fsi    FSI 1130   2.964   0.925   2.600 -0.6025  0.1776 -0.1340
  121fsi    FSI 1131   4.606   5.088   3.162  0.2951  0.1050  0.4444
  121fsi    SBT 1132   4.547   5.148   3.031 -0.1266 -0.3267 -0.1923
  121fsi    NBT 1133   4.637   5.273   2.990 -0.3942 -0.1940 -0.0723
  121fsi    OBT 1134   4.552   5.045   2.930  0.0499 -0.4775  0.4501
  121fsi    OBT 1135   4.418   5.189   3.068 -0.1023 -0.1895 -0.3702
  121fsi    SBT 1136   4.648   5.415   3.049  0.0647 -0.4979 -0.2430
  121fsi    OBT 1137   4.539   5.449   3.144 -0.0855  0.6301  0.2715
  121fsi    OBT 1138   4.692   5.522   2.962 -0.7633 -0.0817 -0.3658
  121fsi    FSI 1139   4.768   5.395   3.156  0.3221  0.2535 -0.6189
  122fsi    FSI 1140   3.419   0.462   2.019  0.6067 -0.4366 -0.0462
  122fsi    SBT 1141   3.505   0.350   2.063  0.1418  0.2347  0.0368
  122fsi    NBT 1142   3.491   0.238   1.955 -0.0559 -0.3158  0.2602
  122fsi    OBT 1143   3.638   0.407   2.061  0.0377 -0.3206 -0.0677
  122fsi    OBT 1144   3.458   0.324   2.198 -0.1859 -0.1487 -0.1263
  122fsi    SBT 1145   3.388   0.122   1.944 -0.5938 -0.0103  0.0405
  122fsi    OBT 1146   3.342   0.072   2.071 -0.5714  0.5203 -0.1775
  122fsi    OBT 1147   3.414   0.026   1.841  0.7018  0.5183 -0.1704
  122fsi    FSI 1148   3.261   0.194   1.888  0.5514  0.3657  0.1429
  123fsi    FSI 1149   1.196   0.855   2.598  1.2010  0.2755  0.2513
  123fsi    SBT 1150   1.057   0.784   2.596  0.3311  0.3244 -0.3874
  123fsi    NBT 1151   1.027   0.774   2.448 -0.6245 -0.1468  0.4757
  123fsi    OBT 1152   1.087   0.662   2.651  0.7872  0.2333 -0.0201
  123fsi    OBT 1153   0.975   0.869   2.673 -0.2524  0.1749 -0.2318
  123fsi    SBT 1154   0.946   0.869   2.356 -0.2160  0.4075  0.2929
  123fsi    OBT 1155   0.976   0.842   2.219 -0.3124 -0.9209 -0.4402
  123fsi    OBT 1156   0.939   1.009   2.401  0.3617  0.6027  0.1121
  123fsi    FSI 1157   0.798   0.817   2.372 -0.3252 -0.1259  0.3646
  124fsi    FSI 1158   0.145   5.289   2.182  0.4868  0.6460  0.1293
  124fsi    SBT 1159   0.189   5.429   2.228 -0.4731  0.3189 -0.0320
  124fsi    NBT 1160   0.298   5.464   2.120 -0.0704  0.4142 -0.5542
  124fsi    OBT 1161   0.071   5.509   2.217  0.3396 -0.3682 -0.3600
  124fsi    OBT 1162   0.237   5.406   2.359 -0.3617  0.3979 -0.1247
  124fsi    SBT 1163   0.288   5.543   1.982 -0.4680  0.0193 -0.1132
  124fsi    OBT 1164   0.387   5.640   1.978 -0.3464 -0.4708  0.2902
  124fsi    OBT 1165   0.155   5.582   1.943  0.0917  0.2089  0.2096
  124fsi    FSI 1166   0.338   5.448   1.864  0.0450  0.3482  0.5299
  125fsi    FSI 1167   5.312   0.848   3.375 -0.2983  0.2963 -0.0903
  125fsi    SBT 1168   5.335   0.695   3.374 -0.3909 -0.0330  0.2635
  125fsi    NBT 1169   5.389   0.671   3.521  0.1156  0.7443 -0.1167
  125fsi    OBT 1170   5.210   0.630   3.348 -0.0004  0.2080 -0.1958
  125fsi    OBT 1171   5.436   0.675   3.275 -0.0046 -0.5273 -0.0627
  125fsi    SBT 1172   5.314   0.619   3.648 -0.0107 -0.0251 -0.1577
  125fsi    OBT 1173   5.370   0.640   3.779  0.2527  0.0742 -0.0802
  125fsi    OBT 1174   5.251   0.487   3.633  0.5000  0.0872  0.4043
  125fsi    FSI 1175   5.191   0.714   3.657 -0.9112  0.0808  0.3127
  126fsi    FSI 1176   1.106   1.301   1.956  0.2954  0.3188  0.0496
  126fsi    SBT 1177   1.047   1.181   2.039 -0.3715  0.4170 -0.4062
  126fsi    NBT 1178   0.896   1.225   2.044  0.2493 -1.1295  0.2568
  126fsi    OBT 1179   1.067   1.057   1.959  0.2212  0.4458 -0.2174
  126fsi    OBT 1180   1.109   1.193   2.164 -0.0543  0.0508  0.0703
  126fsi    SBT 1181   0.763   1.156   1.986 -0.2900 -0.3713  0.2373
  126fsi    OBT 1182   0.654   1.172   2.081  0.2595 -0.3139 -0.1138
  126fsi    OBT 1183   0.778   1.022   1.933 -0.0948  0.1539  0.0930
  126fsi    FSI 1184   0.735   1.245   1.856 -0.0883 -0.4637 -0.4637
  127fsi    FSI 1185   0.811   5.375   2.981 -0.2808  0.4859 -0.1526
  127fsi    SBT 1186   0.677   5.448   2.965  0.1832 -0.6053  0.2188
  127fsi    NBT 1187   0.693   5.506   2.817 -0.7546 -0.1745  0.1658
  127fsi    OBT 1188   0.578   5.342   2.984 -0.1346 -0.3766  0.1759
  127fsi    OBT 1189   0.693   5.546   3.071 -0.3939  0.2761  0.6166
  127fsi    SBT 1190   0.636   5.454   2.678 -0.2208 -0.0741 -0.9126
  127fsi    OBT 1191   0.659   5.547   2.576 -0.1117 -0.0788  0.7762
  127fsi    OBT 1192   0.502   5.407   2.682 -0.2336 -0.0214 -0.5083
  127fsi    FSI 1193   0.715   5.322   2.646 -0.3098  0.2962 -0.5179
  128fsi    FSI 1194   5.014   1.436   2.935 -0.4889  0.1450 -0.0932
  128fsi    SBT 1195   4.880   1.360   2.897  0.2033  0.5243 -0.0119
  128fsi    NBT 1196   4.851   1.266   3.025  0.2745 -0.1951  0.3347
  128fsi    OBT 1197   4.788   1.460   2.862  0.4684 -0.4464  0.0118
  128fsi    OBT 1198   4.919   1.275   2.787 -0.1472  0.2705 -0.7398
  128fsi    SBT 1199   4.757   1.286   3.146  0.1995  0.1382  0.4168
  128fsi    OBT 1200   4.700   1.160   3.183 -0.0445 -0.1235 -0.2087
  128fsi    OBT 1201   4.675   1.401   3.136  0.3844  0.3173 -0.0686
  128fsi    FSI 1202   4.857   1.312   3.263  0.3255 -0.7291  0.0245
  129fsi    FSI 1203   3.568   4.792   2.635  0.4200 -0.0983  0.5769
  129fsi    SBT 1204   3.553   4.866   2.499 -0.2507 -0.1250 -0.4521
  129fsi    NBT 1205   3.403   4.912   2.502 -0.3873  0.3524 -0.5472
  129fsi    OBT 1206   3.642   4.979   2.513 -0.0270 -0.5202  0.0014
  129fsi    OBT 1207   3.591   4.763   2.408  0.2332  0.5466  0.3144
  129fsi    SBT 1208   3.289   4.865   2.402  0.3393 -0.4452  0.0747
  129fsi    OBT 1209   3.330   4.823   2.269 -0.5822  0.0449 -0.1041
  129fsi    OBT 1210   3.171   4.947   2.410 -0.7715  0.2955 -0.4269
  129fsi    FSI 1211   3.239   4.739   2.466  0.0974  0.2518  0.5479
  130fsi    FSI 1212   5.345   0.020   1.912  0.0644 -0.4366 -0.1266
  130fsi    SBT 1213   5.223   0.079   1.987 -0.0250  0.3587  0.0626
  130fsi    NBT 1214   5.168  -0.050   2.059  0.1562  0.8777 -0.5834
  130fsi    OBT 1215   5.293   0.173   2.067  0.2938  0.3840 -0.1574
  130fsi    OBT 1216   5.140   0.125   1.884  0.4288  0.2333  0.0808
  130fsi    SBT 1217   5.184  -0.089   2.211 -0.2084  0.6153  0.1283
  130fsi    OBT 1218   5.071  -0.174   2.243 -0.2199 -0.1081  0.3392
  130fsi    OBT 1219   5.216   0.017   2.301 -0.0359  0.5012  0.0824
  130fsi    FSI 1220   5.313  -0.177   2.206  0.4605 -0.0362 -0.4242
  131fsi    FSI 1221   0.576   0.537   1.880 -0.0200  0.4277 -0.2705
  131fsi    SBT 1222   0.637   0.562   2.016 -0.1270 -0.2663  0.2684
  131fsi    NBT 1223   0.769   0.467   2.011 -0.1874  0.4503 -0.3959
  131fsi    OBT 1224   0.669   0.699   2.017  0.1424  0.1405 -0.7050
  131fsi    OBT 1225   0.531   0.513   2.100 -0.5960  0.2815 -0.6489
  131fsi    SBT 1226   0.911   0.491   1.951  0.1277  0.1965 -0.2038
  131fsi    OBT 1227   1.007   0.391   1.981 -0.3570  0.5764 -0.4925
  131fsi    OBT 1228   0.951   0.629   1.951  0.0222 -0.2611 -0.0568
  131fsi    FSI 1229   0.879   0.462   1.800 -0.0793  0.2684  0.3974
  132fsi    FSI 1230   1.529   0.357   2.754 -0.0413  0.1816 -0.4083
  132fsi    SBT 1231   1.467   0.497   2.776  0.1857 -0.1168 -0.3084
  132fsi    NBT 1232   1.409   0.478   2.920  1.0984  0.0636 -0.3111
  132fsi    OBT 1233   1.576   0.590   2.770  0.0990  0.0887 -0.7629
  132fsi    OBT 1234   1.363   0.506   2.681  0.1822 -0.0043  0.6577
  132fsi    SBT 1235   1.467   0.507   3.062 -0.1296 -0.3681  0.3059
  132fsi    OBT 1236   1.379   0.474   3.173  0.0845  0.1833 -0.0879
  132fsi    OBT 1237   1.530   0.633   3.083 -0.1868 -0.3820  0.2112
  132fsi    FSI 1238   1.588   0.408   3.073 -0.2004 -0.2708 -0.3721
  133fsi    FSI 1239   0.236   1.373   2.008 -0.0841 -0.4575 -0.8290
  133fsi    SBT 1240   0.231   1.255   2.106 -0.1244  0.1637  0.0430
  133fsi    NBT 1241   0.209   1.134   2.010  0.0887 -0.1023 -0.4398
  133fsi    OBT 1242   0.365   1.260   2.162 -0.0608  0.4335  0.1738
  133fsi    OBT 1243   0.126   1.293   2.199 -0.4961  0.4658  0.5031
  133fsi    SBT 1244   0.095   1.020   1.999 -0.3483  0.7137 -0.4699
  133fsi    OBT 1245   0.009   1.020   2.114  0.1341 -0.2684  0.2321
  133fsi    OBT 1246   0.156   0.896   1.962  0.2959  0.0835 -0.1887
  133fsi    FSI 1247   0.003   1.059   1.875  0.1921 -0.2650  0.2454
  134fsi    FSI 1248   3.912   0.458   2.955  0.6653  0.8522  0.1824
  134fsi    SBT 1249   3.815   0.436   3.069 -0.3399  0.0297 -0.3221
  134fsi    NBT 1250   3.702   0.541   3.031  0.3409  0.4359 -1.0090
  134fsi    OBT 1251   3.766   0.298   3.049  0.4932 -0.1187 -0.5681
  134fsi    OBT 1252   3.889   0.475   3.185 -0.2717 -0.1361  0.3460
  134fsi    SBT 1253   3.683   0.686   3.080 -0.0165  0.4318  0.3989
  134fsi    OBT 1254   3.742   0.725   3.202  0.1825 -0.0750  0.0636
  134fsi    OBT 1255   3.547   0.718   3.060 -0.0543 -0.2526 -0.0944
  134fsi    FSI 1256   3.747   0.778   2.975  0.4534 -0.6085  0.7765
  135fsi    FSI 1257   0.488   0.907   2.117 -0.5364 -0.4383 -0.0637
  135fsi    SBT 1258   0.459   0.877   2.270 -0.4994 -0.3298  0.0972
  135fsi    NBT 1259   0.308   0.903   2.282  0.5821  0.4841 -0.6237
  135fsi    OBT 1260   0.496   0.739   2.287 -0.7659 -0.4511  0.0323
  135fsi    OBT 1261   0.539   0.982   2.332 -0.2477  0.1460 -0.0509
  135fsi    SBT 1262   0.210   0.841   2.395  0.0186 -0.2143 -0.2013
  135fsi    OBT 1263   0.089   0.921   2.415 -0.0308  0.1055 -0.3599
  135fsi    OBT 1264   0.285   0.797   2.513 -0.1415  0.0335  0.2478
  135fsi    FSI 1265   0.161   0.700   2.327  0.7159 -0.1622  1.0104
  136fsi    FSI 1266   0.091   5.128   2.787 -0.6407  0.4977 -0.4337
  136fsi    SBT 1267   0.159   5.269   2.796 -0.2723 -0.1094 -0.1146
  136fsi    NBT 1268   0.039   5.367   2.828  0.3176  0.0030 -0.0950
  136fsi    OBT 1269   0.256   5.249   2.904 -0.4282  0.5048  0.3464
  136fsi    OBT 1270   0.214   5.299   2.666  0.4422  0.2852 -0.4960
  136fsi    SBT 1271   0.023   5.455   2.957 -0.5519  0.3606 -0.0313
  136fsi    OBT 1272   0.123   5.444   3.060 -0.0722 -0.5248  0.1866
  136fsi    OBT 1273  -0.113   5.450   3.001  0.1649 -0.4824  0.0137
  136fsi    FSI 1274   0.045   5.600   2.901 -0.3311 -0.1840  0.5002
  137fsi    FSI 1275   2.188   5.313   3.088 -0.1785 -0.0257 -0.3928
  137fsi    SBT 1276   2.077   5.415   3.040 -0.0317  0.1571 -0.2844
  137fsi    NBT 1277   2.018   5.458   3.181 -0.3457  0.0108  0.4536
  137fsi    OBT 1278   2.141   5.521   2.972 -0.0742  0.4211  0.6530
  137fsi    OBT 1279   1.985   5.324   2.968 -0.9256 -0.0556 -0.5400
  137fsi    SBT 1280   1.929   5.386   3.290  0.0584  0.3945  0.2515
  137fsi    OBT 1281   1.879   5.258   3.248 -0.3191 -0.4032  0.2328
  137fsi    OBT 1282   1.845   5.471   3.364 -0.1659  0.2201  0.3202
  137fsi    FSI 1283   2.044   5.359   3.403 -0.5273  0.1039  0.4529
  138fsi    FSI 1284   2.706   0.291   2.685  0.1609  0.0441 -0.0675
  138fsi    SBT 1285   2.645   0.433   2.681  0.4462  0.9115  0.0530
  138fsi    NBT 1286   2.493   0.389   2.653  0.0372  0.0442  1.0584
  138fsi    OBT 1287   2.678   0.489   2.815 -0.3308 -0.1041 -0.3601
  138fsi    OBT 1288   2.716   0.491   2.571  0.3666 -0.0772 -0.5091
  138fsi    SBT 1289   2.375   0.388   2.748 -0.1017 -0.2562 -0.1926
  138fsi    OBT 1290   2.406   0.470   2.863 -0.2201 -0.0430 -0.6125
  138fsi    OBT 1291   2.317   0.257   2.764  0.3604  0.4911 -0.0455
  138fsi    FSI 1292   2.269   0.473   2.660  0.5163  0.0232 -0.6046
  139fsi    FSI 1293   3.912   5.371   3.017  0.2286  0.1983 -0.1334
  139fsi    SBT 1294   4.004   5.262   2.969  0.0090  0.0113  0.1087
  139fsi    NBT 1295   3.916   5.135   2.935 -0.3974 -0.1234  0.0233
  139fsi    OBT 1296   4.062   5.324   2.850  0.9624  0.5861 -0.4354
  139fsi    OBT 1297   4.089   5.252   3.082  0.0976  0.1826 -0.2709
  139fsi    SBT 1298   3.860   5.073   2.804 -0.1779 -0.2896  0.0562
  139fsi    OBT 1299   3.905   5.137   2.684 -0.7398 -0.4935 -0.2198
  139fsi    OBT 1300   3.720   5.060   2.815 -0.1409 -0.1057  0.1985
  139fsi    FSI 1301   3.920   4.928   2.802 -0.3697  0.2550  0.0172
  140fsi    FSI 1302   0.589   0.483   2.979  0.6509  0.1107  1.1492
  140fsi    SBT 1303   0.478   0.434   3.076  0.0745 -0.3112 -0.0572
  140fsi    NBT 1304   0.450   0.293   3.003 -0.0284 -0.3055  0.0207
  140fsi    OBT 1305   0.546   0.415   3.202  0.5641 -0.8898 -0.2309
  140fsi    OBT 1306   0.381   0.539   3.061  0.7747  0.1725 -0.4075
  140fsi    SBT 1307   0.364   0.252   2.882 -0.0364 -0.3298 -0.0647
  140fsi    OBT 1308   0.245   0.332   2.864 -0.5196 -0.3005  0.5922
  140fsi    OBT 1309   0.351   0.106   2.873  0.1916 -0.1508 -0.7521
  140fsi    FSI 1310   0.449   0.279   2.758  0.0276  0.1367 -0.0570
  141fsi    FSI 1311   1.443   0.906   2.758 -0.3025  0.4072 -0.1606
  141fsi    SBT 1312   1.442   0.994   2.887  0.6556  0.2257  0.0639
  141fsi    NBT 1313   1.287   0.991   2.914 -0.1085  0.5908  0.1390
  141fsi    OBT 1314   1.528   0.926   2.973  0.5659 -0.1376 -0.5027
  141fsi    OBT 1315   1.486   1.123   2.839 -0.3886 -0.1852  0.0328
  141fsi    SBT 1316   1.218   0.877   2.998  0.1676  0.0365 -0.1199
  141fsi    OBT 1317   1.077   0.894   3.002 -0.1115  0.1628  0.0069
  141fsi    OBT 1318   1.284   0.838   3.123 -0.4790 -0.3911 -0.1226
  141fsi    FSI 1319   1.224   0.747   2.917  0.5383 -0.1646  0.2901
  142fsi    FSI 1320   3.523   5.328   3.243  0.4626 -0.1554  0.1099
  142fsi    SBT 1321   3.504   5.478   3.207  0.1207 -0.0933  0.4160
  142fsi    NBT 1322   3.538   5.556   3.330 -0.6549  0.0316 -0.0887
  142fsi    OBT 1323   3.608   5.505   3.107 -0.1259  1.0177  0.3122
  142fsi    OBT 1324   3.362   5.490   3.165  0.3749  0.5397 -0.2895
  142fsi    SBT 1325   3.441   5.607   3.447 -0.0860  0.2948 -0.2213
  142fsi    OBT 1326   3.512   5.633   3.568 -0.1289 -0.4205  0.0194
  142fsi    OBT 1327   3.320   5.529   3.450  0.3951  0.2473  0.0920
  142fsi    FSI 1328   3.398   5.747   3.394 -0.0085 -0.3065  0.2576
  143fsi    FSI 1329   2.940   0.199   2.201  0.3191 -0.2775 -0.4471
  143fsi    SBT 1330   3.008   0.316   2.288  0.4609 -0.3297 -0.2004
  143fsi    NBT 1331   3.030   0.250   2.431 -0.1519 -0.4184  0.1799
  143fsi    OBT 1332   3.129   0.343   2.214 -0.2763 -0.5071  0.1601
  143fsi    OBT 1333   2.908   0.416   2.294 -0.0178 -0.4907 -0.5806
  143fsi    SBT 1334   3.113   0.116   2.454 -0.0258 -0.2166 -0.0724
  143fsi    OBT 1335   3.178   0.116   2.582 -0.4961  0.6101  0.1989
  143fsi    OBT 1336   3.192   0.074   2.338 -0.0680 -0.1398  0.5575
  143fsi    FSI 1337   3.007   0.004   2.455  0.0689  0.4520  0.7058
  144fsi    FSI 1338   2.282   5.242   2.776 -0.0257  0.1482  0.7142
  144fsi    SBT 1339   2.322   5.344   2.665  0.0122  0.3222 -0.2797
  144fsi    NBT 1340   2.216   5.313   2.555 -0.1842 -0.1325 -0.2073
  144fsi    OBT 1341   2.313   5.471   2.727  0.2015  0.3469 -0.5142
  144fsi    OBT 1342   2.455   5.304   2.632  0.2457 -0.3038  0.0461
  144fsi    SBT 1343   2.062   5.353   2.545  0.0502  0.3901 -0.3636
  144fsi    OBT 1344   2.008   5.333   2.410  0.2553  0.3050  0.1893
  144fsi    OBT 1345   2.030   5.473   2.619  0.4324  0.4761 -0.4406
  144fsi    FSI 1346   1.994   5.230   2.626  0.1546 -0.2001 -0.2099
  145fsi    FSI 1347   4.265   0.329   2.742 -0.1322 -0.1777 -0.3481
  145fsi    SBT 1348   4.348   0.346   2.878 -0.2928 -0.5434  0.3988
  145fsi    NBT 1349   4.342   0.212   2.958 -0.2862  0.4137  0.4758
  145fsi    OBT 1350   4.484   0.365   2.828  0.3799  0.1883 -0.1414
  145fsi    OBT 1351   4.288   0.457   2.948 -0.0624 -0.4004  0.4869
  145fsi    SBT 1352   4.255   0.172   3.077  0.3484  0.1028  0.3292
  145fsi    OBT 1353   4.257   0.245   3.198  0.3465 -0.3945 -0.1008
  145fsi    OBT 1354   4.248   0.030   3.093  0.0645 -0.2680  0.0744
  145fsi    FSI 1355   4.108   0.205   3.025 -0.2866  0.7329 -0.0142
  146fsi    FSI 1356   4.952   0.906   3.368  0.2211 -0.1511  0.5878
  146fsi    SBT 1357   4.906   0.821   3.249 -0.0622 -0.3254  0.1241
  146fsi    NBT 1358   5.022   0.832   3.149 -0.5041 -0.1489  0.1259
  146fsi    OBT 1359   4.896   0.686   3.304  0.0520  0.4590 -0.0412
  146fsi    OBT 1360   4.782   0.886   3.218 -0.2105 -0.8816  0.0249
  146fsi    SBT 1361   5.035   0.906   3.014 -0.2168 -0.3561 -0.0396
  146fsi    OBT 1362   4.904   0.940   2.959 -0.1019  0.0065 -0.2244
  146fsi    OBT 1363   5.132   0.856   2.920 -0.8163  0.1912 -0.1316
  146fsi    FSI 1364   5.091   1.055   3.054  0.0627  0.5982 -0.0767
  147fsi    FSI 1365   0.973   0.198   2.988 -0.1797 -0.2199  0.6161
  147fsi    SBT 1366   0.905   0.331   2.962 -0.1242  0.2356  0.2464
  147fsi    NBT 1367   0.855   0.373   3.103  0.4167 -0.1090 -0.1182
  147fsi    OBT 1368   1.008   0.411   2.896 -0.2856  0.2151  0.1069
  147fsi    OBT 1369   0.791   0.287   2.881  0.2145  0.2367 -0.3337
  147fsi    SBT 1370   0.917   0.475   3.207 -0.3477  0.3651  0.4543
  147fsi    OBT 1371   1.061   0.476   3.197  0.4227 -0.6741 -0.0190
  147fsi    OBT 1372   0.860   0.466   3.340 -0.1828 -0.4666 -0.1229
  147fsi    FSI 1373   0.868   0.620   3.158 -0.0424 -0.1970  0.2464
  148fsi    FSI 1374   2.658   4.782   2.942 -0.1708  0.8246  0.0668
  148fsi    SBT 1375   2.718   4.918   2.885 -0.1612  0.1537  0.0289
  148fsi    NBT 1376   2.868   4.900   2.848 -0.6379  0.3047 -0.0925
  148fsi    OBT 1377   2.625   4.946   2.777 -0.2342 -0.1029 -0.2671
  148fsi    OBT 1378   2.715   5.006   3.005  0.2650  0.1024  0.0403
  148fsi    SBT 1379   2.929   4.903   2.703 -0.1167  0.7693 -0.1449
  148fsi    OBT 1380   3.067   4.932   2.711  0.5282  0.6011  0.2342
  148fsi    OBT 1381   2.862   4.973   2.603  0.2160 -0.0141  0.2510
  148fsi    FSI 1382   2.933   4.751   2.654 -0.1860 -0.3315 -0.0733
  149fsi    FSI 1383   1.270   0.065   3.434  0.6352  0.1731 -0.2325
  149fsi    SBT 1384   1.242   0.178   3.335 -0.3630 -0.0331  0.0128
  149fsi    NBT 1385   1.093   0.146   3.293  0.2498 -0.2157  0.4502
  149fsi    OBT 1386   1.255   0.302   3.408  0.0081 -0.0181  0.6305
  149fsi    OBT 1387   1.341   0.160   3.229  0.2517 -0.1574  0.1955
  149fsi    SBT 1388   0.966   0.137   3.390 -0.6214 -0.2262 -0.0876
  149fsi    OBT 1389   0.847   0.144   3.310  0.3050 -0.7440  0.0605
  149fsi    OBT 1390   0.974   0.208   3.514  0.3205 -0.8115  0.1558
  149fsi    FSI 1391   0.960  -0.011   3.433  0.5321 -0.3874 -0.5408
  150fsi    FSI 1392   4.072   0.514   3.711  0.4960 -0.6298 -0.0171
  150fsi    SBT 1393   4.146   0.576   3.578  0.1016 -0.2800  0.0280
  150fsi    NBT 1394   4.042   0.671   3.519 -0.4085  0.4442  0.3233
  150fsi    OBT 1395   4.263   0.633   3.636 -0.2982  0.6223 -0.5131
  150fsi    OBT 1396   4.153   0.463   3.495 -0.1198 -0.2675  0.8843
  150fsi    SBT 1397   4.025   0.826   3.521  0.1566 -0.0184  0.2254
  150fsi    OBT 1398   3.931   0.876   3.419 -0.3845  0.0349 -0.6613
  150fsi    OBT 1399   4.140   0.908   3.536  0.6521 -0.4197 -0.0172
  150fsi    FSI 1400   3.948   0.856   3.658  0.2680  0.1087  0.1414
   5.50647   5.50647   5.50647
