L2P1 short trajectory practice
 1400
    1Li+     Li    1   0.633   0.087   1.845 -0.4444  1.2654  0.2892
    2Li+     Li    2   3.712   1.418   3.154  0.2117 -0.8539 -0.3266
    3Li+     Li    3   0.374   0.630   3.190 -0.5211  0.0768 -0.6515
    4Li+     Li    4   0.538   5.453   2.195  0.5408 -0.5965  0.3306
    5Li+     Li    5   5.142   0.796   2.408 -0.7565 -0.8589  0.6720
    6Li+     Li    6   2.686   1.213   2.863 -0.4943 -0.4696  0.9429
    7Li+     Li    7   5.177   1.141   2.839 -0.5863 -0.7456 -0.3119
    8Li+     Li    8   4.074   5.382   2.797 -0.5068 -0.9678 -0.4493
    9Li+     Li    9   3.650   0.744   3.058  0.5229 -0.9078 -0.1067
   10Li+     Li   10   1.034   0.625   2.902 -0.6666  0.0969  0.6865
   11Li+     Li   11   0.632   0.367   2.383  0.5084 -0.2994  0.5023
   12Li+     Li   12   4.725   0.517   3.431 -0.2291 -0.9523  0.2297
   13Li+     Li   13   2.728   0.149   3.765  0.2934 -0.1810 -0.3200
   14Li+     Li   14   2.480   5.540   2.800 -0.5635 -0.2504 -1.2436
   15Li+     Li   15   1.256   0.212   2.792 -0.0168  0.1238 -0.5432
   16Li+     Li   16   0.624   0.266   2.859 -0.4103 -0.5058 -0.4835
   17Li+     Li   17   4.589   5.517   2.910  1.3850 -0.5262 -0.9032
   18Li+     Li   18   3.605   5.631   3.160 -0.2970 -0.8533 -0.9979
   19Li+     Li   19   3.023   0.338   3.782  0.0554 -0.1550 -0.2147
   20Li+     Li   20   4.439   0.033   2.332  0.4552 -0.1535 -0.1014
   21Li+     Li   21   2.995   0.172   2.929  0.5339  0.5335  0.0417
   22Li+     Li   22   5.074   1.200   2.141  0.7086  0.5777 -0.4937
   23Li+     Li   23   4.013   5.558   3.355 -0.8924  0.6672  0.6592
   24Li+     Li   24   0.993   0.418   2.169 -0.2689 -1.1236  0.8870
   25Li+     Li   25   2.574   0.571   2.860  0.1589 -0.6861  0.3677
   26Li+     Li   26   1.482   0.608   2.626 -0.4725 -0.2306 -0.0065
   27Li+     Li   27   4.348   0.943   2.111  0.1766  0.0835  0.0476
   28Li+     Li   28   0.080   0.214   3.350  0.0003 -1.0075  0.9855
   29Li+     Li   29   2.235   0.276   3.300 -0.3839 -0.2334  0.1034
   30Li+     Li   30   3.770   0.929   2.150  1.6336  0.2201 -0.3166
   31Li+     Li   31   4.491   0.122   3.326  0.1659  0.1878  0.9373
   32Li+     Li   32   0.878   0.109   3.123  0.1888  0.3771 -1.1926
   33Li+     Li   33   4.650   1.311   2.173  0.3398  1.0311  0.1246
   34Li+     Li   34   1.158   0.013   2.009  0.7512  0.0614  0.0691
   35Li+     Li   35   5.191   0.725   1.928 -0.4179 -0.1759  0.1722
   36Li+     Li   36   3.457   0.466   3.589  0.6908  0.5736 -0.4396
   37Li+     Li   37   0.287   0.428   1.887  0.9682 -0.3353  0.6572
   38Li+     Li   38   3.344   0.684   2.459 -0.1257  0.7150 -0.2524
   39Li+     Li   39   0.143   0.063   2.699 -0.8080  0.5920 -0.5210
   40Li+     Li   40   3.543   0.893   3.659  0.7894 -0.6724 -0.0014
   41Li+     Li   41   4.283   0.756   2.533  0.0517 -0.9343  0.3608
   42Li+     Li   42   3.908   0.470   3.349 -0.5983 -1.0502 -0.0035
   43Li+     Li   43   2.792   0.363   2.417 -0.6854 -0.4503 -0.5381
   44Li+     Li   44   2.912   5.291   3.877  0.3778 -0.7275  0.3766
   45Li+     Li   45   0.818   1.001   3.101 -0.3691 -0.4460 -0.1586
   46Li+     Li   46   2.785   0.884   2.697  0.5352 -0.8182  0.2779
   47Li+     Li   47   0.444   5.542   3.083 -0.1654  0.4506  0.1293
   48Li+     Li   48   4.749   0.743   2.913  0.0060 -1.0297  0.4606
   49Li+     Li   49   4.089   1.164   2.843 -0.6218  0.0151 -0.6498
   50Li+     Li   50   1.535   0.600   2.061 -0.3688 -0.2418 -0.1767
   51c3c     N4   51   5.601   0.493   2.450  0.1099 -0.3687 -0.2145
   51c3c     C1   52   5.672   0.426   2.340  0.2733  0.3065 -0.2265
   51c3c     C1   53   5.466   0.461   2.411  0.9748  0.4063 -0.7985
   51c3c     C2   54   5.600   0.295   2.309 -0.1074  0.3612 -0.5069
   51c3c     C2   55   5.453   0.330   2.338 -0.1040  0.0572 -0.3166
   51c3c     C1   56   5.629   0.429   2.579  0.0721  0.5601 -0.2739
   51c3c     C1   57   5.620   0.642   2.471 -0.0740 -0.6151 -0.1715
   51c3c     H1   58   5.774   0.415   2.377  0.5434 -0.5691 -1.2055
   51c3c     H1   59   5.672   0.498   2.258  2.5260  1.8587  1.0875
   51c3c     H1   60   5.391   0.476   2.490  1.1849 -1.7430 -0.1684
   51c3c     H1   61   5.429   0.534   2.339 -1.1041  0.2013  0.0268
   51c3c     HC   62   5.623   0.219   2.384 -1.1020 -0.1880 -0.7384
   51c3c     HC   63   5.613   0.258   2.207 -1.7568 -0.8020 -0.3112
   51c3c     HC   64   5.402   0.250   2.391 -1.0123  0.6933 -0.2143
   51c3c     HC   65   5.404   0.342   2.242  0.7506  1.8934 -0.5376
   51c3c     H1   66   5.733   0.446   2.606  0.2368 -1.1751  0.2238
   51c3c     H1   67   5.560   0.474   2.650 -0.0321 -1.2999  0.8532
   51c3c     H1   68   5.613   0.321   2.575 -1.1892  0.7331 -0.2367
   51c3c     H1   69   5.553   0.686   2.545 -1.4216 -2.0374 -0.5080
   51c3c     H1   70   5.721   0.660   2.506 -0.7861 -0.4701  1.9060
   51c3c     C2   71   5.592   0.728   2.343 -0.4347 -0.2054  0.2185
   51c3c     HC   72   5.484   0.732   2.326 -0.1796  0.8045 -1.1985
   51c3c     HC   73   5.640   0.696   2.251 -0.1562  0.1547  0.2379
   51c3c     CT   74   5.638   0.878   2.355 -0.2983  0.1259 -0.4681
   51c3c     HC   75   5.592   0.941   2.278  1.1790  0.0861 -1.4131
   51c3c     HC   76   5.745   0.896   2.358 -0.5678  1.6241  1.6762
   51c3c     HC   77   5.598   0.924   2.445  2.1394  0.6872  0.3710
   52c3c     N4   78   3.936   0.365   1.964  0.2857  0.7269 -0.3766
   52c3c     C1   79   3.897   0.250   1.874 -0.6469 -0.0820  0.0491
   52c3c     C1   80   4.066   0.405   1.906  0.8679 -0.0183  0.2615
   52c3c     C2   81   3.937   0.296   1.734 -0.3027  0.4193  0.0959
   52c3c     C2   82   4.059   0.380   1.754 -0.2861 -0.0775  0.3733
   52c3c     C1   83   3.840   0.474   1.949  0.5836 -0.1827  0.1204
   52c3c     C1   84   3.939   0.334   2.112  0.2299 -0.0653  0.2389
   52c3c     H1   85   3.790   0.234   1.881 -0.5388 -0.4183  1.1026
   52c3c     H1   86   3.946   0.157   1.901 -1.7217 -0.5424  0.4047
   52c3c     H1   87   4.098   0.506   1.932 -1.3059  1.2322 -1.6609
   52c3c     H1   88   4.147   0.344   1.945  1.4113  0.0026 -0.8221
   52c3c     HC   89   3.861   0.357   1.685 -0.3394  1.3623  1.3054
   52c3c     HC   90   3.972   0.209   1.678 -1.5745 -0.0133 -0.0416
   52c3c     HC   91   4.048   0.472   1.698 -2.2816  0.2233  1.2082
   52c3c     HC   92   4.154   0.339   1.720  0.6711  2.0407  0.4325
   52c3c     H1   93   3.740   0.436   1.970  0.1199  2.0648  2.2106
   52c3c     H1   94   3.862   0.565   2.006 -1.3092 -0.3654  1.1634
   52c3c     H1   95   3.832   0.517   1.850  1.6177 -2.3081 -0.9257
   52c3c     H1   96   3.978   0.423   2.163 -1.7100  0.9673 -0.0383
   52c3c     H1   97   3.838   0.311   2.145 -0.3733 -0.5277 -1.8660
   52c3c     C2   98   4.018   0.208   2.152  0.6508  0.9344 -0.1694
   52c3c     HC   99   4.123   0.217   2.121  1.0175 -0.7927  0.4920
   52c3c     HC  100   3.984   0.121   2.095  1.4411  1.0389 -0.8261
   52c3c     CT  101   4.010   0.185   2.302 -0.2805 -0.3736  0.2764
   52c3c     HC  102   3.904   0.169   2.321 -0.1842  1.2516  2.2908
   52c3c     HC  103   4.036   0.278   2.353  1.1790 -0.1843 -0.7547
   52c3c     HC  104   4.063   0.097   2.336 -2.5060 -1.8112  0.0957
   53c3c     N4  105   5.169   0.256   3.047  0.8665 -0.0482  0.8821
   53c3c     C1  106   5.320   0.237   3.051  0.6489  0.6019  0.0993
   53c3c     C1  107   5.122   0.298   3.179  0.9206 -0.5134 -0.2125
   53c3c     C2  108   5.359   0.353   3.135  0.0362  0.0206 -0.7764
   53c3c     C2  109   5.240   0.371   3.230 -0.7640 -0.3558 -0.1293
   53c3c     C1  110   5.134   0.366   2.950 -0.2221  0.5881 -0.2481
   53c3c     C1  111   5.103   0.140   2.984 -0.7875  0.2396 -0.5426
   53c3c     H1  112   5.366   0.231   2.953  2.2542  1.6559  0.7760
   53c3c     H1  113   5.344   0.141   3.096 -2.1349 -0.0958  0.2220
   53c3c     H1  114   5.035   0.364   3.184 -0.1968 -1.7977 -1.8118
   53c3c     H1  115   5.105   0.218   3.251  1.4789 -0.4435 -0.0020
   53c3c     HC  116   5.379   0.449   3.087 -0.0659 -0.4214 -1.7217
   53c3c     HC  117   5.456   0.332   3.179 -0.4704 -0.9420 -0.1045
   53c3c     HC  118   5.214   0.475   3.253 -1.8482 -0.6149 -0.1698
   53c3c     HC  119   5.270   0.329   3.326 -0.2122  0.8426  0.2413
   53c3c     H1  120   5.163   0.349   2.846 -0.3759 -1.0469 -0.0328
   53c3c     H1  121   5.029   0.394   2.942 -0.3700 -0.2745 -1.5317
   53c3c     H1  122   5.198   0.453   2.966  1.2290 -0.2303 -1.5265
   53c3c     H1  123   4.997   0.160   2.971 -0.5798  1.5360 -0.2597
   53c3c     H1  124   5.144   0.129   2.883 -0.9904  2.1370 -0.8562
   53c3c     C2  125   5.109   0.001   3.064 -0.2544 -1.3153  0.1132
   53c3c     HC  126   5.076   0.014   3.168  0.5312 -0.6437  0.2816
   53c3c     HC  127   5.214  -0.025   3.077  0.6681  0.9884 -2.3151
   53c3c     CT  128   5.038  -0.121   2.985 -0.4854  0.3853 -0.0758
   53c3c     HC  129   5.043  -0.214   3.042 -2.1989 -1.1766 -2.3930
   53c3c     HC  130   5.078  -0.144   2.886 -0.5122 -3.7242  0.7626
   53c3c     HC  131   4.930  -0.107   2.978 -0.4769 -0.4337 -2.3791
   54c3c     N4  132   3.147   1.311   3.333 -0.1823 -0.0153 -0.5696
   54c3c     C1  133   3.085   1.202   3.408  0.3331  1.1540  0.1085
   54c3c     C1  134   3.031   1.354   3.251  0.2851  0.1193 -0.0722
   54c3c     C2  135   2.937   1.234   3.441 -0.5275  0.3189  0.4449
   54c3c     C2  136   2.903   1.339   3.333  0.1531 -0.7852  0.5064
   54c3c     C1  137   3.167   1.431   3.419  0.1017 -0.1446 -0.1885
   54c3c     C1  138   3.277   1.270   3.272 -0.5336 -0.1740  0.3243
   54c3c     H1  139   3.145   1.189   3.498  0.3420 -0.1655 -0.0671
   54c3c     H1  140   3.086   1.109   3.350 -1.0800  1.5859 -0.6182
   54c3c     H1  141   3.044   1.444   3.190 -1.5079 -0.7147 -1.7536
   54c3c     H1  142   3.027   1.277   3.174 -3.7915  0.2762 -0.1102
   54c3c     HC  143   2.929   1.275   3.541 -3.9691 -1.8993  1.1758
   54c3c     HC  144   2.864   1.153   3.434  0.1290 -0.1229 -2.0018
   54c3c     HC  145   2.874   1.432   3.383 -1.1145 -1.4934  1.1227
   54c3c     HC  146   2.821   1.305   3.270  0.3445 -1.6279  0.7152
   54c3c     H1  147   3.232   1.402   3.502  2.3056  1.9558 -1.1698
   54c3c     H1  148   3.207   1.512   3.359 -1.0451  0.2222 -0.4752
   54c3c     H1  149   3.074   1.465   3.465 -0.1178  1.6084 -1.9052
   54c3c     H1  150   3.311   1.357   3.215  1.5295 -2.5634 -2.2429
   54c3c     H1  151   3.350   1.250   3.350 -1.4525 -0.7099  1.0563
   54c3c     C2  152   3.274   1.149   3.177  0.1327 -0.1155  0.0622
   54c3c     HC  153   3.198   1.185   3.107 -0.3608  0.3037  0.8003
   54c3c     HC  154   3.233   1.057   3.220 -3.1728  1.5830  0.7229
   54c3c     CT  155   3.411   1.129   3.101 -0.5973  0.2134  0.1204
   54c3c     HC  156   3.489   1.104   3.172 -0.2283  2.2500  0.4704
   54c3c     HC  157   3.420   1.223   3.047 -1.5432 -1.4872 -3.1654
   54c3c     HC  158   3.404   1.042   3.035 -0.6616  0.5853 -0.3669
   55c3c     N4  159   1.868   5.591   3.117 -0.0937 -0.1743 -0.1227
   55c3c     C1  160   1.842   5.478   3.024 -0.2697 -0.1056 -0.1118
   55c3c     C1  161   2.010   5.630   3.098 -0.5123 -0.0844 -0.9481
   55c3c     C2  162   1.910   5.520   2.899 -0.0597 -0.4686  0.0485
   55c3c     C2  163   2.021   5.622   2.943 -0.3473  0.5543  1.0583
   55c3c     C1  164   1.788   5.713   3.084 -0.6501  0.3738 -0.1620
   55c3c     C1  165   1.843   5.554   3.258  0.7146 -0.3902 -0.2023
   55c3c     H1  166   1.735   5.464   3.009  0.0001  0.3287 -2.5278
   55c3c     H1  167   1.873   5.377   3.052 -0.4246 -1.1388 -3.5272
   55c3c     H1  168   2.027   5.734   3.123  0.7474 -0.3445 -0.7102
   55c3c     H1  169   2.086   5.565   3.140 -1.0503  0.6155  1.1680
   55c3c     HC  170   1.847   5.564   2.822  0.4553  1.6898  0.8254
   55c3c     HC  171   1.952   5.430   2.854 -1.2666 -1.3794  0.7240
   55c3c     HC  172   2.000   5.718   2.896  1.1971  1.1818  1.6027
   55c3c     HC  173   2.122   5.594   2.913 -0.1242  2.5835 -0.1294
   55c3c     H1  174   1.687   5.680   3.109  0.1202 -0.4176  2.0445
   55c3c     H1  175   1.807   5.795   3.153  1.7134 -1.0380  0.9249
   55c3c     H1  176   1.789   5.753   2.983  1.1081  0.8062  0.0266
   55c3c     H1  177   1.830   5.646   3.316 -0.4808 -0.3902 -0.4535
   55c3c     H1  178   1.741   5.517   3.263  0.1381  1.0652 -1.0130
   55c3c     C2  179   1.950   5.479   3.338 -0.1430  0.4046 -0.2320
   55c3c     HC  180   2.036   5.545   3.352 -1.8528  2.4312  0.9749
   55c3c     HC  181   1.972   5.386   3.285 -0.4988  0.8387 -1.1541
   55c3c     CT  182   1.891   5.427   3.468 -0.0210 -0.3651 -0.5996
   55c3c     HC  183   1.810   5.357   3.446 -0.0746  0.1527 -2.0559
   55c3c     HC  184   1.862   5.497   3.546  2.0340 -1.0669  0.8402
   55c3c     HC  185   1.961   5.371   3.530 -0.7274 -1.0636 -0.4270
   56c3c     N4  186   2.695   0.621   3.405  0.6855  0.0465 -0.2715
   56c3c     C1  187   2.802   0.720   3.410  0.0689 -0.1228  0.0409
   56c3c     C1  188   2.672   0.608   3.263  0.9361 -0.5687 -0.0366
   56c3c     C2  189   2.895   0.699   3.285 -0.2985 -0.1476 -0.1615
   56c3c     C2  190   2.808   0.610   3.191 -0.2138  1.1448 -0.1059
   56c3c     C1  191   2.750   0.493   3.459  0.1686 -0.9755  0.4801
   56c3c     C1  192   2.574   0.649   3.484  0.1998 -0.0198 -0.8496
   56c3c     H1  193   2.848   0.708   3.508 -1.1213 -2.4200  0.3591
   56c3c     H1  194   2.779   0.827   3.408  0.3947 -0.0567 -0.0769
   56c3c     H1  195   2.609   0.522   3.242 -0.0384  0.4901 -1.6051
   56c3c     H1  196   2.626   0.695   3.215 -0.7382 -1.8859 -0.8856
   56c3c     HC  197   2.995   0.667   3.314 -0.1124  0.9297  0.4224
   56c3c     HC  198   2.910   0.793   3.232 -0.4135 -0.0560 -0.0323
   56c3c     HC  199   2.860   0.515   3.185 -1.2301  0.6457 -0.9422
   56c3c     HC  200   2.799   0.641   3.087 -0.2647 -0.3058 -0.5379
   56c3c     H1  201   2.789   0.502   3.560 -0.4899 -0.7637  0.7200
   56c3c     H1  202   2.676   0.414   3.445 -0.9724  0.4773 -2.1364
   56c3c     H1  203   2.846   0.466   3.414  1.1163  0.9203  1.3143
   56c3c     H1  204   2.515   0.558   3.473  1.5522 -0.8565 -1.2559
   56c3c     H1  205   2.610   0.652   3.587  0.2567  2.5015 -0.9042
   56c3c     C2  206   2.495   0.778   3.450  0.1168 -0.1162 -0.7148
   56c3c     HC  207   2.454   0.764   3.349  0.8815 -1.2830 -0.8754
   56c3c     HC  208   2.548   0.873   3.458  1.1734 -0.8153  0.6883
   56c3c     CT  209   2.376   0.801   3.542 -0.1167 -0.7153  0.5022
   56c3c     HC  210   2.333   0.703   3.562 -0.2993 -0.8848 -0.6960
   56c3c     HC  211   2.292   0.864   3.513  1.6357  2.1506  1.4041
   56c3c     HC  212   2.415   0.839   3.636  0.1379 -0.1210  0.1598
   57c3c     N4  213   4.263   1.163   3.421 -0.2901 -0.4462  0.5865
   57c3c     C1  214   4.155   1.199   3.327 -0.1976  0.6160  0.0344
   57c3c     C1  215   4.202   1.052   3.485  0.0990 -0.4340 -0.5239
   57c3c     C2  216   4.101   1.069   3.269  0.2176 -0.7888  1.1197
   57c3c     C2  217   4.118   0.975   3.379  0.5839  0.1269  0.1743
   57c3c     C1  218   4.383   1.116   3.350 -0.2971  0.1079 -0.0945
   57c3c     C1  219   4.295   1.274   3.517  0.5252  0.0163  0.0288
   57c3c     H1  220   4.199   1.259   3.248  1.1851  1.1422  1.1872
   57c3c     H1  221   4.070   1.261   3.358  0.9481  1.2800  1.9165
   57c3c     H1  222   4.273   0.981   3.527  1.0455  1.0667  0.4351
   57c3c     H1  223   4.134   1.073   3.567 -0.5799  0.3751 -1.2854
   57c3c     HC  224   4.155   1.048   3.177 -0.3293  2.1958  0.0517
   57c3c     HC  225   3.995   1.091   3.255  0.4566  0.1230  0.7123
   57c3c     HC  226   4.164   0.883   3.343 -1.1268  0.5761 -3.3184
   57c3c     HC  227   4.021   0.948   3.421  1.5014 -2.3008  0.8466
   57c3c     H1  228   4.428   1.196   3.291 -2.0204  0.3788 -1.0762
   57c3c     H1  229   4.460   1.083   3.420 -1.1756 -0.4440  0.6330
   57c3c     H1  230   4.364   1.034   3.280 -0.5889  0.4316 -0.3981
   57c3c     H1  231   4.370   1.239   3.588  0.8817  2.3694  0.8797
   57c3c     H1  232   4.338   1.355   3.458  1.5491 -0.2784  0.3573
   57c3c     C2  233   4.178   1.343   3.602 -0.3161 -0.2091  0.1215
   57c3c     HC  234   4.127   1.268   3.663 -0.0694 -1.3830 -1.0753
   57c3c     HC  235   4.100   1.385   3.538  0.1304  2.6248  1.3661
   57c3c     CT  236   4.216   1.462   3.683 -0.3653 -0.6688  0.0313
   57c3c     HC  237   4.274   1.443   3.774 -0.5620  0.1818  0.3397
   57c3c     HC  238   4.132   1.527   3.708  0.5170  0.0904  1.0996
   57c3c     HC  239   4.274   1.528   3.618 -0.3092  0.0993  0.8483
   58c3c     N4  240   1.948   0.278   2.478 -0.4172 -0.2363 -0.3992
   58c3c     C1  241   2.059   0.293   2.384 -0.4514 -0.8584  0.3576
   58c3c     C1  242   1.828   0.308   2.396  0.2036 -0.3164 -0.3371
   58c3c     C2  243   2.012   0.240   2.248 -0.0520 -0.3412 -1.4155
   58c3c     C2  244   1.854   0.262   2.253 -0.0131 -0.4594 -0.7963
   58c3c     C1  245   1.947   0.139   2.533 -0.4057  0.0135  0.0358
   58c3c     C1  246   1.945   0.362   2.600  0.9863 -0.6248 -0.1310
   58c3c     H1  247   2.150   0.238   2.408  0.0056 -0.1882  0.1872
   58c3c     H1  248   2.079   0.397   2.360 -0.9094 -1.1978 -1.6273
   58c3c     H1  249   1.745   0.262   2.451 -0.3212 -0.6926 -1.4194
   58c3c     H1  250   1.802   0.414   2.394  2.2287  0.2269  0.6862
   58c3c     HC  251   2.039   0.135   2.236 -0.4801 -0.4267 -1.6242
   58c3c     HC  252   2.052   0.295   2.163 -1.2978 -1.0697 -2.4968
   58c3c     HC  253   1.819   0.162   2.229 -0.3297 -0.5163 -0.0956
   58c3c     HC  254   1.831   0.335   2.174 -2.7228  0.5281  0.8030
   58c3c     H1  255   2.026   0.115   2.605  1.1519  0.5313 -1.4780
   58c3c     H1  256   1.855   0.119   2.588  0.0683  0.2182  0.9084
   58c3c     H1  257   1.949   0.064   2.453  4.4735  0.2675 -0.2614
   58c3c     H1  258   1.861   0.334   2.664  0.8875 -0.2922 -0.1156
   58c3c     H1  259   2.039   0.337   2.650  0.5819  1.2229  1.6539
   58c3c     C2  260   1.938   0.519   2.574  0.3004 -0.3578 -0.1650
   58c3c     HC  261   1.843   0.549   2.531  0.3465 -0.2908 -0.2203
   58c3c     HC  262   2.011   0.555   2.501 -1.9614  0.9256 -1.8539
   58c3c     CT  263   1.961   0.601   2.708  0.6725 -0.2740  0.1455
   58c3c     HC  264   2.054   0.583   2.761  1.4130  1.2337 -0.6037
   58c3c     HC  265   1.886   0.571   2.781  2.2268 -2.6378  0.8358
   58c3c     HC  266   1.966   0.709   2.693  2.2996 -0.3873 -0.2393
   59c3c     N4  267   0.992   5.278   2.611 -0.6140 -0.5199  0.3445
   59c3c     C1  268   0.961   5.166   2.516  0.4261  0.2939  0.1974
   59c3c     C1  269   0.902   5.383   2.560 -0.1987  0.1234  0.0218
   59c3c     C2  270   0.807   5.176   2.501  0.2414 -0.0144  0.3345
   59c3c     C2  271   0.775   5.321   2.522 -0.5191  0.1306 -0.1748
   59c3c     C1  272   0.957   5.240   2.745  0.0204 -0.3461 -0.5788
   59c3c     C1  273   1.139   5.324   2.607 -0.0838 -0.1499 -0.1012
   59c3c     H1  274   0.985   5.071   2.563 -0.4982 -0.1154 -0.1370
   59c3c     H1  275   0.999   5.156   2.414  0.2889 -0.0253  0.1767
   59c3c     H1  276   0.881   5.465   2.628 -1.4861  1.3661 -1.8124
   59c3c     H1  277   0.940   5.423   2.466  0.9774  1.4058  1.0289
   59c3c     HC  278   0.755   5.110   2.571  1.5214  0.5352  1.8361
   59c3c     HC  279   0.785   5.139   2.401  1.1497 -0.6913  0.3760
   59c3c     HC  280   0.702   5.342   2.601 -1.1470 -0.4714 -0.5899
   59c3c     HC  281   0.745   5.365   2.427  0.8022  2.2064  0.3254
   59c3c     H1  282   1.015   5.154   2.780 -2.3973 -1.3038  1.2151
   59c3c     H1  283   0.974   5.317   2.820 -1.0303 -2.8496  2.3198
   59c3c     H1  284   0.852   5.217   2.763 -0.3730  0.9228 -1.2380
   59c3c     H1  285   1.160   5.409   2.673 -2.1498  0.6310 -0.4128
   59c3c     H1  286   1.201   5.238   2.631 -1.0875  0.1287  3.9077
   59c3c     C2  287   1.207   5.371   2.480  0.1782  0.4126  0.1530
   59c3c     HC  288   1.150   5.451   2.432  0.3277  0.1513 -0.4682
   59c3c     HC  289   1.208   5.285   2.414  1.8227  0.4969  0.0359
   59c3c     CT  290   1.356   5.428   2.504 -0.3646  0.2351  0.7181
   59c3c     HC  291   1.384   5.470   2.407 -1.3796 -0.6402  0.0288
   59c3c     HC  292   1.419   5.344   2.531  0.7653  0.6199 -0.6486
   59c3c     HC  293   1.372   5.496   2.587  0.0924  1.0613 -0.0408
   60c3c     N4  294   3.416   0.370   4.105  0.1091 -0.2360  0.1297
   60c3c     C1  295   3.387   0.456   3.983 -0.0521 -0.4992 -0.8846
   60c3c     C1  296   3.496   0.467   4.181 -0.4255 -0.7097  0.2703
   60c3c     C2  297   3.356   0.595   4.035 -0.0537  0.0233  0.0740
   60c3c     C2  298   3.442   0.604   4.156  0.6596 -0.4395  0.3693
   60c3c     C1  299   3.292   0.349   4.185  0.4811 -1.1048  0.3903
   60c3c     C1  300   3.472   0.240   4.078 -0.5341 -0.0231 -0.3332
   60c3c     H1  301   3.304   0.413   3.926 -1.3625 -1.5976  1.7751
   60c3c     H1  302   3.477   0.457   3.922  0.0117 -3.1021 -0.8631
   60c3c     H1  303   3.511   0.431   4.283  2.1407 -0.9829 -0.1520
   60c3c     H1  304   3.599   0.461   4.146 -0.2222 -0.2077  0.7744
   60c3c     HC  305   3.256   0.593   4.080  0.5743 -0.6048  1.4524
   60c3c     HC  306   3.356   0.682   3.968 -2.7142  0.6189  0.7609
   60c3c     HC  307   3.383   0.631   4.244  0.8789  2.5785 -0.3591
   60c3c     HC  308   3.524   0.675   4.147  1.0232 -1.2828 -3.6729
   60c3c     H1  309   3.223   0.281   4.135 -0.7968  0.1473  0.4232
   60c3c     H1  310   3.305   0.294   4.278 -2.2253 -2.7376 -0.1538
   60c3c     H1  311   3.234   0.437   4.211  0.6944  0.3084 -3.5370
   60c3c     H1  312   3.466   0.176   4.166  0.1084 -1.5708 -1.3911
   60c3c     H1  313   3.403   0.200   4.003  0.0296 -2.5715  0.4587
   60c3c     C2  314   3.617   0.219   4.019 -0.0443 -0.7051 -0.0815
   60c3c     HC  315   3.688   0.255   4.094 -1.4008 -1.9281  1.8384
   60c3c     HC  316   3.633   0.291   3.938 -2.5149  1.6500  1.4240
   60c3c     CT  317   3.650   0.078   3.951  0.1703 -0.0452  0.5586
   60c3c     HC  318   3.746   0.087   3.901 -1.0060 -1.1023 -1.9735
   60c3c     HC  319   3.577   0.057   3.873  0.3772  2.0516 -0.2260
   60c3c     HC  320   3.658  -0.018   4.002  0.2366 -1.0445 -1.3056
   61c3c     N4  321   5.615   5.234   2.839 -0.5604  0.3047  0.1135
   61c3c     C1  322   5.683   5.171   2.724 -0.5665  0.2711  0.1368
   61c3c     C1  323   5.655   5.161   2.956  0.2272 -0.1281 -0.2890
   61c3c     C2  324   5.825   5.142   2.781  0.6088  0.9830 -0.0885
   61c3c     C2  325   5.805   5.139   2.931 -0.4506 -0.3327 -0.2243
   61c3c     C1  326   5.664   5.376   2.846 -0.0057  0.1342 -0.0881
   61c3c     C1  327   5.467   5.243   2.828  0.1638 -0.8657  0.1824
   61c3c     H1  328   5.685   5.232   2.634  1.9496  3.3525  2.1316
   61c3c     H1  329   5.634   5.078   2.697 -1.3595  0.7062  0.0805
   61c3c     H1  330   5.636   5.210   3.052 -1.3529 -0.9028 -0.1838
   61c3c     H1  331   5.601   5.068   2.975 -2.9634  1.5475 -0.7419
   61c3c     HC  332   5.900   5.219   2.765  1.7831 -0.1917 -0.2854
   61c3c     HC  333   5.866   5.045   2.752  1.1352  1.6755 -1.7315
   61c3c     HC  334   5.866   5.216   2.977  0.2928 -1.1092  0.1104
   61c3c     HC  335   5.836   5.045   2.977  0.5786  0.5104  0.8237
   61c3c     H1  336   5.634   5.433   2.758  2.0704  1.2802 -0.0808
   61c3c     H1  337   5.610   5.434   2.921 -0.6402 -2.5787  1.6668
   61c3c     H1  338   5.772   5.386   2.859  0.1374 -0.2039 -0.9967
   61c3c     H1  339   5.424   5.293   2.915  0.6014  0.1379 -0.1711
   61c3c     H1  340   5.427   5.304   2.746 -0.7184  0.0734  1.2841
   61c3c     C2  341   5.386   5.109   2.821 -0.0844 -0.1993  0.0774
   61c3c     HC  342   5.417   5.034   2.894  0.8171  0.8729  0.8133
   61c3c     HC  343   5.416   5.069   2.724  0.7199 -0.6407  0.4962
   61c3c     CT  344   5.233   5.122   2.822  0.2989  0.6040  0.1005
   61c3c     HC  345   5.185   5.025   2.830 -0.5791  0.8475 -2.0987
   61c3c     HC  346   5.194   5.185   2.742 -1.3362 -0.0159  0.3871
   61c3c     HC  347   5.211   5.180   2.912 -3.7401  2.0270 -1.6865
   62c3c     N4  348   5.379   5.602   1.981  0.1507 -0.2026  0.1773
   62c3c     C1  349   5.441   5.706   2.058  0.2576 -0.3256 -0.1758
   62c3c     C1  350   5.362   5.673   1.851  0.1045  0.2337 -0.1957
   62c3c     C2  351   5.552   5.768   1.969  0.1818  0.2101 -0.0874
   62c3c     C2  352   5.497   5.741   1.830  0.0506 -0.2442 -0.4301
   62c3c     C1  353   5.469   5.487   1.961  0.1022  0.3478  0.1188
   62c3c     C1  354   5.259   5.549   2.043  0.6994 -0.3843 -0.2253
   62c3c     H1  355   5.490   5.674   2.150 -1.1162 -2.2999 -0.1183
   62c3c     H1  356   5.361   5.773   2.091 -0.7795 -2.4535  1.7189
   62c3c     H1  357   5.325   5.609   1.772 -0.4640  0.8162 -0.4084
   62c3c     H1  358   5.300   5.763   1.862  1.2254  0.9350  0.4560
   62c3c     HC  359   5.645   5.716   1.990  0.1888  0.1277 -0.3175
   62c3c     HC  360   5.558   5.874   1.992 -1.8431  0.2680  0.3390
   62c3c     HC  361   5.556   5.667   1.776  3.1579  0.8835  1.2534
   62c3c     HC  362   5.487   5.833   1.772  0.6512 -1.2028 -2.0861
   62c3c     H1  363   5.503   5.446   2.056  1.8394 -0.9732 -1.0574
   62c3c     H1  364   5.422   5.410   1.900 -0.6656  1.3644 -0.6082
   62c3c     H1  365   5.568   5.510   1.922 -0.3903  2.1007 -0.1571
   62c3c     H1  366   5.235   5.454   1.995  1.3031  1.1441 -3.6896
   62c3c     H1  367   5.279   5.521   2.147  0.2082 -0.4752 -0.1552
   62c3c     C2  368   5.134   5.635   2.048 -0.5160  0.0193  0.1082
   62c3c     HC  369   5.119   5.676   1.948  0.6691 -2.8187 -1.2782
   62c3c     HC  370   5.153   5.719   2.114 -1.0287  0.6166 -0.4918
   62c3c     CT  371   5.010   5.565   2.115 -1.2022 -0.9002  0.9760
   62c3c     HC  372   5.029   5.509   2.207  0.7108 -1.2520  0.4020
   62c3c     HC  373   4.974   5.505   2.032  0.1357  2.6124 -2.2864
   62c3c     HC  374   4.939   5.642   2.144 -0.3497  0.2519  0.0736
   63c3c     N4  375   4.589   0.600   1.824 -0.0534  0.5794  0.6889
   63c3c     C1  376   4.695   0.587   1.928  0.0208  0.6364 -0.2763
   63c3c     C1  377   4.608   0.463   1.758 -0.0140 -0.2859 -0.1592
   63c3c     C2  378   4.682   0.451   1.990 -0.0051 -0.2952  0.2847
   63c3c     C2  379   4.624   0.362   1.879 -0.4423 -0.4845 -0.2884
   63c3c     C1  380   4.458   0.615   1.887 -0.5377  0.5824  0.5319
   63c3c     C1  381   4.608   0.711   1.731 -0.4899 -0.0147  0.6644
   63c3c     H1  382   4.691   0.669   2.000 -0.1281 -1.6539  2.4056
   63c3c     H1  383   4.790   0.594   1.876 -0.0516  0.2500 -0.4594
   63c3c     H1  384   4.524   0.426   1.698  0.4411  0.5995 -1.3773
   63c3c     H1  385   4.697   0.458   1.695 -1.3300  2.6763 -2.4253
   63c3c     HC  386   4.627   0.451   2.084 -1.7034  0.8093 -0.6876
   63c3c     HC  387   4.780   0.421   2.026  0.8772  1.1039 -0.8671
   63c3c     HC  388   4.525   0.329   1.910 -1.2999  0.6858 -1.6948
   63c3c     HC  389   4.693   0.278   1.868 -0.0988 -0.2580  0.1166
   63c3c     H1  390   4.464   0.704   1.948  0.7867 -0.0285  1.3069
   63c3c     H1  391   4.375   0.633   1.818 -0.1182 -1.0043 -0.4122
   63c3c     H1  392   4.432   0.530   1.950  1.1970  0.5243  1.1985
   63c3c     H1  393   4.533   0.724   1.652  0.6131 -0.7877 -0.5322
   63c3c     H1  394   4.589   0.793   1.800  0.3928  0.4142  0.4121
   63c3c     C2  395   4.740   0.746   1.664 -0.9427  0.2594 -0.6182
   63c3c     HC  396   4.790   0.654   1.632  2.0234  1.1175  1.3455
   63c3c     HC  397   4.814   0.782   1.736 -0.5658 -0.1157 -0.8150
   63c3c     CT  398   4.734   0.838   1.549  0.5882 -0.3040  0.0275
   63c3c     HC  399   4.669   0.804   1.468 -1.5534 -0.2625  1.6727
   63c3c     HC  400   4.830   0.853   1.500  1.1822  0.1618  1.3133
   63c3c     HC  401   4.704   0.939   1.579  1.8561 -0.5990  2.3451
   64c3c     N4  402   3.669   0.323   2.749  0.3623 -0.3309 -0.4009
   64c3c     C1  403   3.652   0.254   2.619 -0.4032 -0.1272  0.5754
   64c3c     C1  404   3.726   0.223   2.837  0.0672 -0.0169 -0.4680
   64c3c     C2  405   3.782   0.170   2.609 -0.1926  0.3278  0.0422
   64c3c     C2  406   3.837   0.151   2.761 -0.6119  0.2910 -0.4693
   64c3c     C1  407   3.774   0.430   2.742  0.4923  0.0397 -0.8546
   64c3c     C1  408   3.545   0.380   2.807 -0.1757 -0.2883  0.1627
   64c3c     H1  409   3.641   0.321   2.534  1.8883 -1.2528 -0.6689
   64c3c     H1  410   3.555   0.204   2.615  0.4458 -1.9363  1.6664
   64c3c     H1  411   3.754   0.264   2.934  1.8735  0.2694 -1.1016
   64c3c     H1  412   3.659   0.138   2.854  1.3805 -1.1148 -0.7519
   64c3c     HC  413   3.855   0.223   2.548  1.3064  0.5557  2.0024
   64c3c     HC  414   3.774   0.075   2.556  0.3126  0.4806 -0.3217
   64c3c     HC  415   3.933   0.203   2.771 -0.2686 -0.4518  0.1126
   64c3c     HC  416   3.850   0.050   2.798  1.7192  0.8468  0.3030
   64c3c     H1  417   3.747   0.507   2.670 -2.1900  0.1750  0.2150
   64c3c     H1  418   3.801   0.474   2.838 -0.8978 -0.2438 -0.3218
   64c3c     H1  419   3.869   0.405   2.695  0.2555 -0.2414 -1.1849
   64c3c     H1  420   3.569   0.427   2.902  0.6048  0.5951 -0.4557
   64c3c     H1  421   3.529   0.478   2.761  0.2106 -0.3603 -0.1362
   64c3c     C2  422   3.416   0.297   2.813 -0.0773 -0.3674 -0.9313
   64c3c     HC  423   3.442   0.207   2.868  2.7944  0.2723 -1.1670
   64c3c     HC  424   3.393   0.265   2.712  1.2935 -1.8168 -0.7955
   64c3c     CT  425   3.294   0.368   2.882 -0.7703 -0.5295 -0.3585
   64c3c     HC  426   3.253   0.454   2.829 -0.0044  0.4222  0.5723
   64c3c     HC  427   3.330   0.397   2.981 -3.2386  2.0576 -0.1626
   64c3c     HC  428   3.213   0.299   2.902  0.0220 -0.6986  2.6445
   65c3c     N4  429   0.193   0.968   2.840  0.0343  0.3625  0.2904
   65c3c     C1  430   0.050   0.988   2.867 -0.0633 -0.1445  0.3662
   65c3c     C1  431   0.213   0.826   2.870 -0.1239  0.1261 -0.2442
   65c3c     C2  432  -0.026   0.858   2.825  0.1325 -0.6777 -0.0430
   65c3c     C2  433   0.079   0.745   2.839  0.2555  0.3034 -0.0106
   65c3c     C1  434   0.215   0.989   2.698  0.0868 -0.3094  0.3800
   65c3c     C1  435   0.287   1.063   2.908 -0.2861  0.6224  0.4451
   65c3c     H1  436   0.014   1.081   2.823  0.9414  0.3966  0.6715
   65c3c     H1  437   0.037   0.987   2.975 -2.6673  2.0284  0.1164
   65c3c     H1  438   0.292   0.779   2.812 -0.7414  1.5626 -2.3138
   65c3c     H1  439   0.221   0.819   2.978  0.0726  1.3959 -0.1664
   65c3c     HC  440  -0.057   0.862   2.721 -0.4894 -1.9385  0.0849
   65c3c     HC  441  -0.123   0.839   2.870  0.1760  1.0316  0.8049
   65c3c     HC  442   0.086   0.691   2.744  0.5262  1.7746 -0.8405
   65c3c     HC  443   0.055   0.678   2.921 -0.3659  3.0629  2.1171
   65c3c     H1  444   0.208   1.096   2.678 -2.0470 -0.2723  1.2539
   65c3c     H1  445   0.316   0.957   2.672 -0.6715 -1.9336 -0.5815
   65c3c     H1  446   0.149   0.934   2.632  1.3250  2.3630 -3.2952
   65c3c     H1  447   0.389   1.026   2.899  0.6842  2.7901  1.9608
   65c3c     H1  448   0.276   1.154   2.849 -3.0056 -0.1554 -0.3140
   65c3c     C2  449   0.270   1.084   3.059  0.3469 -0.8055 -0.2913
   65c3c     HC  450   0.269   0.990   3.115  2.1201  0.8737  2.7367
   65c3c     HC  451   0.171   1.126   3.080  1.7095  1.3499  2.1276
   65c3c     CT  452   0.389   1.169   3.116 -0.0825  0.2007 -0.4153
   65c3c     HC  453   0.414   1.266   3.073  2.4009 -0.0257  0.4223
   65c3c     HC  454   0.480   1.111   3.103 -0.4623  0.4280 -4.9881
   65c3c     HC  455   0.366   1.198   3.219  1.5250  2.7144 -0.7203
   66c3c     N4  456   2.030   1.022   2.527  0.1740  0.0476 -0.3507
   66c3c     C1  457   2.124   0.919   2.486 -0.5373  0.0534 -0.6126
   66c3c     C1  458   2.094   1.152   2.488 -0.6350 -0.1419  0.3523
   66c3c     C2  459   2.165   0.952   2.340  0.4261  0.0511  0.1581
   66c3c     C2  460   2.160   1.109   2.347 -0.2620  0.5357 -0.7813
   66c3c     C1  461   1.899   1.007   2.461 -0.2048 -0.1475  0.1903
   66c3c     C1  462   2.002   1.009   2.665 -0.2816  0.7988 -0.8566
   66c3c     H1  463   2.086   0.818   2.503  0.6316 -0.2602  0.1038
   66c3c     H1  464   2.220   0.924   2.537 -1.5815 -0.3160  1.4169
   66c3c     H1  465   2.016   1.228   2.489 -0.9735 -0.4812  2.0529
   66c3c     H1  466   2.179   1.172   2.554 -1.8968 -0.5337  2.1479
   66c3c     HC  467   2.090   0.909   2.274 -0.2187  0.0330  0.8907
   66c3c     HC  468   2.261   0.907   2.317 -0.5457 -1.7198 -0.5866
   66c3c     HC  469   2.100   1.155   2.268 -1.0306  0.4965 -0.2188
   66c3c     HC  470   2.255   1.162   2.343 -1.2440  2.3589 -0.2232
   66c3c     H1  471   1.860   0.906   2.479  2.0509 -0.3407  4.6608
   66c3c     H1  472   1.817   1.071   2.492 -0.2496 -1.3147  2.6294
   66c3c     H1  473   1.917   1.027   2.355  1.7919  1.2271  0.7570
   66c3c     H1  474   1.929   1.082   2.701 -0.5654  0.7771 -1.3838
   66c3c     H1  475   1.943   0.918   2.682  0.5531  0.6738  1.6510
   66c3c     C2  476   2.123   1.007   2.761 -0.9224  0.0888  0.0730
   66c3c     HC  477   2.205   1.070   2.728  0.1596 -0.0214  2.4277
   66c3c     HC  478   2.170   0.908   2.767  0.8185  1.0237  2.7713
   66c3c     CT  479   2.097   1.065   2.902 -0.4669  0.3716 -0.0681
   66c3c     HC  480   2.185   1.111   2.947 -0.4338 -0.6484  0.9142
   66c3c     HC  481   2.049   0.988   2.963  0.1093  2.3044  2.9463
   66c3c     HC  482   2.025   1.146   2.886 -1.5854 -0.6040 -0.0955
   67c3c     N4  483   0.877   0.897   2.312  0.1297  0.3318  0.2058
   67c3c     C1  484   0.887   1.039   2.347  0.4784  0.4780 -0.0219
   67c3c     C1  485   1.004   0.859   2.256  0.3618  0.3771  0.2089
   67c3c     C2  486   1.025   1.046   2.406 -0.4262  0.4193  0.8565
   67c3c     C2  487   1.102   0.926   2.345 -0.1588 -0.2821 -0.4050
   67c3c     C1  488   0.858   0.818   2.436  0.0383 -0.5374 -0.2460
   67c3c     C1  489   0.763   0.866   2.225  0.0256 -0.0281 -1.2285
   67c3c     H1  490   0.808   1.069   2.416 -1.2915 -0.7404 -1.4673
   67c3c     H1  491   0.890   1.108   2.263  1.0884 -0.5128 -0.8320
   67c3c     H1  492   1.000   0.751   2.246  0.6574  0.5142 -1.4802
   67c3c     H1  493   1.019   0.905   2.158  0.6020  0.1314  0.1315
   67c3c     HC  494   1.032   1.035   2.514  1.5905  1.7500  0.8986
   67c3c     HC  495   1.075   1.140   2.384 -0.2262 -0.3883 -2.4050
   67c3c     HC  496   1.149   0.867   2.424  2.8170  0.5260 -1.5002
   67c3c     HC  497   1.185   0.971   2.291 -0.0004  1.9893  1.6439
   67c3c     H1  498   0.765   0.843   2.487  0.0298 -1.8329  0.3946
   67c3c     H1  499   0.844   0.712   2.413  1.1395 -0.8146  0.3782
   67c3c     H1  500   0.935   0.818   2.513 -0.2987  1.6068  0.1099
   67c3c     H1  501   0.762   0.759   2.205  2.5663  0.3639 -3.7464
   67c3c     H1  502   0.672   0.901   2.274 -1.1155  0.3872 -3.5830
   67c3c     C2  503   0.754   0.932   2.082  0.9804  0.0243 -0.1669
   67c3c     HC  504   0.830   0.894   2.014 -1.0711 -2.2146 -1.3110
   67c3c     HC  505   0.770   1.039   2.088  2.3179 -0.1069 -1.2226
   67c3c     CT  506   0.630   0.896   2.003  0.7203 -0.1381 -0.5406
   67c3c     HC  507   0.543   0.880   2.066  0.7617  0.9929 -0.1827
   67c3c     HC  508   0.642   0.798   1.957  1.8348 -1.5980  2.6770
   67c3c     HC  509   0.609   0.964   1.921 -1.7425  2.2106  1.9580
   68c3c     N4  510   3.956   1.445   2.365 -0.1620  0.6176  0.1534
   68c3c     C1  511   3.882   1.567   2.372  0.0565  0.5249  0.2251
   68c3c     C1  512   4.053   1.458   2.470  0.3466  0.1198  0.2881
   68c3c     C2  513   3.869   1.601   2.525 -0.8324 -0.2176  0.3470
   68c3c     C2  514   3.988   1.534   2.584 -0.6410 -0.2407  0.4636
   68c3c     C1  515   3.862   1.331   2.397 -0.4524 -0.0161  0.3745
   68c3c     C1  516   4.015   1.419   2.231  0.0832 -0.4479  0.2073
   68c3c     H1  517   3.787   1.562   2.318  0.4965 -0.3565 -0.4756
   68c3c     H1  518   3.942   1.646   2.328  3.8412 -0.6022  3.1235
   68c3c     H1  519   4.100   1.368   2.510 -0.2158 -0.5116 -0.4597
   68c3c     H1  520   4.138   1.519   2.437 -0.0463  0.2422 -0.5011
   68c3c     HC  521   3.778   1.555   2.563 -1.3920 -0.6589 -1.4537
   68c3c     HC  522   3.856   1.706   2.548  1.2178  0.5639 -1.8145
   68c3c     HC  523   3.970   1.484   2.679 -0.2039  1.9431  1.7291
   68c3c     HC  524   4.061   1.606   2.620 -1.5363  2.0927 -2.2009
   68c3c     H1  525   3.775   1.329   2.332  1.0314 -4.1734 -1.6721
   68c3c     H1  526   3.912   1.235   2.387 -0.1799 -0.0382  1.8267
   68c3c     H1  527   3.828   1.336   2.500 -0.3880 -0.2972  0.4075
   68c3c     H1  528   4.083   1.334   2.240  0.4707 -0.1995 -0.3591
   68c3c     H1  529   3.945   1.381   2.157 -0.6403  0.4721  0.4121
   68c3c     C2  530   4.091   1.534   2.165  0.3276  0.1151 -0.6045
   68c3c     HC  531   4.154   1.588   2.236  1.3650 -0.9106 -0.7348
   68c3c     HC  532   4.017   1.609   2.138  2.0329  1.6688 -1.0974
   68c3c     CT  533   4.166   1.488   2.041  0.3322  0.1475  0.2658
   68c3c     HC  534   4.094   1.455   1.966  0.9302 -0.5809  0.0012
   68c3c     HC  535   4.248   1.417   2.057  3.2363  2.9910 -1.3828
   68c3c     HC  536   4.211   1.574   1.992  0.2745 -0.6207 -1.1537
   69c3c     N4  537   1.612   0.688   3.385 -0.3281 -0.5071  0.1951
   69c3c     C1  538   1.638   0.680   3.530  0.5811 -0.3888  0.2093
   69c3c     C1  539   1.476   0.746   3.380  0.4175 -0.0022 -0.0372
   69c3c     C2  540   1.535   0.770   3.602  0.6301 -0.3805 -0.1220
   69c3c     C2  541   1.469   0.849   3.497 -0.1726 -0.4027  0.5810
   69c3c     C1  542   1.709   0.778   3.324  0.5218  0.0400  0.2132
   69c3c     C1  543   1.618   0.559   3.318  0.0855 -0.1499  0.1539
   69c3c     H1  544   1.744   0.688   3.555  0.5735  0.1308  0.0649
   69c3c     H1  545   1.612   0.587   3.582  0.6039 -0.9133 -0.6997
   69c3c     H1  546   1.439   0.782   3.284 -1.8608 -3.1753 -0.4182
   69c3c     H1  547   1.406   0.666   3.405 -0.2569  0.7454  0.4978
   69c3c     HC  548   1.592   0.834   3.671  0.9435 -0.6752 -0.1046
   69c3c     HC  549   1.464   0.709   3.657  2.5837 -0.1226  2.8383
   69c3c     HC  550   1.525   0.937   3.466 -0.5328  0.3935  2.1310
   69c3c     HC  551   1.366   0.884   3.512  0.5308  2.3810 -0.7594
   69c3c     H1  552   1.813   0.750   3.337  0.6530 -0.3691 -1.6289
   69c3c     H1  553   1.689   0.790   3.218  1.3647 -0.8115 -0.0415
   69c3c     H1  554   1.710   0.874   3.376  1.0216  0.2144 -0.1194
   69c3c     H1  555   1.613   0.577   3.210 -1.0400 -0.5531  0.1334
   69c3c     H1  556   1.716   0.513   3.334  0.3520 -0.1632 -1.3939
   69c3c     C2  557   1.511   0.450   3.330  0.2590 -0.1252 -0.1561
   69c3c     HC  558   1.421   0.488   3.280  1.1747  0.9723 -1.0092
   69c3c     HC  559   1.484   0.427   3.433 -3.5331  0.1361 -1.0192
   69c3c     CT  560   1.557   0.311   3.270  0.3469 -0.3647 -0.0426
   69c3c     HC  561   1.566   0.323   3.162  0.0184 -1.6336 -0.2165
   69c3c     HC  562   1.496   0.230   3.309 -1.0907  0.3381 -0.8110
   69c3c     HC  563   1.652   0.281   3.315 -0.9027 -1.9399  1.5869
   70c3c     N4  564   4.708   1.496   2.940 -0.1293 -0.3496  0.3614
   70c3c     C1  565   4.677   1.394   3.034 -0.2477 -0.1381  0.0360
   70c3c     C1  566   4.709   1.626   3.002 -0.0545  0.5528  0.9996
   70c3c     C2  567   4.730   1.442   3.167 -0.1529 -0.0261  0.1640
   70c3c     C2  568   4.733   1.599   3.153 -0.3276 -0.7396  0.0794
   70c3c     C1  569   4.845   1.465   2.909 -0.0878 -0.3057  0.4591
   70c3c     C1  570   4.627   1.490   2.818  0.0888  0.2859  0.2530
   70c3c     H1  571   4.715   1.295   3.009  1.5896  0.6185 -0.2593
   70c3c     H1  572   4.569   1.395   3.046 -0.0362  1.6194  2.1532
   70c3c     H1  573   4.785   1.692   2.960 -1.0991  0.2406 -1.4309
   70c3c     H1  574   4.619   1.687   3.012 -0.3564 -0.0172  1.7870
   70c3c     HC  575   4.831   1.405   3.186  0.1559  0.2583 -0.9372
   70c3c     HC  576   4.684   1.412   3.261  0.4838  0.0755  0.5089
   70c3c     HC  577   4.819   1.653   3.193 -1.9046  1.1937  0.9120
   70c3c     HC  578   4.641   1.631   3.201  0.0018  0.1954  0.0954
   70c3c     H1  579   4.865   1.364   2.873 -1.7498 -0.3643 -0.3347
   70c3c     H1  580   4.876   1.525   2.824 -0.1777 -0.4089  0.3521
   70c3c     H1  581   4.912   1.487   2.991 -0.8463 -0.2529  1.0669
   70c3c     H1  582   4.663   1.567   2.749 -1.3321  0.0377 -0.7788
   70c3c     H1  583   4.646   1.402   2.757 -3.0144 -2.1724  2.7196
   70c3c     C2  584   4.477   1.514   2.830  0.1799  0.2615  0.0164
   70c3c     HC  585   4.457   1.594   2.901 -2.4143  0.1927 -0.5870
   70c3c     HC  586   4.427   1.428   2.875  0.7879 -0.1005  0.0007
   70c3c     CT  587   4.410   1.539   2.698 -0.3170  0.4663  0.1686
   70c3c     HC  588   4.415   1.455   2.629 -0.6933  0.9981 -0.5171
   70c3c     HC  589   4.447   1.633   2.656 -0.8067  1.2484  1.4760
   70c3c     HC  590   4.304   1.549   2.720 -0.0420  0.5761  1.4977
   71c3c     N4  591   3.482   5.300   3.628  0.1552  0.4532 -0.2389
   71c3c     C1  592   3.613   5.237   3.614  0.1424 -0.7484 -0.6576
   71c3c     C1  593   3.402   5.195   3.702  0.2813 -0.0157  0.0808
   71c3c     C2  594   3.639   5.172   3.751  0.1190  0.2340  0.0392
   71c3c     C2  595   3.495   5.139   3.806  0.0272  0.2561 -0.6672
   71c3c     C1  596   3.488   5.417   3.713  0.2760 -0.2200  0.9062
   71c3c     C1  597   3.420   5.346   3.505 -0.1440 -0.1155 -0.0068
   71c3c     H1  598   3.690   5.304   3.574  0.3905 -0.8924 -0.4262
   71c3c     H1  599   3.612   5.152   3.545 -0.6107 -0.3648 -1.1250
   71c3c     H1  600   3.310   5.239   3.739  0.4231 -1.8156  2.6738
   71c3c     H1  601   3.385   5.114   3.631 -1.3315  2.0127 -1.9335
   71c3c     HC  602   3.691   5.243   3.814  0.2657  0.4477 -0.3189
   71c3c     HC  603   3.699   5.081   3.749 -0.2408 -0.0748  2.3076
   71c3c     HC  604   3.483   5.185   3.903  2.2502 -2.5445  1.0093
   71c3c     HC  605   3.474   5.032   3.815  0.8547  0.2732  1.5316
   71c3c     H1  606   3.563   5.491   3.685 -0.9347  0.3635 -0.8663
   71c3c     H1  607   3.390   5.464   3.722  0.6538  1.1194 -1.7072
   71c3c     H1  608   3.517   5.404   3.818  0.0049 -1.1558  0.8760
   71c3c     H1  609   3.327   5.401   3.521 -1.4712 -1.5103 -2.6641
   71c3c     H1  610   3.490   5.417   3.460  1.1642 -0.1583  1.8832
   71c3c     C2  611   3.385   5.235   3.390  0.1985 -0.0364  0.4509
   71c3c     HC  612   3.311   5.161   3.421 -0.9822  1.4024  1.1473
   71c3c     HC  613   3.469   5.178   3.351  0.9494  2.4644 -1.7712
   71c3c     CT  614   3.333   5.303   3.264  0.4560 -0.1809 -0.0901
   71c3c     HC  615   3.225   5.312   3.268  0.4754 -0.6677  3.4443
   71c3c     HC  616   3.348   5.252   3.169 -2.5118 -0.3083 -0.5321
   71c3c     HC  617   3.379   5.401   3.254 -1.1526  0.4823 -1.1442
   72c3c     N4  618   2.236   0.336   4.043 -0.1094 -0.6765 -0.4075
   72c3c     C1  619   2.131   0.353   4.145  0.1142 -0.3320  0.1680
   72c3c     C1  620   2.213   0.198   4.006 -0.3637  0.0139 -0.6309
   72c3c     C2  621   2.004   0.281   4.081 -0.6679  0.6654  0.3437
   72c3c     C2  622   2.068   0.172   3.995  0.4100 -0.2284 -0.1791
   72c3c     C1  623   2.207   0.418   3.927  0.2709 -0.2435  0.2588
   72c3c     C1  624   2.374   0.378   4.089  0.7438 -0.5216 -0.0638
   72c3c     H1  625   2.103   0.452   4.182  0.1214  0.0155 -0.7334
   72c3c     H1  626   2.163   0.297   4.232 -1.8213 -2.5373 -0.4740
   72c3c     H1  627   2.275   0.160   3.924 -1.3444 -1.9284 -0.4933
   72c3c     H1  628   2.248   0.144   4.094  0.8009  0.0338 -1.0723
   72c3c     HC  629   1.933   0.346   4.029 -2.9463 -2.1523 -0.1654
   72c3c     HC  630   1.938   0.228   4.149 -1.9005 -1.8879 -2.7181
   72c3c     HC  631   2.035   0.170   3.891 -1.3855  1.0130  0.3446
   72c3c     HC  632   2.035   0.073   4.024  0.3583 -0.6343 -1.5855
   72c3c     H1  633   2.198   0.526   3.937  1.8754  0.2466 -2.9060
   72c3c     H1  634   2.294   0.412   3.861 -0.5962  2.2725 -1.2036
   72c3c     H1  635   2.122   0.383   3.868  0.8806 -1.4190  0.0744
   72c3c     H1  636   2.435   0.340   4.007 -0.0283 -2.8655  0.4071
   72c3c     H1  637   2.390   0.486   4.090  0.7985 -0.5310  0.0421
   72c3c     C2  638   2.430   0.323   4.222 -0.8926  0.5566 -0.0328
   72c3c     HC  639   2.426   0.214   4.219  1.4655  0.4933 -2.8564
   72c3c     HC  640   2.364   0.345   4.306  2.0445 -2.2735  3.1960
   72c3c     CT  641   2.573   0.370   4.246  0.5180 -0.1619 -0.7453
   72c3c     HC  642   2.653   0.318   4.193 -1.2106 -1.3275 -2.2746
   72c3c     HC  643   2.590   0.365   4.354  0.4688 -0.3187 -0.7451
   72c3c     HC  644   2.585   0.476   4.225  2.7719 -0.1511  0.4630
   73c3c     N4  645   2.690   5.356   3.245 -0.8304  0.6177 -0.2468
   73c3c     C1  646   2.827   5.317   3.207 -0.2575  0.0297 -0.1363
   73c3c     C1  647   2.727   5.430   3.367  0.6948  0.4873 -0.0214
   73c3c     C2  648   2.910   5.440   3.205 -0.0942  0.2230  0.0503
   73c3c     C2  649   2.856   5.505   3.332  0.8176  0.4191 -0.7959
   73c3c     C1  650   2.636   5.448   3.142  0.4422  0.1079  0.1229
   73c3c     C1  651   2.602   5.241   3.273  0.0632  0.1898 -0.2165
   73c3c     H1  652   2.833   5.252   3.120  0.5760  1.9566 -1.5635
   73c3c     H1  653   2.862   5.252   3.287  0.9779 -1.5602 -1.9209
   73c3c     H1  654   2.651   5.496   3.410  0.9127 -0.1512  1.3612
   73c3c     H1  655   2.745   5.370   3.456 -1.4816  0.3330  0.3344
   73c3c     HC  656   2.892   5.499   3.116 -0.3212  1.7049  1.0625
   73c3c     HC  657   3.017   5.419   3.205 -0.3200 -1.0295  1.3197
   73c3c     HC  658   2.836   5.612   3.327 -2.8033 -0.0401  1.5836
   73c3c     HC  659   2.923   5.496   3.418  0.5998  1.9092 -0.4656
   73c3c     H1  660   2.640   5.421   3.036 -0.2979  1.7373 -0.3393
   73c3c     H1  661   2.530   5.462   3.163  0.2451 -0.8075 -0.2181
   73c3c     H1  662   2.686   5.545   3.145  1.3422 -0.3596  0.2735
   73c3c     H1  663   2.503   5.280   3.294  1.0522  2.7200 -0.1005
   73c3c     H1  664   2.594   5.184   3.180  2.8362  0.1166 -0.4568
   73c3c     C2  665   2.640   5.136   3.377 -0.0360 -0.3880  0.2085
   73c3c     HC  666   2.669   5.170   3.477  1.3574  0.1942 -0.3731
   73c3c     HC  667   2.732   5.084   3.350  0.2798 -0.5075  1.4535
   73c3c     CT  668   2.522   5.036   3.399 -0.2952 -0.0361  0.2615
   73c3c     HC  669   2.499   4.979   3.309  1.8729 -1.9055  0.8264
   73c3c     HC  670   2.435   5.090   3.435  0.0994  0.2443  0.8162
   73c3c     HC  671   2.556   4.979   3.486 -1.8286 -3.4023 -1.2809
   74c3c     N4  672   5.209   0.830   3.503  0.4789 -0.2745  0.2015
   74c3c     C1  673   5.315   0.829   3.398 -0.1503 -0.0094  0.4078
   74c3c     C1  674   5.205   0.967   3.548  0.2911 -0.0568  0.2033
   74c3c     C2  675   5.298   0.973   3.332  0.4425  0.8612 -0.5699
   74c3c     C2  676   5.213   1.053   3.429  0.9341 -0.3849  0.2366
   74c3c     C1  677   5.078   0.795   3.431 -0.6136 -0.7831 -0.7326
   74c3c     C1  678   5.215   0.740   3.620 -0.0467 -0.4500 -1.0733
   74c3c     H1  679   5.310   0.748   3.326  1.0019  1.4900 -1.4113
   74c3c     H1  680   5.416   0.817   3.437 -0.7751 -6.9743  0.3987
   74c3c     H1  681   5.117   1.006   3.599  0.9277  1.0360  0.4880
   74c3c     H1  682   5.288   1.003   3.608  0.1698  1.0351 -0.2718
   74c3c     HC  683   5.242   0.966   3.238 -3.3511 -1.2894  1.7376
   74c3c     HC  684   5.390   1.029   3.314  1.2723 -0.2979  0.0084
   74c3c     HC  685   5.117   1.059   3.378  0.6515 -1.6210  0.6015
   74c3c     HC  686   5.240   1.158   3.442 -1.0452  0.1434  0.2630
   74c3c     H1  687   5.082   0.688   3.410  1.5141 -0.7417 -0.7013
   74c3c     H1  688   4.989   0.822   3.487 -0.2563 -0.9058 -0.0881
   74c3c     H1  689   5.072   0.846   3.335 -0.6175  1.1720  0.2879
   74c3c     H1  690   5.118   0.725   3.667  1.3336 -2.2386  1.3735
   74c3c     H1  691   5.230   0.643   3.571  1.7539 -1.8997  2.1442
   74c3c     C2  692   5.323   0.776   3.720  0.0365  0.2920  0.1510
   74c3c     HC  693   5.303   0.862   3.783 -1.5312  0.0426 -0.0043
   74c3c     HC  694   5.414   0.795   3.662 -1.7675  0.8157 -2.6296
   74c3c     CT  695   5.355   0.657   3.808 -0.2341  0.3827 -0.2863
   74c3c     HC  696   5.424   0.583   3.769  2.8139  2.5209  0.8428
   74c3c     HC  697   5.265   0.601   3.832  0.4919 -0.0944  1.3810
   74c3c     HC  698   5.412   0.700   3.891 -1.0443  1.6037 -0.3521
   75c3c     N4  699   4.818   0.275   2.579 -0.6519  0.2036  0.6136
   75c3c     C1  700   4.784   0.186   2.467  0.2514  0.1412 -0.2718
   75c3c     C1  701   4.873   0.177   2.673 -0.4790  1.0725  0.4256
   75c3c     C2  702   4.900   0.091   2.442  1.4184  0.6077 -0.1299
   75c3c     C2  703   4.959   0.083   2.581 -0.0181  0.0812  0.1159
   75c3c     C1  704   4.922   0.379   2.543 -0.3391 -0.3229 -0.1801
   75c3c     C1  705   4.706   0.343   2.651  0.4306  0.1646  0.6670
   75c3c     H1  706   4.767   0.243   2.375  1.5410  1.0325  0.0146
   75c3c     H1  707   4.687   0.139   2.481  0.7225 -0.9538 -0.6402
   75c3c     H1  708   4.922   0.232   2.753  0.1220 -1.4635  1.8382
   75c3c     H1  709   4.791   0.114   2.706 -2.7391  1.0002 -4.9274
   75c3c     HC  710   4.975   0.136   2.377  2.2731 -2.2477 -1.1829
   75c3c     HC  711   4.868  -0.007   2.405 -0.3301  0.2246  2.3358
   75c3c     HC  712   5.064   0.113   2.576 -0.1672  0.4297 -0.9119
   75c3c     HC  713   4.955  -0.018   2.620  0.7632  0.2927  0.7714
   75c3c     H1  714   4.874   0.463   2.493 -0.4665 -0.7797 -0.8247
   75c3c     H1  715   4.976   0.422   2.628 -0.7614  0.3144 -0.2331
   75c3c     H1  716   4.998   0.334   2.478 -0.9942 -1.0432 -0.4553
   75c3c     H1  717   4.735   0.387   2.746  1.5970  1.4735 -0.2703
   75c3c     H1  718   4.672   0.426   2.589  1.4979  0.0128 -0.1332
   75c3c     C2  719   4.578   0.261   2.681 -0.6676 -0.2920 -0.6494
   75c3c     HC  720   4.579   0.178   2.752  1.1221  0.8207  0.6673
   75c3c     HC  721   4.545   0.218   2.586  1.0858  1.5008 -2.1137
   75c3c     CT  722   4.473   0.367   2.716 -0.0678 -0.9806  0.4215
   75c3c     HC  723   4.452   0.453   2.652 -2.0391 -1.8420 -0.1141
   75c3c     HC  724   4.500   0.416   2.809  2.9104 -2.2887  0.3130
   75c3c     HC  725   4.377   0.320   2.738  0.9129 -3.4134 -0.3428
   76fsi    FSI  726   4.131   0.912   1.712  0.1726  0.0133 -0.1791
   76fsi    SBT  727   4.075   0.843   1.847  0.1505 -0.0670 -0.1988
   76fsi    NBT  728   3.983   0.947   1.914 -0.1663  0.1989 -0.1467
   76fsi    OBT  729   4.005   0.728   1.802 -0.4110 -0.7121  0.2329
   76fsi    OBT  730   4.195   0.814   1.923 -0.2540 -0.0510 -0.1995
   76fsi    SBT  731   4.011   1.075   1.997 -0.5452 -0.2592 -0.3237
   76fsi    OBT  732   4.146   1.083   2.050 -0.0299  0.7383 -0.3808
   76fsi    OBT  733   3.901   1.103   2.088 -0.3097 -0.5808 -0.2149
   76fsi    FSI  734   4.000   1.187   1.892  0.1587  0.3150 -0.1886
   77fsi    FSI  735   1.546   0.973   2.770 -0.0857  0.0841 -0.4743
   77fsi    SBT  736   1.596   0.840   2.838 -0.4766  0.1240  0.3138
   77fsi    NBT  737   1.479   0.739   2.813 -0.8657  0.2976 -0.1242
   77fsi    OBT  738   1.715   0.803   2.764 -0.3887 -0.4353 -0.2585
   77fsi    OBT  739   1.622   0.881   2.973 -0.5297 -0.2919  0.4051
   77fsi    SBT  740   1.362   0.707   2.909 -0.4808  0.1911  0.4750
   77fsi    OBT  741   1.399   0.674   3.043  0.0388 -0.3349  0.9759
   77fsi    OBT  742   1.277   0.610   2.839  0.1922  0.0114  0.6913
   77fsi    FSI  743   1.270   0.836   2.922 -0.3864 -0.0310 -0.0996
   78fsi    FSI  744   4.153   5.253   3.224 -0.3467 -0.0379 -0.3295
   78fsi    SBT  745   4.208   5.367   3.135 -0.2259 -0.1546  0.0237
   78fsi    NBT  746   4.364   5.350   3.136  0.2021 -0.5322  0.0980
   78fsi    OBT  747   4.135   5.337   3.012 -0.0226 -0.4199  0.6809
   78fsi    OBT  748   4.161   5.479   3.218  0.1245 -0.0499 -0.3515
   78fsi    SBT  749   4.477   5.441   3.201  0.2219 -0.1518  0.1540
   78fsi    OBT  750   4.438   5.564   3.272 -0.1881  0.3066 -0.4633
   78fsi    OBT  751   4.584   5.461   3.111 -0.8547 -0.3351  0.3371
   78fsi    FSI  752   4.528   5.360   3.320  0.4009  0.3156 -0.2590
   79fsi    FSI  753   1.096   1.022   2.774 -0.6589 -0.1196 -0.0351
   79fsi    SBT  754   0.961   0.938   2.822 -0.1568 -0.5680 -0.2501
   79fsi    NBT  755   0.842   1.000   2.743  0.5197 -0.6325  0.2251
   79fsi    OBT  756   0.987   0.804   2.782 -0.0972 -0.1547 -0.1146
   79fsi    OBT  757   0.965   0.970   2.959 -0.8580  0.0585 -0.0042
   79fsi    SBT  758   0.729   1.104   2.788 -0.0778  0.0111  0.0968
   79fsi    OBT  759   0.707   1.110   2.929 -0.2745 -0.5059  0.1018
   79fsi    OBT  760   0.620   1.105   2.699  0.0513 -0.1059  0.0024
   79fsi    FSI  761   0.794   1.239   2.754 -0.4458 -0.2402 -0.0617
   80fsi    FSI  762   4.273   0.162   2.924  0.4701 -0.0855 -0.3051
   80fsi    SBT  763   4.282   0.016   2.874  0.3605 -0.0573 -0.4682
   80fsi    NBT  764   4.302   0.038   2.721  0.0525 -0.5522 -0.3442
   80fsi    OBT  765   4.405  -0.031   2.933 -0.1284  0.1511 -1.6963
   80fsi    OBT  766   4.155  -0.043   2.922  0.7326 -0.6886 -0.1203
   80fsi    SBT  767   4.207   0.011   2.600 -0.2587  0.8472 -0.2413
   80fsi    OBT  768   4.122  -0.103   2.622  0.2940 -0.2359  0.3984
   80fsi    OBT  769   4.282   0.021   2.477  0.2092  0.3736 -0.1058
   80fsi    FSI  770   4.118   0.141   2.597  0.1777 -0.3443 -0.2998
   81fsi    FSI  771   1.330   0.037   3.150  0.0681 -0.3351  0.3517
   81fsi    SBT  772   1.207   0.060   3.062  0.5926 -0.2056  0.3055
   81fsi    NBT  773   1.206   0.217   3.040 -0.7175  0.5542  0.8397
   81fsi    OBT  774   1.245  -0.018   2.946 -0.2233  0.0384 -0.0529
   81fsi    OBT  775   1.094   0.022   3.138 -0.4474 -0.3307 -0.1949
   81fsi    SBT  776   1.124   0.326   3.122 -0.0812 -0.1240  0.0528
   81fsi    OBT  777   1.009   0.278   3.196 -0.2741  0.4959  0.0227
   81fsi    OBT  778   1.112   0.448   3.044 -0.3042 -0.1050 -0.2732
   81fsi    FSI  779   1.218   0.354   3.241  0.7420  0.4218 -0.2994
   82fsi    FSI  780   3.704   1.140   2.789  0.3288  0.5575  0.1990
   82fsi    SBT  781   3.768   1.280   2.844  0.0764  0.2565 -0.4450
   82fsi    NBT  782   3.685   1.394   2.774  0.1373  0.2717  0.3579
   82fsi    OBT  783   3.750   1.270   2.988 -0.9015  0.4564 -0.4678
   82fsi    OBT  784   3.901   1.284   2.800  0.3329  0.1923  0.1193
   82fsi    SBT  785   3.587   1.501   2.847 -0.0710  0.0827  0.2814
   82fsi    OBT  786   3.594   1.631   2.780  0.5949  0.2178 -0.0177
   82fsi    OBT  787   3.589   1.499   2.992 -0.3281 -0.1824 -0.8115
   82fsi    FSI  788   3.441   1.451   2.809  0.2203  0.4263  0.1987
   83fsi    FSI  789   4.606   0.461   3.070 -0.0963  0.0141  0.3131
   83fsi    SBT  790   4.756   0.430   3.066  0.2043 -0.0381  0.0143
   83fsi    NBT  791   4.767   0.291   2.997  0.0583  0.0182 -0.1540
   83fsi    OBT  792   4.803   0.530   2.978 -0.0938 -0.1776  0.2683
   83fsi    OBT  793   4.794   0.437   3.207  0.0968 -0.1049  0.1464
   83fsi    SBT  794   4.716   0.155   3.058  0.0132 -0.1053  0.3867
   83fsi    OBT  795   4.704   0.055   2.955 -0.6281  0.0995  0.1801
   83fsi    OBT  796   4.604   0.168   3.143  0.1427 -0.0971  0.0319
   83fsi    FSI  797   4.831   0.098   3.152 -0.4600 -0.1241 -0.2118
   84fsi    FSI  798   2.993   0.588   4.156  0.0162 -0.7828 -0.2986
   84fsi    SBT  799   2.938   0.472   4.064  0.1881 -0.4686  0.0939
   84fsi    NBT  800   2.794   0.519   4.014 -0.2033  0.1481 -0.0180
   84fsi    OBT  801   3.037   0.469   3.959 -0.1104 -0.0695 -0.6260
   84fsi    OBT  802   2.936   0.356   4.148  0.0723 -0.1403 -0.0551
   84fsi    SBT  803   2.741   0.505   3.864  0.3173  0.2759  0.3878
   84fsi    OBT  804   2.602   0.530   3.855 -0.3907  0.1065 -0.5533
   84fsi    OBT  805   2.794   0.391   3.797  0.4199  0.1550  0.5919
   84fsi    FSI  806   2.812   0.624   3.783 -0.0732 -0.2068 -0.2951
   85fsi    FSI  807   3.296   0.082   3.795  0.2323  0.5651 -0.3770
   85fsi    SBT  808   3.296   0.166   3.667 -0.3150 -0.2779  0.2546
   85fsi    NBT  809   3.140   0.218   3.659 -0.0834 -0.0574 -0.0442
   85fsi    OBT  810   3.388   0.275   3.696 -0.1667 -0.1068 -0.1373
   85fsi    OBT  811   3.341   0.072   3.569  0.2580  0.0051  0.3840
   85fsi    SBT  812   3.037   0.145   3.577 -0.7334  0.0696 -0.1304
   85fsi    OBT  813   2.905   0.182   3.623 -0.2945 -0.2312 -0.4083
   85fsi    OBT  814   3.064   0.005   3.562 -0.4196  0.4289 -0.0120
   85fsi    FSI  815   3.048   0.211   3.439  0.4994 -0.2819 -0.5442
   86fsi    FSI  816   0.792   0.556   1.940 -0.0823 -0.3963  0.0404
   86fsi    SBT  817   0.772   0.430   2.022  0.2368  0.1337  0.3985
   86fsi    NBT  818   0.904   0.346   1.987 -0.1646 -0.4426  0.6286
   86fsi    OBT  819   0.772   0.473   2.158  0.1784  0.4542  0.3829
   86fsi    OBT  820   0.649   0.375   1.973  0.4884 -0.0297 -0.3751
   86fsi    SBT  821   0.936   0.244   1.872  0.0809 -0.0598  0.0138
   86fsi    OBT  822   0.819   0.193   1.808 -0.1791 -0.6288 -0.2489
   86fsi    OBT  823   1.044   0.157   1.913 -0.4088  0.0724 -0.0233
   86fsi    FSI  824   1.010   0.335   1.768  0.4837  0.3614 -0.1444
   87fsi    FSI  825   0.426   0.808   2.419 -0.3861  0.4458  0.2963
   87fsi    SBT  826   0.431   0.651   2.441 -0.1476 -0.3891  0.2850
   87fsi    NBT  827   0.342   0.593   2.326 -0.0227 -0.5645  0.3328
   87fsi    OBT  828   0.570   0.618   2.433  0.0766 -0.4755 -0.1439
   87fsi    OBT  829   0.365   0.636   2.567  0.3383 -0.2695 -0.3384
   87fsi    SBT  830   0.380   0.489   2.214  0.2865  0.3445  0.1283
   87fsi    OBT  831   0.264   0.452   2.132 -0.4626 -0.1800  0.3201
   87fsi    OBT  832   0.460   0.382   2.266  0.2825 -0.3868  0.2000
   87fsi    FSI  833   0.477   0.563   2.120  0.1408  0.2089  0.1335
   88fsi    FSI  834   4.659   1.105   1.827  0.2841 -0.2731  0.1578
   88fsi    SBT  835   4.615   1.033   1.961 -0.1808  0.5834 -0.1879
   88fsi    NBT  836   4.718   0.919   1.978 -0.0211  1.2063  0.4163
   88fsi    OBT  837   4.628   1.137   2.056 -0.1323  0.3421 -0.2436
   88fsi    OBT  838   4.479   0.986   1.931  0.3118  0.6162 -0.2455
   88fsi    SBT  839   4.845   0.908   2.074 -0.3536  0.0137  0.1087
   88fsi    OBT  840   4.898   1.028   2.135 -0.0392 -0.5553 -0.1198
   88fsi    OBT  841   4.944   0.813   2.026  0.2426 -0.5280  0.3892
   88fsi    FSI  842   4.791   0.825   2.205  0.0829  0.3243 -0.1439
   89fsi    FSI  843   2.639   0.286   2.714  0.2368  0.3573  0.2042
   89fsi    SBT  844   2.658   0.157   2.636  0.1535 -0.3819 -0.3813
   89fsi    NBT  845   2.791   0.098   2.700 -0.7848 -0.5086 -0.4099
   89fsi    OBT  846   2.541   0.082   2.663 -0.0439 -0.2556  0.0075
   89fsi    OBT  847   2.679   0.196   2.499 -0.1759 -0.1193  0.4746
   89fsi    SBT  848   2.817  -0.038   2.782  0.0573  0.6566 -0.1093
   89fsi    OBT  849   2.695  -0.100   2.828  0.1483 -0.0346  0.1384
   89fsi    OBT  850   2.924  -0.024   2.873  0.3403 -0.0131  0.1446
   89fsi    FSI  851   2.874  -0.134   2.670 -0.3725  0.0190 -0.0336
   90fsi    FSI  852   3.928   0.715   2.578 -0.6949  0.1510 -0.1808
   90fsi    SBT  853   3.992   0.611   2.479 -0.0479  0.3540  0.1379
   90fsi    NBT  854   4.101   0.690   2.402  0.9138 -0.2752 -0.7566
   90fsi    OBT  855   4.045   0.515   2.575 -0.2870 -0.0554  0.6520
   90fsi    OBT  856   3.882   0.566   2.395  0.0318 -0.0660  0.2464
   90fsi    SBT  857   4.080   0.761   2.262  0.0401  0.1101 -0.0600
   90fsi    OBT  858   4.194   0.842   2.233  0.0882  0.0502 -0.1884
   90fsi    OBT  859   3.945   0.808   2.230  0.0340  0.2428  0.0132
   90fsi    FSI  860   4.105   0.641   2.166 -0.1051  0.5662  0.1823
   91fsi    FSI  861   1.626   0.937   2.299 -0.7129  0.5877  0.4410
   91fsi    SBT  862   1.617   0.784   2.324 -0.3816  0.0129 -0.1257
   91fsi    NBT  863   1.765   0.740   2.315  0.0589  0.4870 -0.3401
   91fsi    OBT  864   1.559   0.775   2.456  0.7980  0.5115  0.6309
   91fsi    OBT  865   1.525   0.749   2.214 -0.0990 -0.0470 -0.4228
   91fsi    SBT  866   1.843   0.681   2.196  0.3365  0.3004 -0.0645
   91fsi    OBT  867   1.763   0.615   2.099 -0.7830  0.5572 -0.3382
   91fsi    OBT  868   1.963   0.623   2.247  0.2536  0.6211  0.4144
   91fsi    FSI  869   1.891   0.814   2.127 -0.6434 -0.1126 -0.2245
   92fsi    FSI  870   5.237   0.419   1.899  0.0439 -0.4170 -0.0205
   92fsi    SBT  871   5.098   0.466   1.935  0.1728 -0.6608 -0.0142
   92fsi    NBT  872   5.118   0.543   2.069  0.2187 -0.0343  0.3657
   92fsi    OBT  873   5.074   0.553   1.820  0.1663  0.1428 -0.0188
   92fsi    OBT  874   5.030   0.347   1.958  0.1405 -0.7856 -0.4243
   92fsi    SBT  875   5.100   0.493   2.217 -0.5299  0.0891  0.0472
   92fsi    OBT  876   5.168   0.579   2.311  0.2876 -0.2525  0.5130
   92fsi    OBT  877   5.130   0.352   2.242  0.4211  0.6475 -0.3900
   92fsi    FSI  878   4.957   0.521   2.248  0.8571  0.5672  0.5000
   93fsi    FSI  879   3.427   0.894   2.777 -0.3738 -0.0484  0.1104
   93fsi    SBT  880   3.521   0.787   2.717 -0.3490 -0.5123  0.4513
   93fsi    NBT  881   3.596   0.889   2.620 -0.3565  0.4220 -0.5950
   93fsi    OBT  882   3.604   0.739   2.824 -0.7703 -0.5566  0.3142
   93fsi    OBT  883   3.437   0.692   2.651 -0.0145 -0.0279 -0.1956
   93fsi    SBT  884   3.556   0.941   2.480 -0.3133  0.1945 -0.4529
   93fsi    OBT  885   3.458   0.867   2.413 -0.1711 -0.0159  0.3933
   93fsi    OBT  886   3.673   0.965   2.400 -0.7217 -0.0474  0.2559
   93fsi    FSI  887   3.494   1.087   2.511 -0.6548  0.0911 -0.2802
   94fsi    FSI  888   3.783   1.117   3.416  0.4377 -0.1862 -0.0373
   94fsi    SBT  889   3.747   1.262   3.454  0.0120 -0.0109  0.2457
   94fsi    NBT  890   3.600   1.251   3.497  0.1136  0.2685  0.0592
   94fsi    OBT  891   3.844   1.290   3.558  0.2483  0.0405  0.2936
   94fsi    OBT  892   3.750   1.335   3.333 -0.2840  0.5563  0.1755
   94fsi    SBT  893   3.545   1.201   3.637 -0.0482  0.0796 -0.0403
   94fsi    OBT  894   3.617   1.089   3.685  0.0841 -0.2002 -0.3403
   94fsi    OBT  895   3.404   1.185   3.638  0.2753  0.2792 -0.6231
   94fsi    FSI  896   3.576   1.324   3.724  0.3269 -0.2680  0.2226
   95fsi    FSI  897   1.347   0.299   1.791  0.1201  0.2115  0.0196
   95fsi    SBT  898   1.365   0.328   1.943  0.0029  0.2992  0.2942
   95fsi    NBT  899   1.234   0.411   1.977  0.4755 -0.8431 -0.2118
   95fsi    OBT  900   1.363   0.197   2.004 -0.2035 -0.1708  0.3351
   95fsi    OBT  901   1.488   0.405   1.932 -0.0553  0.7850  0.3805
   95fsi    SBT  902   1.205   0.564   1.974 -0.1154 -0.1998  0.0144
   95fsi    OBT  903   1.315   0.653   1.982 -0.2120 -0.0378 -0.8748
   95fsi    OBT  904   1.089   0.593   2.059 -0.6415 -0.5886  0.3128
   95fsi    FSI  905   1.152   0.593   1.831 -0.3596 -0.3867 -0.3799
   96fsi    FSI  906   2.295   0.663   2.687  0.1803  0.4714  0.7478
   96fsi    SBT  907   2.384   0.570   2.597  0.2364  0.2497 -0.0869
   96fsi    NBT  908   2.474   0.674   2.521  0.3806  0.1218 -0.3456
   96fsi    OBT  909   2.451   0.499   2.703 -0.3130 -0.5132 -0.4391
   96fsi    OBT  910   2.288   0.507   2.511 -0.3276  0.2179  0.0352
   96fsi    SBT  911   2.623   0.664   2.491 -0.1332  0.1935  0.3045
   96fsi    OBT  912   2.657   0.535   2.436  0.5490  0.2596 -0.1409
   96fsi    OBT  913   2.708   0.720   2.596  0.3187  0.7305  0.0415
   96fsi    FSI  914   2.651   0.766   2.372 -0.1600 -0.4050  0.1765
   97fsi    FSI  915   2.246   0.680   3.112  0.0481  0.4275 -0.1020
   97fsi    SBT  916   2.287   0.533   3.082 -0.1904 -0.1431  0.2852
   97fsi    NBT  917   2.168   0.469   3.007  0.7473 -0.2267  0.1366
   97fsi    OBT  918   2.394   0.563   2.992  0.2015  0.1389  0.2368
   97fsi    OBT  919   2.314   0.470   3.211  0.6555 -0.0676  0.5127
   97fsi    SBT  920   2.046   0.381   3.051  0.4377  0.3097  0.1689
   97fsi    OBT  921   2.065   0.322   3.180 -0.0544 -0.1692  0.1767
   97fsi    OBT  922   1.989   0.302   2.947  0.2587  0.0255  0.1835
   97fsi    FSI  923   1.930   0.493   3.067  0.0201 -0.4828  0.1957
   98fsi    FSI  924   5.304   1.092   1.811 -0.1558  0.7030  0.1422
   98fsi    SBT  925   5.169   1.017   1.864 -0.0961 -0.1231 -0.2399
   98fsi    NBT  926   5.221   0.922   1.979  0.0560 -0.0704  0.2156
   98fsi    OBT  927   5.095   1.121   1.919 -0.3774 -0.1345  0.2948
   98fsi    OBT  928   5.124   0.941   1.753 -0.0839  0.3441 -0.4395
   98fsi    SBT  929   5.260   0.949   2.125 -0.3484 -0.0182  0.2762
   98fsi    OBT  930   5.211   0.847   2.210  0.4658  0.5052 -0.1816
   98fsi    OBT  931   5.246   1.086   2.171  1.0069 -0.1858 -0.3937
   98fsi    FSI  932   5.418   0.928   2.127 -0.0583 -0.1664 -0.1072
   99fsi    FSI  933   4.734   0.826   2.564  0.4605  0.0525  0.2738
   99fsi    SBT  934   4.885   0.819   2.603 -0.3953  0.2838 -0.1420
   99fsi    NBT  935   4.906   0.969   2.651 -0.4935  0.5495 -0.0306
   99fsi    OBT  936   4.888   0.715   2.700  0.5130 -0.1719 -0.4291
   99fsi    OBT  937   4.948   0.795   2.480  0.2203 -0.2507  0.1314
   99fsi    SBT  938   4.855   1.039   2.786  0.2109 -0.6299 -0.3344
   99fsi    OBT  939   4.958   1.128   2.835  0.8467 -0.0229  0.2729
   99fsi    OBT  940   4.790   0.953   2.878 -0.5370 -0.4283  0.3004
   99fsi    FSI  941   4.744   1.139   2.724 -1.0286  0.3611 -0.5472
  100fsi    FSI  942   4.446   5.162   2.698  0.5634  0.3257  0.5072
  100fsi    SBT  943   4.421   5.311   2.731 -0.0604  0.1628 -0.1616
  100fsi    NBT  944   4.460   5.375   2.599  0.9841  0.2092  0.0237
  100fsi    OBT  945   4.279   5.317   2.752  0.0496 -0.2564 -0.1671
  100fsi    OBT  946   4.509   5.334   2.843  0.1610 -0.0640  0.0981
  100fsi    SBT  947   4.584   5.469   2.563  0.0986  0.1457 -0.2488
  100fsi    OBT  948   4.643   5.520   2.686  0.2559  0.5811  0.9101
  100fsi    OBT  949   4.569   5.555   2.450  0.4117 -0.2759  0.0482
  100fsi    FSI  950   4.695   5.369   2.510 -0.1388  0.2402 -0.1251
  101fsi    FSI  951   3.359   0.424   2.176  0.0330 -0.0608 -0.0509
  101fsi    SBT  952   3.498   0.470   2.213 -0.0559 -0.0372 -0.2228
  101fsi    NBT  953   3.536   0.549   2.086 -0.1723 -0.2642 -0.1748
  101fsi    OBT  954   3.477   0.550   2.331 -0.6548 -0.5914  0.4744
  101fsi    OBT  955   3.577   0.350   2.220 -0.3885  0.1831 -0.0864
  101fsi    SBT  956   3.556   0.707   2.054  0.1756 -0.0235  0.1835
  101fsi    OBT  957   3.597   0.730   1.918  0.2948  0.2700  0.0577
  101fsi    OBT  958   3.628   0.773   2.162 -0.0561 -0.0379 -0.6996
  101fsi    FSI  959   3.416   0.769   2.058 -0.4790 -0.3668 -0.1316
  102fsi    FSI  960   0.915   0.059   2.682 -0.2993  0.2021 -0.2394
  102fsi    SBT  961   0.898   0.178   2.776  0.6024 -0.1202  0.2530
  102fsi    NBT  962   0.787   0.269   2.707  0.4275  0.9982 -0.9288
  102fsi    OBT  963   0.836   0.121   2.890  0.3450  0.6920  0.3902
  102fsi    OBT  964   1.033   0.228   2.783 -0.1839 -0.1210  0.3801
  102fsi    SBT  965   0.801   0.414   2.657 -0.1926 -0.0886 -0.4050
  102fsi    OBT  966   0.797   0.424   2.514 -0.1961  0.2209  0.4909
  102fsi    OBT  967   0.896   0.495   2.727  0.5216 -0.4800 -0.0091
  102fsi    FSI  968   0.674   0.486   2.697  0.0650  0.0036  0.3376
  103fsi    FSI  969   2.541   5.432   3.691 -0.2297  0.6807 -0.4007
  103fsi    SBT  970   2.669   5.481   3.763  0.0405 -0.3975 -0.1732
  103fsi    NBT  971   2.627   5.498   3.914  0.6382  0.5373  0.4136
  103fsi    OBT  972   2.756   5.374   3.744  0.4519 -0.1066  0.0527
  103fsi    OBT  973   2.704   5.603   3.701  0.0179 -0.2580  0.1390
  103fsi    SBT  974   2.586   5.623   3.990 -0.1869 -0.4670 -0.5335
  103fsi    OBT  975   2.448   5.630   4.021  0.2460 -0.3066 -0.0657
  103fsi    OBT  976   2.646   5.744   3.947  0.0078 -0.0828  0.1044
  103fsi    FSI  977   2.661   5.589   4.134  0.0300  0.1353 -0.1151
  104fsi    FSI  978   2.401   0.906   2.955  0.1249 -0.0834  0.8088
  104fsi    SBT  979   2.554   0.905   2.953 -0.2615  0.2689  0.0283
  104fsi    NBT  980   2.585   0.944   3.102 -0.1217 -0.2225  0.0015
  104fsi    OBT  981   2.581   0.769   2.921  0.3181  0.1052  0.3219
  104fsi    OBT  982   2.604   1.004   2.866 -0.5133  0.2647  0.2124
  104fsi    SBT  983   2.597   1.089   3.173 -0.0701  0.1942 -0.3188
  104fsi    OBT  984   2.626   1.200   3.088 -0.1768  0.3955 -0.2179
  104fsi    OBT  985   2.668   1.088   3.296  0.1493 -0.0205 -0.0149
  104fsi    FSI  986   2.454   1.114   3.222  0.3117 -0.0020 -0.1783
  105fsi    FSI  987   3.035   0.715   2.193 -0.8525  0.7317  0.1064
  105fsi    SBT  988   3.032   0.635   2.331  0.2729 -0.3511  0.0294
  105fsi    NBT  989   2.977   0.745   2.433  0.0876  0.0387 -0.0883
  105fsi    OBT  990   2.942   0.526   2.303  0.3238  0.3387 -0.1133
  105fsi    OBT  991   3.171   0.607   2.353  0.7857  0.3336 -0.1196
  105fsi    SBT  992   3.052   0.859   2.510 -0.1812 -0.0353 -0.0743
  105fsi    OBT  993   3.185   0.832   2.548 -0.8075  0.5095 -0.2762
  105fsi    OBT  994   2.974   0.919   2.609  0.0979  0.2965  0.1488
  105fsi    FSI  995   3.063   0.979   2.404 -0.2403 -0.0112 -0.6896
  106fsi    FSI  996   2.225   5.271   2.595  1.0593  0.1100  0.2439
  106fsi    SBT  997   2.221   5.400   2.683  0.1695  0.2085 -0.1175
  106fsi    NBT  998   2.197   5.345   2.827  0.4710 -0.4250 -0.0761
  106fsi    OBT  999   2.345   5.464   2.657 -0.5644 -0.0347 -0.1363
  106fsi    OBT 1000   2.105   5.462   2.625  0.4776 -0.0962 -0.7148
  106fsi    SBT 1001   2.303   5.307   2.936 -0.3490  0.2048 -0.2128
  106fsi    OBT 1002   2.244   5.319   3.066  0.1617  0.3626 -0.0330
  106fsi    OBT 1003   2.443   5.349   2.917  0.3622 -0.2088 -0.1355
  106fsi    FSI 1004   2.312   5.154   2.918 -0.3405  0.5447  0.6857
  107fsi    FSI 1005   4.615   5.462   2.028 -0.4247  0.3281 -0.2190
  107fsi    SBT 1006   4.570   5.606   2.022 -0.0425 -0.1391  0.1821
  107fsi    NBT 1007   4.428   5.588   1.962  0.1369  0.2982 -1.5449
  107fsi    OBT 1008   4.580   5.646   2.157  0.2094 -0.2031 -0.4643
  107fsi    OBT 1009   4.660   5.673   1.931  0.0625 -0.2622 -0.1666
  107fsi    SBT 1010   4.285   5.619   2.026 -0.3378 -0.2065  0.2585
  107fsi    OBT 1011   4.213   5.709   1.948  0.5916  0.1614  0.1882
  107fsi    OBT 1012   4.283   5.641   2.171  0.3857  0.7155 -0.0046
  107fsi    FSI 1013   4.201   5.493   2.013  0.0040  0.5717 -0.5764
  108fsi    FSI 1014   3.009   1.279   2.673  0.3709  0.1306  0.4830
  108fsi    SBT 1015   2.966   1.257   2.820  0.0732  0.2951  0.1972
  108fsi    NBT 1016   2.915   1.114   2.833  0.1203  0.3496 -0.5068
  108fsi    OBT 1017   3.080   1.285   2.898 -0.3117 -0.0049 -0.1431
  108fsi    OBT 1018   2.846   1.343   2.821 -0.8771 -0.0619 -0.1153
  108fsi    SBT 1019   2.962   0.999   2.938  0.4668  0.3095 -0.0476
  108fsi    OBT 1020   2.884   0.881   2.906 -0.1021  0.0783  0.1899
  108fsi    OBT 1021   2.978   1.036   3.078  0.3958  0.4471  0.0665
  108fsi    FSI 1022   3.108   0.966   2.879  0.6102  0.1054  0.0624
  109fsi    FSI 1023   4.097   1.080   2.440  0.0518 -0.3536 -0.0089
  109fsi    SBT 1024   4.215   1.093   2.536 -0.2467  0.6217  0.0125
  109fsi    NBT 1025   4.308   1.192   2.464 -0.1793  0.0469  0.0470
  109fsi    OBT 1026   4.158   1.159   2.651 -0.3172  0.1620 -0.3530
  109fsi    OBT 1027   4.271   0.964   2.551  0.0014  0.7629 -0.0883
  109fsi    SBT 1028   4.429   1.164   2.366 -0.2275 -0.3066 -0.4484
  109fsi    OBT 1029   4.447   1.282   2.287  0.4341 -0.1309  0.1093
  109fsi    OBT 1030   4.419   1.041   2.289  0.1159 -0.1273  0.1707
  109fsi    FSI 1031   4.548   1.150   2.467 -0.6541 -0.2614  0.2865
  110fsi    FSI 1032   2.516   1.479   2.693 -0.0051  0.1533 -0.0311
  110fsi    SBT 1033   2.449   1.338   2.720  0.0044  0.4097  0.3904
  110fsi    NBT 1034   2.565   1.247   2.661  0.2452 -0.2695  0.0846
  110fsi    OBT 1035   2.439   1.327   2.863 -0.2306 -0.5445 -0.0971
  110fsi    OBT 1036   2.329   1.345   2.639 -0.3203 -0.4033 -0.1399
  110fsi    SBT 1037   2.555   1.121   2.568 -0.1347  0.0893 -0.4882
  110fsi    OBT 1038   2.433   1.048   2.579  0.6654  0.4110 -0.3152
  110fsi    OBT 1039   2.671   1.031   2.573  0.3026 -0.6937 -0.1672
  110fsi    FSI 1040   2.556   1.183   2.423  0.1780 -0.3009  0.3516
  111fsi    FSI 1041   3.256   0.565   3.173  0.0612  0.4079 -0.7113
  111fsi    SBT 1042   3.324   0.704   3.145 -0.1414  0.0237  0.3475
  111fsi    NBT 1043   3.357   0.753   3.292  0.1339 -0.2995  0.7614
  111fsi    OBT 1044   3.438   0.668   3.057 -0.3417  0.1514 -0.7930
  111fsi    OBT 1045   3.223   0.785   3.077  0.6193  0.2772  0.1005
  111fsi    SBT 1046   3.496   0.753   3.368 -0.0022  0.0031  0.0628
  111fsi    OBT 1047   3.615   0.747   3.282  0.2030  0.5961 -0.6575
  111fsi    OBT 1048   3.504   0.674   3.486 -0.1598 -0.5563 -0.3827
  111fsi    FSI 1049   3.501   0.893   3.423 -0.3525 -0.0034  0.9094
  112fsi    FSI 1050   0.006   0.800   3.361  0.3710  0.5499  0.1057
  112fsi    SBT 1051   0.028   0.673   3.266  0.3407 -0.5559 -0.0289
  112fsi    NBT 1052   0.036   0.547   3.362 -0.4126 -0.1228 -0.0026
  112fsi    OBT 1053  -0.087   0.675   3.176 -0.0477  0.2931 -0.3689
  112fsi    OBT 1054   0.159   0.697   3.210  0.1810  0.1342 -0.1528
  112fsi    SBT 1055  -0.072   0.475   3.451 -0.5420  0.0248 -0.0464
  112fsi    OBT 1056  -0.092   0.336   3.421  0.4131  0.4980  0.3572
  112fsi    OBT 1057  -0.189   0.557   3.475  0.3193  0.0017 -0.0820
  112fsi    FSI 1058   0.004   0.473   3.584  0.1609  0.1215  0.2548
  113fsi    FSI 1059   3.170   0.604   3.476  0.9630  0.3336  0.1814
  113fsi    SBT 1060   3.164   0.614   3.640 -0.1090 -0.2845  0.2669
  113fsi    NBT 1061   3.116   0.756   3.675 -0.2051  0.1443 -0.1245
  113fsi    OBT 1062   3.058   0.516   3.663 -0.4293 -0.6401  0.1836
  113fsi    OBT 1063   3.294   0.581   3.686  0.0857 -0.0069 -0.5948
  113fsi    SBT 1064   3.182   0.884   3.725 -0.4782 -0.0579  0.2885
  113fsi    OBT 1065   3.100   1.000   3.690  0.4624  0.5919 -0.1386
  113fsi    OBT 1066   3.321   0.884   3.693 -0.1106 -0.2334  0.3233
  113fsi    FSI 1067   3.178   0.860   3.881 -0.5441 -0.1929  0.3144
  114fsi    FSI 1068   0.454   0.109   2.474 -0.1512 -0.0238 -0.2852
  114fsi    SBT 1069   0.420   0.209   2.593  0.1064  0.0593 -0.0291
  114fsi    NBT 1070   0.492   0.135   2.710 -0.1175 -0.4224 -0.0269
  114fsi    OBT 1071   0.483   0.324   2.550  0.0295 -0.0056  0.9643
  114fsi    OBT 1072   0.277   0.215   2.601  0.7989  0.3628  0.5157
  114fsi    SBT 1073   0.446   0.024   2.815 -0.0837  0.2261 -0.2621
  114fsi    OBT 1074   0.303   0.017   2.848 -0.1375  0.7991  0.0641
  114fsi    OBT 1075   0.538   0.013   2.927 -0.0024  0.3149  0.1616
  114fsi    FSI 1076   0.476  -0.114   2.733  0.2948  0.0484  0.0409
  115fsi    FSI 1077   5.188   0.557   2.689 -0.2362 -0.0389  0.6050
  115fsi    SBT 1078   5.267   0.691   2.712 -0.6725 -0.2611  0.3112
  115fsi    NBT 1079   5.163   0.766   2.807 -0.6077  0.0324  0.4366
  115fsi    OBT 1080   5.391   0.649   2.770  0.0554  0.3075 -0.0674
  115fsi    OBT 1081   5.270   0.742   2.577  0.4981 -0.0382  0.0377
  115fsi    SBT 1082   5.168   0.789   2.959  0.3855  0.3381 -0.2143
  115fsi    OBT 1083   5.104   0.690   3.040 -0.2419 -0.1208  0.9727
  115fsi    OBT 1084   5.146   0.931   2.980 -0.1717 -0.1640 -0.1848
  115fsi    FSI 1085   5.311   0.767   2.999  0.2609 -0.2912  0.1734
  116fsi    FSI 1086   0.113   0.860   1.844 -0.2819 -0.7233  0.1283
  116fsi    SBT 1087   0.141   0.742   1.949  0.5254 -0.1928 -0.0862
  116fsi    NBT 1088  -0.011   0.708   1.997 -0.6632  1.3504 -0.0508
  116fsi    OBT 1089   0.197   0.640   1.862  0.1314 -0.1630  0.2478
  116fsi    OBT 1090   0.218   0.799   2.061  0.1033  0.1348  0.0506
  116fsi    SBT 1091  -0.128   0.636   1.920 -0.0080  0.1134  0.1011
  116fsi    OBT 1092  -0.116   0.623   1.780 -0.6334  0.5392 -0.3557
  116fsi    OBT 1093  -0.260   0.675   1.960 -0.1841 -0.3842  0.0714
  116fsi    FSI 1094  -0.124   0.484   1.968 -0.4292  0.1211  0.5313
  117fsi    FSI 1095   3.986   0.189   3.017 -1.1671  0.3576 -0.2248
  117fsi    SBT 1096   3.934   0.192   3.164  0.3669  0.2429  0.0238
  117fsi    NBT 1097   4.063   0.154   3.249  0.2698 -0.7575 -0.1531
  117fsi    OBT 1098   3.881   0.327   3.188  0.4861 -0.4894 -0.0868
  117fsi    OBT 1099   3.845   0.080   3.157 -0.4858  0.4466  0.1458
  117fsi    SBT 1100   4.169   0.259   3.293  0.0138 -0.3107 -0.1308
  117fsi    OBT 1101   4.287   0.192   3.347  0.8506 -0.3767 -0.0682
  117fsi    OBT 1102   4.118   0.372   3.378 -0.4694  0.0653 -0.2054
  117fsi    FSI 1103   4.223   0.319   3.159  0.1534  0.0126 -0.2217
  118fsi    FSI 1104   4.673   0.618   2.370 -0.1909  0.4869  0.0180
  118fsi    SBT 1105   4.520   0.645   2.351 -0.0113 -0.0005  0.1149
  118fsi    NBT 1106   4.469   0.502   2.392  0.5026  0.4221  0.2949
  118fsi    OBT 1107   4.483   0.749   2.447 -0.2298  0.5674  0.0263
  118fsi    OBT 1108   4.495   0.663   2.212  0.9097 -0.6511  0.0047
  118fsi    SBT 1109   4.407   0.382   2.309 -0.2290 -0.3875 -0.1864
  118fsi    OBT 1110   4.464   0.255   2.361  0.6643 -0.0669  0.0933
  118fsi    OBT 1111   4.399   0.393   2.166 -0.3050 -0.0151 -0.6581
  118fsi    FSI 1112   4.259   0.391   2.354 -0.6439 -0.1489 -0.4412
  119fsi    FSI 1113   3.649   0.007   3.491 -0.1856 -0.0431 -0.4726
  119fsi    SBT 1114   3.776   0.058   3.577 -0.1992  0.2298 -0.3351
  119fsi    NBT 1115   3.740   0.182   3.652 -0.3527  0.1222  0.3574
  119fsi    OBT 1116   3.790  -0.058   3.665 -0.2710 -0.1474  0.2196
  119fsi    OBT 1117   3.879   0.068   3.476 -0.5154 -0.3521  0.0093
  119fsi    SBT 1118   3.762   0.332   3.602  0.3036 -0.2971 -0.2535
  119fsi    OBT 1119   3.666   0.428   3.653 -0.3518 -0.5335 -0.1026
  119fsi    OBT 1120   3.777   0.341   3.460 -0.2923  0.1023 -0.3875
  119fsi    FSI 1121   3.900   0.386   3.669 -0.4983  0.6476  0.1519
  120fsi    FSI 1122   3.175   0.381   2.576 -0.3050  0.4055 -0.1881
  120fsi    SBT 1123   3.041   0.318   2.612 -0.0693 -0.0148 -0.1538
  120fsi    NBT 1124   2.951   0.438   2.662 -0.5203 -0.1500 -0.7084
  120fsi    OBT 1125   2.998   0.274   2.481 -0.0684 -0.5266  0.5040
  120fsi    OBT 1126   3.072   0.215   2.705 -0.4067 -0.0592 -0.0517
  120fsi    SBT 1127   2.926   0.504   2.801  0.3225 -0.2978 -0.1283
  120fsi    OBT 1128   2.962   0.418   2.909 -0.0227 -0.2405 -0.1056
  120fsi    OBT 1129   2.795   0.566   2.814  0.4526  0.1495  0.0055
  120fsi    FSI 1130   3.023   0.625   2.807 -0.4546  0.0177 -0.0163
  121fsi    FSI 1131   4.327   0.639   3.259  0.1100  0.3381  0.1965
  121fsi    SBT 1132   4.450   0.671   3.350 -0.2416  0.1591  0.1061
  121fsi    NBT 1133   4.536   0.763   3.253 -0.0136  0.4549  0.0091
  121fsi    OBT 1134   4.394   0.753   3.451  0.4373 -0.1532 -0.3323
  121fsi    OBT 1135   4.513   0.553   3.386 -1.0789 -0.2030  0.2008
  121fsi    SBT 1136   4.686   0.799   3.251  0.0654  0.2398  0.1287
  121fsi    OBT 1137   4.743   0.793   3.117 -0.1250  0.0527  0.3774
  121fsi    OBT 1138   4.764   0.738   3.359 -0.1929 -0.4220 -0.0345
  121fsi    FSI 1139   4.685   0.957   3.285 -0.3954  0.5388 -0.3083
  122fsi    FSI 1140   3.678   5.288   2.925 -0.0900 -0.3458 -0.7091
  122fsi    SBT 1141   3.774   5.398   2.967 -0.2506 -0.0071 -0.2827
  122fsi    NBT 1142   3.832   5.344   3.097 -0.1768 -0.5454 -0.0869
  122fsi    OBT 1143   3.868   5.410   2.860 -0.2777 -0.0939 -1.0003
  122fsi    OBT 1144   3.687   5.507   2.984 -0.1136 -0.1014  0.8011
  122fsi    SBT 1145   3.786   5.363   3.246 -0.2724 -0.2608  0.1132
  122fsi    OBT 1146   3.657   5.425   3.266  0.4512  0.3831 -0.6929
  122fsi    OBT 1147   3.883   5.409   3.344 -0.1634 -0.1676  0.3068
  122fsi    FSI 1148   3.764   5.214   3.286 -0.3462 -0.2888 -0.4638
  123fsi    FSI 1149   1.093   0.093   2.468  0.1724  0.4954  0.2011
  123fsi    SBT 1150   1.018   0.104   2.323 -0.2007  0.2347 -0.0409
  123fsi    NBT 1151   0.895   0.016   2.343  0.4300 -0.2214  1.0124
  123fsi    OBT 1152   0.997   0.246   2.300  0.5186  0.0491 -0.2351
  123fsi    OBT 1153   1.111   0.041   2.227 -0.0192  0.0816  0.1803
  123fsi    SBT 1154   0.745   0.053   2.340  0.3315  0.1477  0.2582
  123fsi    OBT 1155   0.662  -0.064   2.315 -0.2034  0.3062 -0.1889
  123fsi    OBT 1156   0.704   0.185   2.292  0.2023  0.3575 -0.5965
  123fsi    FSI 1157   0.714   0.066   2.494  0.1786  0.1934 -0.2960
  124fsi    FSI 1158   0.806   5.320   3.207 -0.1048 -0.5050  0.0498
  124fsi    SBT 1159   0.713   5.417   3.118 -0.2674 -0.1411 -0.0541
  124fsi    NBT 1160   0.675   5.324   2.994  0.5883  0.1174  0.4483
  124fsi    OBT 1161   0.604   5.447   3.206  0.0138 -0.4152  0.0440
  124fsi    OBT 1162   0.797   5.524   3.080 -0.0686  0.4551  0.4478
  124fsi    SBT 1163   0.536   5.269   2.953  0.1482 -0.3929 -0.4940
  124fsi    OBT 1164   0.526   5.204   2.823 -0.7314 -0.9511 -0.2347
  124fsi    OBT 1165   0.422   5.355   2.988 -0.0066 -0.5287  0.1929
  124fsi    FSI 1166   0.525   5.153   3.047 -0.0969  0.4812 -0.2322
  125fsi    FSI 1167   5.432   1.377   3.000 -0.5549 -0.1720 -0.0058
  125fsi    SBT 1168   5.413   1.235   3.067 -0.0516  0.3133 -0.2945
  125fsi    NBT 1169   5.295   1.259   3.169 -0.0243 -0.5222 -0.3167
  125fsi    OBT 1170   5.370   1.153   2.962  0.6026  0.1767 -0.1655
  125fsi    OBT 1171   5.539   1.211   3.137 -0.0028 -0.4872 -0.5184
  125fsi    SBT 1172   5.147   1.306   3.136  0.0418 -0.2368  0.3894
  125fsi    OBT 1173   5.041   1.243   3.218  0.3926  0.9940  0.4343
  125fsi    OBT 1174   5.123   1.320   2.993 -0.3923  0.2256 -0.5479
  125fsi    FSI 1175   5.147   1.449   3.190  0.2399  0.4506 -0.2818
  126fsi    FSI 1176   1.093   5.261   1.909 -0.9794 -0.1880  0.2579
  126fsi    SBT 1177   1.073   5.378   2.015 -0.0233  0.1161 -0.1908
  126fsi    NBT 1178   0.961   5.462   1.951  0.3605  0.1682 -1.2204
  126fsi    OBT 1179   1.046   5.305   2.142 -0.2633 -0.1518 -0.4808
  126fsi    OBT 1180   1.201   5.448   2.011  0.2812 -0.1717 -0.0425
  126fsi    SBT 1181   0.806   5.458   1.980  0.1785 -0.3010  0.3977
  126fsi    OBT 1182   0.741   5.579   1.934 -0.0067 -1.0268  0.3573
  126fsi    OBT 1183   0.756   5.408   2.109 -0.6836  0.1431  0.1376
  126fsi    FSI 1184   0.755   5.348   1.874 -0.0226  0.5356 -0.3933
  127fsi    FSI 1185   0.405   0.351   3.556 -0.2379  0.4239  0.3251
  127fsi    SBT 1186   0.394   0.355   3.402  0.1543 -0.5618  0.5175
  127fsi    NBT 1187   0.530   0.293   3.352  0.4623 -0.4015 -0.7574
  127fsi    OBT 1188   0.276   0.274   3.373 -0.3183 -0.1126  0.3645
  127fsi    OBT 1189   0.379   0.494   3.371 -0.0297 -0.3858  0.3769
  127fsi    SBT 1190   0.559   0.148   3.293  0.7069 -0.0378 -0.1062
  127fsi    OBT 1191   0.692   0.149   3.231 -0.3468 -0.0587  0.0128
  127fsi    OBT 1192   0.455   0.082   3.220  0.0785 -0.4617  0.4096
  127fsi    FSI 1193   0.572   0.060   3.426  0.4230  0.6030  0.3544
  128fsi    FSI 1194   4.917   1.601   1.985  0.4142  0.5031 -0.2453
  128fsi    SBT 1195   4.890   1.481   2.085 -0.1241  0.4212  0.3676
  128fsi    NBT 1196   4.881   1.561   2.220  1.2358 -0.1805  0.0639
  128fsi    OBT 1197   4.773   1.413   2.041  1.1639 -0.2514  0.1513
  128fsi    OBT 1198   5.011   1.402   2.078 -0.1891  0.0589  0.6724
  128fsi    SBT 1199   4.776   1.548   2.337 -0.2796 -0.2419  0.0707
  128fsi    OBT 1200   4.838   1.594   2.455 -0.0673 -0.3203 -0.2051
  128fsi    OBT 1201   4.708   1.423   2.345  0.9194  0.2197  0.7314
  128fsi    FSI 1202   4.658   1.653   2.302 -0.2407  0.0984 -0.0583
  129fsi    FSI 1203   3.143   5.030   3.649  0.5125 -0.1846 -0.2904
  129fsi    SBT 1204   3.014   5.122   3.624  0.1772  0.0993 -0.1559
  129fsi    NBT 1205   2.903   5.021   3.671 -0.5118  0.6183 -0.1461
  129fsi    OBT 1206   3.029   5.236   3.708 -0.1517 -0.1572 -0.4539
  129fsi    OBT 1207   3.008   5.144   3.484  0.2588 -0.7959 -0.0942
  129fsi    SBT 1208   2.840   5.028   3.814  0.0310  0.0728 -0.4287
  129fsi    OBT 1209   2.703   5.070   3.807  0.2502 -0.3082 -0.4060
  129fsi    OBT 1210   2.919   5.083   3.926  0.3292  0.4920 -0.2841
  129fsi    FSI 1211   2.836   4.880   3.851  0.0947 -0.0561 -0.7280
  130fsi    FSI 1212   5.371   0.030   2.832 -0.1557  0.2833 -0.2865
  130fsi    SBT 1213   5.439   0.046   2.686 -0.2632  0.2246  0.2604
  130fsi    NBT 1214   5.399  -0.088   2.610  0.2050 -0.0697 -0.7568
  130fsi    OBT 1215   5.385   0.163   2.629  0.0493  0.1628  0.4564
  130fsi    OBT 1216   5.577   0.042   2.713  0.1566  0.0132  0.1218
  130fsi    SBT 1217   5.338  -0.110   2.465 -0.1410  0.0377 -0.3508
  130fsi    OBT 1218   5.344  -0.246   2.415 -0.4734 -0.0861 -0.3245
  130fsi    OBT 1219   5.368  -0.001   2.373  0.2927 -0.1049  0.3338
  130fsi    FSI 1220   5.182  -0.090   2.485  0.0614  0.4640  0.5109
  131fsi    FSI 1221   0.041   5.431   2.438 -0.4069 -0.1636  0.2458
  131fsi    SBT 1222   0.201   5.458   2.463 -0.0145  0.0310  0.2974
  131fsi    NBT 1223   0.249   5.313   2.488  0.1051  0.3631  0.1501
  131fsi    OBT 1224   0.241   5.515   2.338 -0.2149 -0.1055  0.2684
  131fsi    OBT 1225   0.209   5.534   2.583  0.2512  0.1848  0.4448
  131fsi    SBT 1226   0.362   5.229   2.419  0.1348 -0.5672 -0.0202
  131fsi    OBT 1227   0.408   5.130   2.511 -0.2231  0.2272  0.4548
  131fsi    OBT 1228   0.458   5.295   2.332 -0.1932  0.5728 -0.0442
  131fsi    FSI 1229   0.277   5.153   2.314  0.3971 -0.2759  0.0870
  132fsi    FSI 1230   1.556   0.012   2.806  0.7784  0.1671 -0.0692
  132fsi    SBT 1231   1.551   0.109   2.679 -0.2717 -0.3137 -0.3023
  132fsi    NBT 1232   1.627   0.227   2.741  0.1431 -0.1774  0.3812
  132fsi    OBT 1233   1.611   0.040   2.573 -0.0148  0.4512  0.7146
  132fsi    OBT 1234   1.407   0.129   2.656 -0.1601 -0.0855  0.4040
  132fsi    SBT 1235   1.581   0.357   2.817  0.2605  0.4173  0.1152
  132fsi    OBT 1236   1.450   0.348   2.880 -0.4955  0.1324  0.9489
  132fsi    OBT 1237   1.602   0.472   2.737  0.1132  0.5096  0.0969
  132fsi    FSI 1238   1.680   0.363   2.939  0.6633  0.7425  0.1116
  133fsi    FSI 1239   0.514   0.325   1.521 -0.1744 -0.0626 -0.0694
  133fsi    SBT 1240   0.420   0.296   1.639  0.3727  0.6643  0.3994
  133fsi    NBT 1241   0.287   0.252   1.566  0.5360  0.1434 -0.1898
  133fsi    OBT 1242   0.485   0.176   1.695  0.1789 -0.1872 -0.3228
  133fsi    OBT 1243   0.416   0.420   1.714 -0.3600  0.8316  0.3299
  133fsi    SBT 1244   0.138   0.305   1.582  0.1210  0.2761 -0.0129
  133fsi    OBT 1245   0.110   0.345   1.715 -0.5053 -0.0657 -0.4150
  133fsi    OBT 1246   0.043   0.208   1.528  0.2524  0.3261  0.3315
  133fsi    FSI 1247   0.136   0.430   1.494  0.3484  0.5597  0.4375
  134fsi    FSI 1248   4.061   0.564   2.998  0.5845 -0.2728  0.0293
  134fsi    SBT 1249   3.973   0.653   3.099 -0.0898 -0.1209  0.3064
  134fsi    NBT 1250   4.006   0.795   3.048  0.5366 -0.8421  0.6607
  134fsi    OBT 1251   3.842   0.611   3.066 -0.2141 -0.0457  0.1848
  134fsi    OBT 1252   4.019   0.618   3.234  0.4027 -0.4651 -0.0712
  134fsi    SBT 1253   3.915   0.908   2.986  0.5089 -0.4567  0.1864
  134fsi    OBT 1254   3.972   1.043   2.992  0.0621 -0.1678 -0.2704
  134fsi    OBT 1255   3.780   0.899   3.022  0.1307  0.1896 -0.1814
  134fsi    FSI 1256   3.912   0.872   2.829 -0.1693 -0.1412 -0.3087
  135fsi    FSI 1257   0.310   5.426   1.794 -0.4914  0.0635  0.4174
  135fsi    SBT 1258   0.283   5.462   1.945  0.3952  0.2886  0.5488
  135fsi    NBT 1259   0.253   5.616   1.942  0.6811  0.0131  0.1299
  135fsi    OBT 1260   0.162   5.396   1.967  0.5021  0.5565 -0.6517
  135fsi    OBT 1261   0.408   5.427   2.010  0.1839  0.1101 -0.4683
  135fsi    SBT 1262   0.320   5.749   2.000  0.1274 -0.0606  0.1096
  135fsi    OBT 1263   0.277   5.876   1.942 -0.4246  0.4470 -0.0344
  135fsi    OBT 1264   0.460   5.738   2.020  0.1052  0.3342  0.8129
  135fsi    FSI 1265   0.258   5.761   2.145  0.3306  0.6602 -0.0137
  136fsi    FSI 1266   5.451   5.491   3.351 -0.5228  0.0274 -0.2452
  136fsi    SBT 1267   5.528   5.549   3.225  0.0503  0.0224 -0.0966
  136fsi    NBT 1268   5.665   5.471   3.236 -0.2316  0.7474 -0.0282
  136fsi    OBT 1269   5.448   5.504   3.115  0.3921  0.2684 -0.1771
  136fsi    OBT 1270   5.534   5.687   3.252  0.3825 -0.3891  0.1245
  136fsi    SBT 1271   5.803   5.516   3.287  0.4968 -0.0553 -0.1770
  136fsi    OBT 1272   5.796   5.656   3.337 -0.4085 -0.2767  0.1082
  136fsi    OBT 1273   5.917   5.481   3.211  0.3778  0.0434 -0.1395
  136fsi    FSI 1274   5.822   5.431   3.417  0.0485 -0.2564  0.3789
  137fsi    FSI 1275   1.859   0.223   3.458  0.3307  0.2860 -0.1715
  137fsi    SBT 1276   1.861   0.319   3.591  0.6800 -0.1516  0.0728
  137fsi    NBT 1277   1.908   0.455   3.525 -0.7796  0.1479 -0.2256
  137fsi    OBT 1278   1.726   0.314   3.637 -0.0295  0.7499  0.8881
  137fsi    OBT 1279   1.958   0.262   3.682 -0.1251  0.2836  0.5015
  137fsi    SBT 1280   2.053   0.505   3.500  0.6352 -0.0929  0.1916
  137fsi    OBT 1281   2.060   0.598   3.392  0.5346  0.1298 -0.3536
  137fsi    OBT 1282   2.147   0.398   3.493 -0.0464  0.0576  0.6489
  137fsi    FSI 1283   2.089   0.588   3.635 -0.1164  0.0256 -0.4683
  138fsi    FSI 1284   2.668   0.244   3.244  0.7652 -0.4680  0.4396
  138fsi    SBT 1285   2.689   0.222   3.090  0.0896  0.1678  0.0098
  138fsi    NBT 1286   2.583   0.113   3.042  0.2923 -0.0423 -0.5123
  138fsi    OBT 1287   2.665   0.350   3.029 -0.3635 -0.1337  0.8442
  138fsi    OBT 1288   2.828   0.173   3.075 -0.1150 -0.0256  0.2804
  138fsi    SBT 1289   2.433   0.122   3.014 -0.8446  0.0315  0.1164
  138fsi    OBT 1290   2.357   0.184   3.119  0.3850 -0.0800 -0.1276
  138fsi    OBT 1291   2.383   0.005   2.952 -0.1146 -0.8154  0.4082
  138fsi    FSI 1292   2.426   0.222   2.890  0.0508  0.3214  0.1958
  139fsi    FSI 1293   4.767   0.152   3.655  0.2103 -0.6543  0.0809
  139fsi    SBT 1294   4.787   0.210   3.514  0.2957  0.2713 -0.4870
  139fsi    NBT 1295   4.817   0.360   3.533 -0.6673 -0.8680 -0.0641
  139fsi    OBT 1296   4.896   0.130   3.466  0.0800 -0.5612 -1.0468
  139fsi    OBT 1297   4.662   0.187   3.445  0.3386 -0.0950 -0.1603
  139fsi    SBT 1298   4.946   0.437   3.572 -0.3219  0.2211 -0.4034
  139fsi    OBT 1299   4.902   0.572   3.608  0.3699  0.1653  0.8614
  139fsi    OBT 1300   5.053   0.426   3.482  0.0593  0.3908  0.0897
  139fsi    FSI 1301   4.996   0.369   3.705  0.7127  0.1863 -0.3363
  140fsi    FSI 1302   0.055   0.129   2.978 -0.0905 -0.6167  0.4496
  140fsi    SBT 1303   0.078   0.283   2.984  0.2309  0.2967  0.5415
  140fsi    NBT 1304   0.199   0.301   2.898 -0.1392  0.1243  0.9661
  140fsi    OBT 1305  -0.040   0.335   2.930  0.4201  0.3373 -0.5334
  140fsi    OBT 1306   0.099   0.298   3.125  0.5190 -0.3820  0.2846
  140fsi    SBT 1307   0.319   0.406   2.922  0.4380 -0.2845  0.8155
  140fsi    OBT 1308   0.453   0.364   2.896  0.8601 -0.2627 -0.1452
  140fsi    OBT 1309   0.299   0.499   3.032 -0.0037  0.1743  0.8249
  140fsi    FSI 1310   0.302   0.514   2.806  0.3823  0.5176  0.2205
  141fsi    FSI 1311   1.471   0.245   2.325 -0.2462 -0.3744  0.0238
  141fsi    SBT 1312   1.444   0.405   2.335 -0.3543 -0.2661 -0.2634
  141fsi    NBT 1313   1.285   0.412   2.329 -0.0863 -0.1809 -0.4587
  141fsi    OBT 1314   1.495   0.434   2.466 -0.1704 -0.0441 -0.1939
  141fsi    OBT 1315   1.503   0.465   2.217  0.3900 -0.1166  0.0033
  141fsi    SBT 1316   1.190   0.492   2.436  0.1434 -0.0383  0.6994
  141fsi    OBT 1317   1.070   0.543   2.373 -0.1161 -0.2148 -0.3142
  141fsi    OBT 1318   1.259   0.574   2.532  0.0130  0.9870 -0.0076
  141fsi    FSI 1319   1.139   0.371   2.525  0.2199  0.1121 -0.1315
  142fsi    FSI 1320   3.991   0.775   3.596 -0.0298 -0.3813  0.2749
  142fsi    SBT 1321   3.839   0.738   3.596  0.0809  0.0366  0.0956
  142fsi    NBT 1322   3.818   0.665   3.738 -0.1219 -0.1392 -0.4006
  142fsi    OBT 1323   3.770   0.858   3.577 -1.0464 -0.1207  0.2572
  142fsi    OBT 1324   3.832   0.643   3.489 -0.3835 -0.4786 -0.3874
  142fsi    SBT 1325   3.720   0.691   3.857 -0.0263  0.1589 -0.0310
  142fsi    OBT 1326   3.699   0.587   3.949  0.6395  0.2556 -0.3378
  142fsi    OBT 1327   3.596   0.755   3.809 -0.3199 -0.1720 -0.4798
  142fsi    FSI 1328   3.787   0.808   3.934  0.4231 -0.9178  0.1229
  143fsi    FSI 1329   3.198   5.623   3.275 -0.2569 -0.1401  0.1114
  143fsi    SBT 1330   3.267   5.733   3.179 -0.2574 -0.2759 -0.0630
  143fsi    NBT 1331   3.332   5.845   3.270  0.1195  0.2298 -0.1330
  143fsi    OBT 1332   3.376   5.670   3.113 -0.0218 -0.2606 -0.0216
  143fsi    OBT 1333   3.159   5.774   3.097 -0.3518 -0.2458  0.2652
  143fsi    SBT 1334   3.481   5.898   3.289 -0.1821 -0.2595 -0.0690
  143fsi    OBT 1335   3.579   5.802   3.281 -0.2384 -0.0811 -0.6761
  143fsi    OBT 1336   3.495   6.004   3.382 -0.4250 -0.1252  0.4632
  143fsi    FSI 1337   3.498   5.967   3.147  0.1252  0.2062  0.0163
  144fsi    FSI 1338   2.388   0.244   3.661 -0.0564 -0.5226  0.3258
  144fsi    SBT 1339   2.477   0.205   3.539  0.1234 -0.0549  0.2518
  144fsi    NBT 1340   2.450   0.049   3.521  0.1389 -0.1501  0.4009
  144fsi    OBT 1341   2.434   0.290   3.432 -0.1996 -0.4004  0.3555
  144fsi    OBT 1342   2.606   0.234   3.586  0.7937 -0.0847  0.6204
  144fsi    SBT 1343   2.335  -0.020   3.428  0.2399  0.1271 -0.4264
  144fsi    OBT 1344   2.383  -0.117   3.335 -0.4249 -1.0112  0.5919
  144fsi    OBT 1345   2.231   0.072   3.384 -0.3551 -0.1982 -0.0156
  144fsi    FSI 1346   2.270  -0.115   3.533 -0.7901 -0.0250 -0.3562
  145fsi    FSI 1347   4.324   0.689   2.964  0.0585 -0.6508  0.1295
  145fsi    SBT 1348   4.440   0.757   2.872  0.0678 -0.2792  0.1357
  145fsi    NBT 1349   4.474   0.891   2.946  0.2561  0.3128  0.2829
  145fsi    OBT 1350   4.549   0.666   2.885  0.0612 -0.2691  0.1907
  145fsi    OBT 1351   4.383   0.766   2.733 -0.4801 -0.1781 -0.1230
  145fsi    SBT 1352   4.401   1.027   2.929 -0.0778  0.2157  0.1996
  145fsi    OBT 1353   4.429   1.118   3.038 -0.2652 -0.7690  0.1694
  145fsi    OBT 1354   4.265   1.026   2.879 -0.1178 -0.1596  0.7191
  145fsi    FSI 1355   4.481   1.092   2.814  0.2832  0.4687  0.4924
  146fsi    FSI 1356   5.126   1.419   2.453 -0.1757  0.4424  0.5778
  146fsi    SBT 1357   5.056   1.289   2.500 -0.2419 -0.3794  0.0087
  146fsi    NBT 1358   5.166   1.220   2.590  0.4158  0.0536  0.3385
  146fsi    OBT 1359   4.955   1.339   2.586 -0.1243  0.1336  0.1298
  146fsi    OBT 1360   5.017   1.222   2.375 -0.0030 -0.6802  0.7885
  146fsi    SBT 1361   5.264   1.103   2.552 -0.0071 -0.1180 -0.2788
  146fsi    OBT 1362   5.198   1.013   2.461  0.3041  0.1626 -0.5210
  146fsi    OBT 1363   5.324   1.046   2.670 -0.2796  0.1549 -0.1584
  146fsi    FSI 1364   5.383   1.172   2.476  0.2862  0.0843  0.5774
  147fsi    FSI 1365   0.745   0.477   3.212 -0.4328 -0.0053 -0.3179
  147fsi    SBT 1366   0.748   0.505   3.055  0.0499  0.2012  0.2951
  147fsi    NBT 1367   0.614   0.588   3.042 -0.6174  0.6665 -1.2554
  147fsi    OBT 1368   0.868   0.578   3.039  0.1221  0.0386 -0.0989
  147fsi    OBT 1369   0.738   0.369   3.000  0.0303  0.1935  0.5787
  147fsi    SBT 1370   0.589   0.732   2.992  0.6468  0.5028 -0.7440
  147fsi    OBT 1371   0.704   0.819   2.989 -0.3727  0.4995 -0.1893
  147fsi    OBT 1372   0.466   0.776   3.054 -0.0920  0.2424  0.0755
  147fsi    FSI 1373   0.541   0.719   2.846 -0.4911  0.1013 -0.0062
  148fsi    FSI 1374   2.979   0.010   4.104 -0.3511 -0.0768 -0.4198
  148fsi    SBT 1375   3.054   0.018   3.973  0.0558 -0.2397 -0.4328
  148fsi    NBT 1376   3.186  -0.060   3.995  0.2313 -0.1120  0.2112
  148fsi    OBT 1377   2.965  -0.051   3.888 -0.6137 -0.1047 -0.1562
  148fsi    OBT 1378   3.067   0.157   3.948  0.1913 -0.0736  0.2744
  148fsi    SBT 1379   3.197  -0.215   4.019 -0.1342 -0.1525 -0.0289
  148fsi    OBT 1380   3.318  -0.272   3.964 -0.0158 -0.2424 -0.1542
  148fsi    OBT 1381   3.070  -0.291   4.002  0.2505 -0.2264 -0.1148
  148fsi    FSI 1382   3.216  -0.219   4.178  0.1441  0.0580 -0.4650
  149fsi    FSI 1383   1.025   0.826   3.436 -0.9017  0.0427 -0.2850
  149fsi    SBT 1384   0.964   0.829   3.298 -0.1104  0.3761 -0.0154
  149fsi    NBT 1385   0.823   0.767   3.330  0.0967 -0.2775 -0.0013
  149fsi    OBT 1386   0.959   0.967   3.261 -0.5124  0.5373 -0.2585
  149fsi    OBT 1387   1.052   0.740   3.236 -0.4541  0.2022 -0.0774
  149fsi    SBT 1388   0.683   0.829   3.350 -0.3176  0.4797  0.4838
  149fsi    OBT 1389   0.578   0.731   3.344  0.1150  0.6579 -0.0299
  149fsi    OBT 1390   0.662   0.945   3.270  0.8383 -0.3495  0.3551
  149fsi    FSI 1391   0.680   0.883   3.499 -0.2142 -0.6725  0.3004
  150fsi    FSI 1392   4.252   1.741   3.215  0.3345  0.6089  0.2644
  150fsi    SBT 1393   4.271   1.588   3.247  0.0731 -0.1484  0.1743
  150fsi    NBT 1394   4.245   1.529   3.104  0.7183  0.0231 -0.2282
  150fsi    OBT 1395   4.406   1.578   3.289 -0.1107  0.0067 -0.8572
  150fsi    OBT 1396   4.165   1.567   3.346  0.2306 -0.2924 -0.6739
  150fsi    SBT 1397   4.118   1.449   3.047  0.1926  0.2255  0.2122
  150fsi    OBT 1398   3.998   1.468   3.121 -0.0212 -0.0248  0.2131
  150fsi    OBT 1399   4.144   1.317   2.999 -0.1828  0.3140 -0.3092
  150fsi    FSI 1400   4.090   1.534   2.925 -0.8164  0.3271  0.0360
   5.64600   5.64600   5.64600
