L2P1 short trajectory practice
 1400
    1Li+     Li    1   0.735   2.132   0.597 -0.0522  0.3505  0.4758
    2Li+     Li    2   1.820   0.549   1.277  1.3719  0.2344 -0.2285
    3Li+     Li    3   0.646   2.597   2.219 -0.4891 -0.0449  0.4460
    4Li+     Li    4   0.430   2.427   0.662  0.9420  0.4339 -1.1310
    5Li+     Li    5   0.404   0.181   0.095  0.0332 -0.8139  0.2710
    6Li+     Li    6   0.805   1.975   2.045 -1.5893 -1.0002 -0.5730
    7Li+     Li    7   0.476   0.298   1.316 -1.3855  0.6016  0.6082
    8Li+     Li    8   1.578   0.622   1.018 -0.6059  0.2248  0.3425
    9Li+     Li    9   1.214   1.021   1.385  0.2803  0.4793  0.3235
   10Li+     Li   10   0.154   2.577   1.041  0.3002  0.1973 -0.5218
   11Li+     Li   11   0.723   0.612   2.574  1.1737 -0.3862 -0.6806
   12Li+     Li   12   1.457   1.659   1.477  1.0043 -0.3572 -0.5512
   13Li+     Li   13   1.385   1.428   2.515  1.5572 -0.3752 -0.6666
   14Li+     Li   14   0.897   2.642   0.569 -0.0031  0.0145  1.2059
   15Li+     Li   15   0.687   0.241   0.863  0.0591 -0.5580 -1.2352
   16Li+     Li   16   0.139   2.387   0.405 -0.1208  0.1945  0.5969
   17Li+     Li   17   2.278   2.187   0.580  0.4995 -0.7794 -0.4413
   18Li+     Li   18   0.884   1.783   1.397 -0.1453  1.3501  0.2094
   19Li+     Li   19   0.928   0.079   1.642 -0.1315  0.4398  0.8335
   20Li+     Li   20   0.385   1.243   2.491  0.0008 -0.6520  0.4495
   21Li+     Li   21   1.427   0.308   1.611  0.0216  0.3154  0.6074
   22Li+     Li   22   0.859   0.778   0.960 -0.2218  0.1722  0.4369
   23Li+     Li   23   1.141   2.385   1.628 -0.4402  0.2727 -0.6300
   24Li+     Li   24   0.883   2.294   1.096  0.6788  0.3733  0.5837
   25Li+     Li   25   1.296   0.492   2.490 -0.4105  0.9832  0.0986
   26Li+     Li   26   0.221   0.063   1.826 -0.4178 -0.4733 -0.2092
   27Li+     Li   27   1.611   1.979   0.900  0.4167  1.0900 -0.0591
   28Li+     Li   28   2.216   2.298   1.594 -0.2874  0.0819  0.6254
   29Li+     Li   29   1.119   1.006   2.395 -0.9775 -0.8713 -0.1523
   30Li+     Li   30   1.453   2.150   1.344  0.0810 -0.3950 -0.4946
   31Li+     Li   31   1.277   1.647   2.056 -0.1131  0.6185  0.5134
   32Li+     Li   32   0.770   1.435   2.421 -1.3819 -0.4225 -0.3432
   33Li+     Li   33   0.523   0.780   1.551 -0.4095 -0.8386 -0.4328
   34Li+     Li   34   0.974   2.627   0.034 -0.2798  0.1966 -0.3229
   35Li+     Li   35   0.733   0.558   0.384 -0.0815  0.8449  0.1428
   36Li+     Li   36   0.871   0.345   1.191  1.2761  0.4022 -0.6787
   37Li+     Li   37   0.724   1.086   0.266 -0.0136  1.1440  0.5738
   38Li+     Li   38   1.873   1.535   1.023  0.6211  1.1938 -0.0485
   39Li+     Li   39   2.530   1.532   1.118 -0.3117 -0.0551  1.2434
   40Li+     Li   40   1.604   0.015   2.632 -0.6414  0.1321 -0.3120
   41Li+     Li   41   2.055   0.563   0.721 -0.0471  0.9919  0.4856
   42Li+     Li   42   1.780   2.322   1.672  0.2201  0.0394  0.6453
   43Li+     Li   43   0.202   1.360   1.380  0.3398 -0.2612 -0.0695
   44Li+     Li   44   0.734   0.473   1.993  0.5389  0.3535 -0.4333
   45Li+     Li   45   2.090   1.903   1.052  0.2192 -1.1126  0.0184
   46Li+     Li   46   1.170   0.642   1.918  0.5508  0.9560  1.2737
   47Li+     Li   47   2.440   1.135   1.675 -0.7749 -0.6911 -0.8076
   48Li+     Li   48   2.283   1.941   1.299  0.1719 -0.1760 -1.2044
   49Li+     Li   49   1.570   0.841   2.405 -0.3413  0.0109 -0.1954
   50Li+     Li   50   0.114   0.383   1.582 -0.6473  0.1372 -0.0968
   51c3c     N4   51   0.310   1.801   0.939  0.0399 -0.1564 -0.1756
   51c3c     C1   52   0.335   1.713   1.054  0.4548  0.3899  0.1320
   51c3c     C1   53   0.440   1.836   0.888  0.0731  0.0490 -0.4022
   51c3c     C2   54   0.452   1.623   1.010 -0.1800 -0.3064 -0.0644
   51c3c     C2   55   0.528   1.711   0.906  0.5248 -0.3218 -0.6385
   51c3c     C1   56   0.240   1.732   0.831 -0.0790  0.3073  0.0858
   51c3c     C1   57   0.232   1.921   0.971 -0.5266  0.2018  0.4161
   51c3c     H1   58   0.249   1.654   1.083  1.2749 -0.7876  0.2247
   51c3c     H1   59   0.365   1.770   1.142  2.1865  1.0503 -0.8509
   51c3c     H1   60   0.442   1.880   0.789  0.0664 -0.7769 -0.7764
   51c3c     H1   61   0.498   1.903   0.951 -1.1991  0.5227  0.2970
   51c3c     HC   62   0.410   1.533   0.966 -0.3684 -0.2764  0.0498
   51c3c     HC   63   0.523   1.610   1.092 -1.4003  0.1399  1.0976
   51c3c     HC   64   0.555   1.657   0.816  2.5171  0.3308 -0.4512
   51c3c     HC   65   0.618   1.735   0.963  0.7475  0.9163 -1.4994
   51c3c     H1   66   0.141   1.702   0.864 -0.4866  0.2573 -1.1456
   51c3c     H1   67   0.223   1.801   0.748 -1.8781 -0.6470 -0.3736
   51c3c     H1   68   0.295   1.642   0.800 -2.6786 -0.8989 -1.2047
   51c3c     H1   69   0.219   1.985   0.883  2.0511 -0.2676 -0.3364
   51c3c     H1   70   0.132   1.888   1.001 -1.1587  1.6522 -0.0432
   51c3c     C2   71   0.280   2.013   1.081  0.3308  0.3975 -0.6812
   51c3c     HC   72   0.387   2.035   1.087  0.3720  0.2786 -0.9626
   51c3c     HC   73   0.267   1.982   1.184  0.4729  6.0359  1.1707
   51c3c     CT   74   0.216   2.152   1.068 -0.0236 -0.3953  0.6016
   51c3c     HC   75   0.107   2.149   1.070 -0.0055 -1.7054  0.5695
   51c3c     HC   76   0.246   2.195   0.972 -0.6475  1.5653  1.2679
   51c3c     HC   77   0.252   2.213   1.150 -0.0062  1.8690 -1.0378
   52c3c     N4   78   1.697   0.346   0.262 -0.0623 -0.1909  0.0547
   52c3c     C1   79   1.724   0.448   0.366 -0.0330  0.9486  0.1258
   52c3c     C1   80   1.563   0.378   0.214  0.0100 -0.5681 -0.0400
   52c3c     C2   81   1.666   0.583   0.322 -0.3728 -0.2807 -0.2896
   52c3c     C2   82   1.554   0.537   0.229 -0.2355  0.4165  0.4601
   52c3c     C1   83   1.799   0.370   0.161 -0.9350  0.2199  0.5174
   52c3c     C1   84   1.711   0.202   0.302 -0.4170 -0.6210  0.3929
   52c3c     H1   85   1.829   0.451   0.392  0.1210  1.8580 -0.5758
   52c3c     H1   86   1.672   0.418   0.457 -1.5221 -2.1307 -1.6394
   52c3c     H1   87   1.553   0.350   0.109  0.0701 -2.0258  0.3319
   52c3c     H1   88   1.481   0.327   0.265 -0.0567 -1.2416 -0.8024
   52c3c     HC   89   1.735   0.648   0.268  0.4016 -1.5931 -0.9005
   52c3c     HC   90   1.617   0.644   0.397 -0.1559  1.2271 -1.3412
   52c3c     HC   91   1.577   0.575   0.130  0.2645  2.5888  1.3882
   52c3c     HC   92   1.458   0.575   0.264  0.0872  0.9831  0.7287
   52c3c     H1   93   1.901   0.358   0.199 -1.3559  0.1648  1.6336
   52c3c     H1   94   1.776   0.309   0.074 -0.9071 -0.8851  1.2807
   52c3c     H1   95   1.802   0.474   0.128 -0.6498  0.3531  0.9566
   52c3c     H1   96   1.676   0.144   0.217  0.3903 -1.0265  0.3434
   52c3c     H1   97   1.812   0.172   0.326 -0.5839 -0.7305  0.9726
   52c3c     C2   98   1.630   0.154   0.428 -0.3464  0.4541 -0.2001
   52c3c     HC   99   1.523   0.162   0.409 -0.6224 -1.1621  0.6408
   52c3c     HC  100   1.648   0.219   0.515 -2.8287 -0.1839  0.8305
   52c3c     CT  101   1.655   0.006   0.456 -0.3996  0.1025 -0.0606
   52c3c     HC  102   1.761  -0.019   0.462  0.3191  2.7748 -0.7325
   52c3c     HC  103   1.601  -0.053   0.382  0.7372 -0.5517 -0.3833
   52c3c     HC  104   1.619  -0.007   0.558 -0.7276  1.4063  0.0033
   53c3c     N4  105   1.773   1.093   1.325 -0.6965 -0.4392  0.5347
   53c3c     C1  106   1.738   1.209   1.408 -0.3337  0.4155 -0.1573
   53c3c     C1  107   1.713   0.977   1.393  0.8245 -0.8823  0.4736
   53c3c     C2  108   1.594   1.180   1.452  0.2314  0.5164  0.7907
   53c3c     C2  109   1.609   1.033   1.492  0.4063  0.5737  0.1590
   53c3c     C1  110   1.733   1.112   1.185 -0.5716 -0.2032  0.7886
   53c3c     C1  111   1.917   1.070   1.328 -0.1779 -0.4992 -0.0269
   53c3c     H1  112   1.749   1.301   1.351  1.3248  1.0996  1.2104
   53c3c     H1  113   1.792   1.218   1.503  1.1682 -1.5255 -0.7988
   53c3c     H1  114   1.661   0.903   1.332 -3.1508  0.4531  2.0017
   53c3c     H1  115   1.782   0.910   1.443  0.6163 -0.4335  1.3774
   53c3c     HC  116   1.530   1.180   1.364  2.5140 -0.8838 -0.9243
   53c3c     HC  117   1.545   1.243   1.526 -0.2438  1.1973 -0.0949
   53c3c     HC  118   1.519   0.972   1.485  0.3508  0.1089  4.0366
   53c3c     HC  119   1.641   1.025   1.595  0.8853 -1.3039 -0.1224
   53c3c     H1  120   1.625   1.123   1.178 -0.9101 -3.3593  0.2549
   53c3c     H1  121   1.771   1.204   1.140  1.8530 -1.3382  0.4297
   53c3c     H1  122   1.745   1.026   1.119 -1.8925  2.3711 -2.9194
   53c3c     H1  123   1.945   1.053   1.432  0.4426 -2.8756 -0.5565
   53c3c     H1  124   1.939   0.980   1.270 -1.0624 -2.3274  2.3855
   53c3c     C2  125   2.000   1.185   1.272 -0.6735 -0.6281 -0.3636
   53c3c     HC  126   1.951   1.278   1.301  0.4901 -0.5848  1.5755
   53c3c     HC  127   1.998   1.186   1.163  0.7869 -0.6374 -0.4010
   53c3c     CT  128   2.142   1.196   1.331 -0.0214  0.1883  0.0164
   53c3c     HC  129   2.189   1.100   1.305 -2.9108 -0.9063 -1.3968
   53c3c     HC  130   2.127   1.198   1.438  0.4146 -0.8111  0.1065
   53c3c     HC  131   2.197   1.279   1.287 -1.0700 -0.7837 -3.3605
   54c3c     N4  132   1.733   1.930   0.306  0.2334 -0.2901 -0.1196
   54c3c     C1  133   1.748   1.827   0.412  0.0967 -0.3894 -0.3903
   54c3c     C1  134   1.812   1.872   0.196 -0.0301 -0.3527  0.1829
   54c3c     C2  135   1.895   1.776   0.404 -0.4629 -0.5333 -0.3097
   54c3c     C2  136   1.940   1.818   0.261 -0.6466  0.4424 -0.4024
   54c3c     C1  137   1.590   1.948   0.275  0.0335 -0.4579 -0.5152
   54c3c     C1  138   1.793   2.061   0.356 -0.0363  0.3687 -0.0070
   54c3c     H1  139   1.689   1.742   0.378  1.9036 -1.2696 -1.3954
   54c3c     H1  140   1.720   1.855   0.513  0.7745 -3.3038  0.6424
   54c3c     H1  141   1.762   1.781   0.162 -1.2043  1.0609 -1.9443
   54c3c     H1  142   1.837   1.938   0.114 -3.3460  0.3549 -0.3295
   54c3c     HC  143   1.885   1.668   0.410 -0.0245 -0.6393 -1.4943
   54c3c     HC  144   1.958   1.809   0.486  0.4322  0.5670 -1.4231
   54c3c     HC  145   1.990   1.738   0.206 -0.5845  1.1249 -1.3625
   54c3c     HC  146   2.015   1.896   0.268 -0.0598 -0.3002  2.1001
   54c3c     H1  147   1.584   2.020   0.194  2.6526  0.7628  0.3143
   54c3c     H1  148   1.558   1.850   0.237 -1.0684 -0.5922  0.7312
   54c3c     H1  149   1.527   1.970   0.361 -1.2918 -0.6625 -1.4088
   54c3c     H1  150   1.737   2.094   0.443 -2.2013  0.3930 -1.3849
   54c3c     H1  151   1.890   2.041   0.401 -0.9249 -1.1391  1.2794
   54c3c     C2  152   1.809   2.182   0.267 -0.3985 -0.0759 -0.2775
   54c3c     HC  153   1.716   2.233   0.240  0.9397  0.1473 -4.8297
   54c3c     HC  154   1.854   2.160   0.170  0.9976 -0.3671  0.4243
   54c3c     CT  155   1.892   2.283   0.338 -0.0821  0.1087 -0.3782
   54c3c     HC  156   1.837   2.347   0.407 -0.6374  0.5386 -1.1964
   54c3c     HC  157   1.931   2.358   0.268  3.0714 -1.3080 -0.2355
   54c3c     HC  158   1.984   2.244   0.381  0.5983 -0.4316 -2.2736
   55c3c     N4  159   1.046   1.919   0.040 -0.0455 -0.0269  0.6557
   55c3c     C1  160   1.095   2.005   0.141  0.7975 -0.2436 -0.2387
   55c3c     C1  161   0.953   2.011  -0.031 -0.9578 -0.4510 -1.0528
   55c3c     C2  162   1.133   2.138   0.070  0.6712 -0.0000 -0.4913
   55c3c     C2  163   1.032   2.146  -0.041 -0.0470  0.2607 -0.2187
   55c3c     C1  164   1.161   1.875  -0.041 -0.1313  0.0037 -0.6738
   55c3c     C1  165   0.986   1.794   0.085  0.2576  0.3182 -0.2555
   55c3c     H1  166   1.179   1.966   0.198  0.7671  1.0888  0.7369
   55c3c     H1  167   1.013   2.034   0.206 -0.1677  1.0967 -1.9835
   55c3c     H1  168   0.918   1.972  -0.127  1.3062 -0.9225 -1.7212
   55c3c     H1  169   0.864   2.031   0.029  0.0893 -0.4852  0.5468
   55c3c     HC  170   1.232   2.119   0.028 -0.4937 -2.6783 -2.2032
   55c3c     HC  171   1.148   2.225   0.134  1.3904 -1.0045  0.7358
   55c3c     HC  172   1.077   2.156  -0.140 -0.1140 -0.6763 -0.3527
   55c3c     HC  173   0.966   2.232  -0.033  0.0776  0.3501 -0.1597
   55c3c     H1  174   1.137   1.794  -0.110 -0.0890  0.8762 -1.7200
   55c3c     H1  175   1.211   1.957  -0.092 -0.8098 -0.7322 -2.6090
   55c3c     H1  176   1.239   1.830   0.021 -0.9956  0.5432  0.8172
   55c3c     H1  177   0.938   1.730   0.012  0.0509 -0.3227  0.4368
   55c3c     H1  178   1.055   1.727   0.138 -1.0688  0.5882  1.8865
   55c3c     C2  179   0.884   1.804   0.198 -0.3571 -0.4698 -0.4868
   55c3c     HC  180   0.789   1.846   0.165 -0.4088 -0.4564 -0.3226
   55c3c     HC  181   0.910   1.869   0.281  1.4764 -0.5554 -0.9702
   55c3c     CT  182   0.846   1.662   0.243  0.8663 -0.7307 -0.0357
   55c3c     HC  183   0.784   1.678   0.330  1.4868  1.6296  0.0101
   55c3c     HC  184   0.933   1.602   0.271  2.1185  0.2093 -1.7557
   55c3c     HC  185   0.786   1.604   0.173  1.8160 -0.0725 -1.4251
   56c3c     N4  186   0.337   2.162   2.412 -0.1551  0.1329  0.0857
   56c3c     C1  187   0.466   2.105   2.465 -0.2067 -0.3878 -0.6174
   56c3c     C1  188   0.257   2.179   2.530  0.1861  0.6632 -0.0906
   56c3c     C2  189   0.486   2.174   2.595 -1.0446 -1.4807 -0.6805
   56c3c     C2  190   0.345   2.224   2.638  0.8509 -0.4815  0.3630
   56c3c     C1  191   0.359   2.291   2.346 -0.6848 -0.1351  0.2921
   56c3c     C1  192   0.274   2.067   2.317  0.0319  0.6862 -0.2197
   56c3c     H1  193   0.550   2.103   2.396 -0.4367 -0.4690 -0.8921
   56c3c     H1  194   0.448   2.001   2.493  0.1951 -0.2645  0.1264
   56c3c     H1  195   0.174   2.248   2.520 -0.2870  0.2117  0.6433
   56c3c     H1  196   0.206   2.086   2.555  0.5824  0.4249 -0.1669
   56c3c     HC  197   0.548   2.262   2.582 -1.0691 -1.1705  1.1383
   56c3c     HC  198   0.543   2.114   2.666  0.2136 -0.6295 -0.9589
   56c3c     HC  199   0.349   2.333   2.636  0.1389 -0.4582 -0.5554
   56c3c     HC  200   0.299   2.195   2.733  0.2669 -1.5551 -0.2382
   56c3c     H1  201   0.273   2.332   2.293  0.8706  1.6826 -0.8444
   56c3c     H1  202   0.383   2.366   2.421 -0.6691  0.2685 -0.1197
   56c3c     H1  203   0.442   2.284   2.277 -2.5236  1.6383 -2.1602
   56c3c     H1  204   0.335   2.057   2.227 -0.6885  0.8702 -0.7302
   56c3c     H1  205   0.268   1.972   2.371 -1.3430  0.4558 -0.7418
   56c3c     C2  206   0.124   2.091   2.265 -0.0154  0.0913  0.1372
   56c3c     HC  207   0.135   2.181   2.205 -0.3453  0.5962  0.8270
   56c3c     HC  208   0.049   2.109   2.343  1.6997  0.5267  1.7213
   56c3c     CT  209   0.088   1.979   2.172  0.4241  0.5096 -0.6808
   56c3c     HC  210   0.156   1.982   2.087 -0.7511  0.5154 -1.6477
   56c3c     HC  211  -0.016   1.992   2.142 -0.1061 -1.2849  0.3058
   56c3c     HC  212   0.094   1.877   2.211  0.7603  0.0992 -1.7729
   57c3c     N4  213   2.109   0.385   1.937 -0.2397  0.4393  0.3698
   57c3c     C1  214   2.039   0.272   2.002  0.1414  0.1496  0.5381
   57c3c     C1  215   2.235   0.383   2.012 -0.3969 -0.5843  0.3873
   57c3c     C2  216   2.143   0.156   2.029  0.2646 -0.0306  0.3537
   57c3c     C2  217   2.276   0.238   2.039 -0.1345  0.7851  1.1422
   57c3c     C1  218   2.135   0.364   1.795  0.3336 -0.7308  0.7824
   57c3c     C1  219   2.020   0.507   1.948  0.5853  0.4563  0.3784
   57c3c     H1  220   1.945   0.235   1.960  0.2008 -1.3334  1.6856
   57c3c     H1  221   1.991   0.304   2.095 -0.9592 -0.9711  0.3763
   57c3c     H1  222   2.321   0.428   1.962 -0.2240 -1.1899  0.1387
   57c3c     H1  223   2.234   0.438   2.106  0.6959 -0.7145  0.4844
   57c3c     HC  224   2.142   0.090   1.942  1.4233 -0.9007  0.9859
   57c3c     HC  225   2.108   0.097   2.114 -1.6961  0.7256  0.0892
   57c3c     HC  226   2.340   0.207   1.957  0.3692  0.5075  1.6338
   57c3c     HC  227   2.333   0.231   2.132  1.2655  0.2099  0.2563
   57c3c     H1  228   2.191   0.273   1.774  1.4831 -0.4704  2.5290
   57c3c     H1  229   2.048   0.362   1.730 -1.2723 -1.3294  2.8951
   57c3c     H1  230   2.199   0.442   1.754  0.5439  0.0398  2.5038
   57c3c     H1  231   2.066   0.587   1.890  1.1623  0.0582  0.2828
   57c3c     H1  232   1.928   0.488   1.893  0.0682  0.6881  1.1625
   57c3c     C2  233   1.972   0.558   2.088  0.5423  0.4385 -0.1413
   57c3c     HC  234   2.047   0.573   2.165  0.6514 -1.2853  0.1117
   57c3c     HC  235   1.902   0.486   2.129 -2.4704  2.8169 -0.8586
   57c3c     CT  236   1.896   0.688   2.088 -0.9814 -0.1611 -0.1396
   57c3c     HC  237   1.844   0.698   1.993 -0.1177 -0.8189 -0.6999
   57c3c     HC  238   1.960   0.775   2.105  0.3957 -1.3837  1.1391
   57c3c     HC  239   1.822   0.684   2.168  0.4504  1.1109  1.2909
   58c3c     N4  240   1.035   1.537   0.819  0.1597  0.6693 -0.2774
   58c3c     C1  241   1.137   1.639   0.847 -0.1546  0.1205 -1.1014
   58c3c     C1  242   1.106   1.457   0.716  0.0091  0.4069 -0.1205
   58c3c     C2  243   1.274   1.575   0.852  0.1609  0.6481 -0.1651
   58c3c     C2  244   1.255   1.472   0.746  0.0197  0.0212  0.1038
   58c3c     C1  245   1.011   1.449   0.938 -0.0282  0.3114  0.6652
   58c3c     C1  246   0.908   1.606   0.772 -0.1220  0.7072 -0.0848
   58c3c     H1  247   1.111   1.686   0.942 -1.0796  0.1389 -1.3590
   58c3c     H1  248   1.126   1.724   0.780 -2.1202 -0.3023 -1.3254
   58c3c     H1  249   1.083   1.352   0.733 -0.6285  0.5818  0.1138
   58c3c     H1  250   1.076   1.485   0.615 -1.2359 -0.3166  0.0406
   58c3c     HC  251   1.297   1.523   0.945 -1.7522  0.9180  0.4728
   58c3c     HC  252   1.343   1.655   0.825  0.9707  0.7525  2.1490
   58c3c     HC  253   1.306   1.380   0.773  1.0025  0.5594  0.1313
   58c3c     HC  254   1.298   1.499   0.650  1.1093  1.2763  0.9211
   58c3c     H1  255   0.954   1.362   0.903  2.0750 -0.5383 -0.7675
   58c3c     H1  256   1.097   1.404   0.988 -1.1565 -1.6275  0.9524
   58c3c     H1  257   0.962   1.500   1.020 -0.0194 -0.1119  0.9374
   58c3c     H1  258   0.828   1.535   0.748 -0.9092  1.1024  1.2960
   58c3c     H1  259   0.868   1.658   0.859  0.5587 -0.4438  0.9462
   58c3c     C2  260   0.920   1.689   0.642 -0.6361  0.5119  0.0685
   58c3c     HC  261   0.943   1.629   0.554 -1.3871  1.0219 -0.4850
   58c3c     HC  262   1.004   1.759   0.642  1.3040 -1.7800 -0.9205
   58c3c     CT  263   0.798   1.771   0.602  0.2357 -1.0083  0.2558
   58c3c     HC  264   0.818   1.837   0.518 -1.7132  0.6812  1.0779
   58c3c     HC  265   0.773   1.837   0.685 -1.1492 -2.8163  1.3239
   58c3c     HC  266   0.711   1.711   0.577  0.8560 -1.8231  0.0263
   59c3c     N4  267   0.097   1.366   2.038  0.3117  0.4679 -0.5923
   59c3c     C1  268   0.169   1.402   2.164 -0.1033 -0.9772  0.7809
   59c3c     C1  269   0.208   1.353   1.939  0.5276 -0.1952  0.1838
   59c3c     C2  270   0.300   1.325   2.153  0.6849 -0.4523 -0.0638
   59c3c     C2  271   0.322   1.285   2.006  0.0515 -0.5491  0.4388
   59c3c     C1  272   0.027   1.237   2.054  0.4082  0.1397 -0.4933
   59c3c     C1  273  -0.006   1.466   1.991 -0.0466  0.4064  0.3955
   59c3c     H1  274   0.105   1.390   2.252 -1.7066 -0.0334 -0.2147
   59c3c     H1  275   0.207   1.503   2.151 -0.5000 -0.7694  1.2339
   59c3c     H1  276   0.186   1.300   1.846  0.0655 -1.3348  0.9378
   59c3c     H1  277   0.251   1.447   1.902  1.7218 -0.6002  0.5120
   59c3c     HC  278   0.287   1.230   2.204  1.5917 -1.1477 -1.0952
   59c3c     HC  279   0.376   1.391   2.194  0.3475 -0.2106  0.1668
   59c3c     HC  280   0.320   1.176   2.001  0.7441 -0.7898  3.7470
   59c3c     HC  281   0.422   1.313   1.973 -0.0765  1.9943  2.0746
   59c3c     H1  282  -0.006   1.208   1.954 -0.9628  1.0231 -0.3161
   59c3c     H1  283   0.089   1.157   2.094 -0.6763 -0.1394  0.6847
   59c3c     H1  284  -0.061   1.238   2.119 -0.3666  0.0947 -1.5355
   59c3c     H1  285  -0.035   1.432   1.892 -0.8615  1.6653  0.1905
   59c3c     H1  286  -0.093   1.470   2.057 -1.4331 -0.3368 -1.3502
   59c3c     C2  287   0.028   1.616   1.977  0.2150  0.2379 -0.2725
   59c3c     HC  288   0.121   1.609   1.920  0.1427  1.1991 -0.5253
   59c3c     HC  289   0.058   1.648   2.077  0.6485  1.9249 -0.9273
   59c3c     CT  290  -0.075   1.710   1.912  0.2584 -0.5579 -0.1698
   59c3c     HC  291  -0.157   1.719   1.982  1.0797 -2.6829  1.1154
   59c3c     HC  292  -0.105   1.662   1.818  1.2892 -0.0932 -0.7558
   59c3c     HC  293  -0.038   1.812   1.899  1.2851 -1.0025 -0.8731
   60c3c     N4  294   2.151   1.063   2.339 -0.0436 -0.3347 -0.2099
   60c3c     C1  295   2.287   1.090   2.294 -0.3473  0.0601 -0.0178
   60c3c     C1  296   2.089   1.196   2.333  1.2598  0.1722  0.4314
   60c3c     C2  297   2.288   1.195   2.188 -0.1618  0.2973  0.1266
   60c3c     C2  298   2.165   1.275   2.220 -0.1375 -0.3012  0.4730
   60c3c     C1  299   2.092   0.972   2.243 -1.8009  0.0908  0.0174
   60c3c     C1  300   2.156   1.003   2.472  0.0424 -0.2027 -0.2862
   60c3c     H1  301   2.340   1.002   2.260  0.2280  0.6754 -0.7296
   60c3c     H1  302   2.340   1.132   2.380 -0.3197  0.7263 -0.3570
   60c3c     H1  303   1.980   1.196   2.330  1.2537 -2.2499 -0.0911
   60c3c     H1  304   2.116   1.238   2.430  1.1693  0.2753  0.4123
   60c3c     HC  305   2.278   1.158   2.086  1.3924  1.0465 -0.3103
   60c3c     HC  306   2.381   1.251   2.193 -1.3196  2.0527  2.7633
   60c3c     HC  307   2.095   1.284   2.137  0.2326  2.6499  0.4290
   60c3c     HC  308   2.199   1.377   2.242 -2.1460  0.3010  0.9087
   60c3c     H1  309   2.129   0.869   2.246  0.0065  0.6230 -2.4704
   60c3c     H1  310   1.986   0.956   2.266 -1.7915  0.1858  0.1234
   60c3c     H1  311   2.102   1.011   2.141  0.3414  0.6199  0.4231
   60c3c     H1  312   2.219   0.914   2.466  0.5517  0.2622 -2.1448
   60c3c     H1  313   2.218   1.068   2.534  2.6710 -2.2311 -0.6983
   60c3c     C2  314   2.012   0.961   2.525  0.8978  0.6747  1.4911
   60c3c     HC  315   1.966   0.884   2.463  1.2925 -0.1521  2.2211
   60c3c     HC  316   1.943   1.043   2.508 -0.8567 -1.2661 -1.1595
   60c3c     CT  317   2.003   0.906   2.668  0.3518  0.3623  0.3910
   60c3c     HC  318   1.898   0.903   2.697  1.0271 -0.7074  2.8790
   60c3c     HC  319   2.057   0.964   2.742 -1.0595  1.1910  0.7945
   60c3c     HC  320   2.037   0.803   2.672  1.5833  0.8049  1.8779
   61c3c     N4  321   2.431   0.837   1.151  0.0214 -0.5982 -0.6565
   61c3c     C1  322   2.422   0.984   1.176  0.5892  0.6874 -0.4770
   61c3c     C1  323   2.290   0.800   1.119  0.7368 -0.0768 -0.8649
   61c3c     C2  324   2.323   1.036   1.074 -0.2402  0.1888 -0.1119
   61c3c     C2  325   2.228   0.920   1.058  0.3584  0.0489 -0.2873
   61c3c     C1  326   2.521   0.821   1.030 -0.0706  0.4361 -0.8701
   61c3c     C1  327   2.504   0.764   1.257 -0.5957  0.1543 -0.2932
   61c3c     H1  328   2.515   1.041   1.181  0.4448  1.0950 -2.2357
   61c3c     H1  329   2.373   0.998   1.273  0.5637 -0.0131 -0.3845
   61c3c     H1  330   2.284   0.712   1.055  0.0999  1.5507 -3.0785
   61c3c     H1  331   2.235   0.778   1.211  2.5860 -1.0186  0.0617
   61c3c     HC  332   2.369   1.067   0.980  1.0565 -2.1958 -0.2901
   61c3c     HC  333   2.267   1.123   1.109 -1.9879 -1.3280  0.9409
   61c3c     HC  334   2.203   0.896   0.955  0.3306 -0.2061 -0.2216
   61c3c     HC  335   2.136   0.944   1.111  1.3370 -2.0641  2.5002
   61c3c     H1  336   2.492   0.865   0.935 -0.4354 -2.9662 -2.4097
   61c3c     H1  337   2.620   0.865   1.043 -0.4551  1.4283 -1.2226
   61c3c     H1  338   2.537   0.714   1.015  1.2311  0.2888  1.3465
   61c3c     H1  339   2.484   0.661   1.229 -0.9559  0.5279 -1.4476
   61c3c     H1  340   2.612   0.780   1.252 -0.8122  1.2720 -1.9781
   61c3c     C2  341   2.448   0.787   1.406  0.2800  0.2786 -0.1931
   61c3c     HC  342   2.339   0.796   1.402  0.4068  1.3149 -1.6477
   61c3c     HC  343   2.489   0.878   1.450  1.8780 -1.0330  1.1171
   61c3c     CT  344   2.491   0.674   1.492 -0.0013  0.8200  0.3269
   61c3c     HC  345   2.590   0.639   1.462  0.1488  0.0818  1.6662
   61c3c     HC  346   2.420   0.592   1.477  1.4189 -0.3499 -0.1517
   61c3c     HC  347   2.486   0.700   1.597 -0.4682  0.1291  0.4825
   62c3c     N4  348   2.581   0.449   2.647  1.0834  0.3448 -0.3282
   62c3c     C1  349   2.543   0.591   2.609 -0.1922  0.5201  0.1526
   62c3c     C1  350   2.567   0.459   2.787 -0.6628  0.0305 -0.3073
   62c3c     C2  351   2.612   0.683   2.715 -0.2122 -0.0240  0.2789
   62c3c     C2  352   2.629   0.589   2.832  0.7745 -0.2142 -1.0181
   62c3c     C1  353   2.485   0.353   2.593 -0.4544 -0.1252 -0.6890
   62c3c     C1  354   2.716   0.411   2.612 -0.4501 -0.0049 -0.2201
   62c3c     H1  355   2.435   0.603   2.614 -0.3377 -0.3585 -0.7140
   62c3c     H1  356   2.564   0.612   2.504 -0.4110 -1.9491 -0.4000
   62c3c     H1  357   2.464   0.446   2.821  0.4436 -1.8876  2.5365
   62c3c     H1  358   2.616   0.378   2.842 -1.5984 -1.3406 -1.4768
   62c3c     HC  359   2.550   0.768   2.744 -0.3991  0.2797 -0.9858
   62c3c     HC  360   2.706   0.726   2.678  0.1410 -0.7839  0.2794
   62c3c     HC  361   2.562   0.634   2.906 -0.8059 -1.5413 -1.6042
   62c3c     HC  362   2.727   0.578   2.879  1.0547  0.3863 -1.4617
   62c3c     H1  363   2.507   0.343   2.487 -2.3211  2.1446 -1.3270
   62c3c     H1  364   2.509   0.256   2.637  1.6688 -0.8090 -3.2273
   62c3c     H1  365   2.391   0.404   2.614 -0.1984  0.1928 -0.3201
   62c3c     H1  366   2.777   0.493   2.649 -1.3447 -0.1170  1.5520
   62c3c     H1  367   2.723   0.316   2.664 -2.5367 -0.8236 -1.3478
   62c3c     C2  368   2.751   0.390   2.463  1.0675  0.5561 -0.4600
   62c3c     HC  369   2.721   0.476   2.403  0.8539 -0.5294 -1.9417
   62c3c     HC  370   2.707   0.302   2.417 -0.4794  1.4804 -0.7547
   62c3c     CT  371   2.909   0.363   2.451  0.3220  0.2357 -0.0365
   62c3c     HC  372   2.947   0.263   2.471 -0.3218 -0.2164 -1.0656
   62c3c     HC  373   2.967   0.426   2.520 -0.1818  0.2405  0.3877
   62c3c     HC  374   2.943   0.389   2.351  1.8064  0.7170  0.5660
   63c3c     N4  375   0.279   0.678   2.080 -0.3452 -0.5196  0.7355
   63c3c     C1  376   0.249   0.720   1.944  0.4692 -0.0644 -0.3769
   63c3c     C1  377   0.411   0.730   2.101 -0.3801  0.3774 -0.3506
   63c3c     C2  378   0.312   0.858   1.928  0.1079 -0.1737  0.8743
   63c3c     C2  379   0.430   0.858   2.022 -0.2742  0.8353 -0.4906
   63c3c     C1  380   0.175   0.739   2.168  0.1765  0.2591  0.7576
   63c3c     C1  381   0.274   0.528   2.102  0.1585 -0.5233 -0.0552
   63c3c     H1  382   0.141   0.724   1.926  0.2737 -1.5187  0.3825
   63c3c     H1  383   0.288   0.658   1.863  1.0870 -0.4451  0.2127
   63c3c     H1  384   0.442   0.742   2.205  1.1836 -0.8058 -0.6635
   63c3c     H1  385   0.491   0.664   2.068  0.5448  0.7826  1.0129
   63c3c     HC  386   0.242   0.935   1.960 -1.6093 -0.9635 -0.8864
   63c3c     HC  387   0.353   0.884   1.831 -1.5225 -2.4938 -0.5023
   63c3c     HC  388   0.410   0.943   2.087  0.2873 -1.2904  2.5193
   63c3c     HC  389   0.531   0.871   1.984 -0.5503  0.8690 -1.2240
   63c3c     H1  390   0.080   0.693   2.139 -0.3046  1.9707 -0.4219
   63c3c     H1  391   0.177   0.725   2.276  0.0357 -1.3155  0.5712
   63c3c     H1  392   0.165   0.845   2.145  0.6515  0.1807  0.1892
   63c3c     H1  393   0.330   0.514   2.195  1.5815  0.5233 -0.7321
   63c3c     H1  394   0.170   0.499   2.114 -0.2152  1.3043  1.2740
   63c3c     C2  395   0.342   0.438   1.996 -0.1092 -0.5498 -0.6819
   63c3c     HC  396   0.445   0.470   1.978 -0.1274 -0.4665 -0.6358
   63c3c     HC  397   0.295   0.451   1.898  0.1041  1.3461 -0.5418
   63c3c     CT  398   0.340   0.289   2.023  0.5372  0.3456 -0.2057
   63c3c     HC  399   0.367   0.223   1.941  0.2967 -0.2537  0.1942
   63c3c     HC  400   0.237   0.268   2.050 -0.7460  1.7519 -3.6477
   63c3c     HC  401   0.410   0.274   2.104  0.9005  0.2682 -0.5337
   64c3c     N4  402   1.261   0.920   0.502 -0.3315 -0.6862 -0.3668
   64c3c     C1  403   1.390   0.966   0.449  0.1031 -0.1674 -0.1713
   64c3c     C1  404   1.265   0.963   0.645  0.3633  0.2026  0.0601
   64c3c     C2  405   1.418   1.098   0.518 -0.8743  0.2804  0.1445
   64c3c     C2  406   1.344   1.099   0.651 -0.3348 -0.2279  0.0430
   64c3c     C1  407   1.147   0.999   0.438 -0.4291 -0.4710 -0.7140
   64c3c     C1  408   1.230   0.776   0.467  0.1634 -0.5847  0.0102
   64c3c     H1  409   1.404   0.975   0.341  1.9459 -1.8189 -0.0945
   64c3c     H1  410   1.469   0.894   0.471  1.3436  0.7161 -1.6142
   64c3c     H1  411   1.173   0.973   0.702  1.6867 -1.0659  2.5078
   64c3c     H1  412   1.316   0.888   0.707 -0.8630 -1.0508 -0.4133
   64c3c     HC  413   1.377   1.168   0.445  0.9744  0.0381 -1.1639
   64c3c     HC  414   1.521   1.131   0.523  0.1669 -2.7035 -0.9144
   64c3c     HC  415   1.286   1.192   0.650 -0.0980 -0.0630  1.1311
   64c3c     HC  416   1.412   1.107   0.735  0.7173  1.6384 -0.9427
   64c3c     H1  417   1.057   0.958   0.485  0.0095 -0.0999  0.4800
   64c3c     H1  418   1.156   1.107   0.440  0.8223 -0.5667 -0.4114
   64c3c     H1  419   1.138   0.995   0.330  0.8666 -0.8855 -0.8189
   64c3c     H1  420   1.126   0.754   0.486 -0.8285  2.5696 -1.3763
   64c3c     H1  421   1.238   0.771   0.358 -3.3314 -0.1081 -0.3229
   64c3c     C2  422   1.318   0.673   0.541  0.4239 -0.1662  0.7803
   64c3c     HC  423   1.316   0.671   0.650  1.0928  0.4457  0.8054
   64c3c     HC  424   1.421   0.685   0.508  0.4767 -2.1260  0.1789
   64c3c     CT  425   1.271   0.529   0.503  0.5839 -0.2782  1.0228
   64c3c     HC  426   1.180   0.496   0.555 -0.2482 -2.1624 -1.5101
   64c3c     HC  427   1.360   0.467   0.500  0.6367 -0.1829  0.6757
   64c3c     HC  428   1.241   0.523   0.399  0.0862 -1.6976  1.2354
   65c3c     N4  429   2.252   0.016   1.138 -0.5422 -0.7497  0.0071
   65c3c     C1  430   2.171   0.115   1.061  0.1707 -0.0463 -0.0283
   65c3c     C1  431   2.184  -0.008   1.261  0.2360 -0.1353  0.4181
   65c3c     C2  432   2.026   0.082   1.109 -0.2846 -0.3596 -0.0345
   65c3c     C2  433   2.031  -0.025   1.218 -0.3565 -0.6587 -0.2194
   65c3c     C1  434   2.269  -0.105   1.049  0.4176  0.1148 -0.1916
   65c3c     C1  435   2.386   0.070   1.157 -0.0919 -0.2965  0.4405
   65c3c     H1  436   2.181   0.107   0.953 -0.6331  0.3528 -0.1418
   65c3c     H1  437   2.192   0.219   1.085  0.8734 -0.3006  0.4619
   65c3c     H1  438   2.214  -0.098   1.314  0.9739  0.4178  0.9531
   65c3c     H1  439   2.186   0.072   1.335 -3.5619  1.1079 -0.6860
   65c3c     HC  440   1.962   0.047   1.027 -0.0832 -1.5669  0.3027
   65c3c     HC  441   1.983   0.174   1.149 -0.5303 -1.9691  3.6355
   65c3c     HC  442   2.023  -0.123   1.173 -1.0999 -1.6668  2.0505
   65c3c     HC  443   1.965  -0.009   1.304 -0.8582  0.4685 -0.7938
   65c3c     H1  444   2.184  -0.172   1.034 -0.1972  0.7153  0.5374
   65c3c     H1  445   2.324  -0.097   0.956  1.0506 -1.4074  0.0255
   65c3c     H1  446   2.338  -0.174   1.099 -0.3563 -0.7439 -0.2961
   65c3c     H1  447   2.453  -0.011   1.188 -1.8728 -0.7774  3.2520
   65c3c     H1  448   2.417   0.109   1.060  0.6841  0.6064  1.0445
   65c3c     C2  449   2.410   0.183   1.262 -0.7707 -0.4328 -0.5790
   65c3c     HC  450   2.388   0.143   1.361 -1.5862  0.4338 -0.3975
   65c3c     HC  451   2.345   0.267   1.237  2.6597  2.0841 -1.3445
   65c3c     CT  452   2.556   0.228   1.264  0.6913  0.0748  0.3455
   65c3c     HC  453   2.620   0.147   1.300  1.9782  0.7073 -0.5042
   65c3c     HC  454   2.571   0.295   1.348  1.2163 -2.0296  1.9943
   65c3c     HC  455   2.593   0.270   1.171 -0.1132  0.3539  0.1521
   66c3c     N4  456   0.890   1.275   1.873 -0.1784  0.2606 -0.2941
   66c3c     C1  457   0.977   1.180   1.807 -0.0504  0.0638 -0.0025
   66c3c     C1  458   0.893   1.225   2.018  0.1674 -0.2748 -0.3228
   66c3c     C2  459   1.090   1.158   1.907 -0.5435 -0.1176 -0.2840
   66c3c     C2  460   1.045   1.205   2.047  0.8611 -0.1046 -0.7602
   66c3c     C1  461   0.944   1.412   1.861 -0.4070  0.3888  0.2565
   66c3c     C1  462   0.761   1.291   1.808 -0.7670  0.5529  1.2558
   66c3c     H1  463   1.021   1.214   1.713 -0.6378  2.7180  0.6306
   66c3c     H1  464   0.946   1.077   1.794 -0.7650  0.3530 -0.5804
   66c3c     H1  465   0.844   1.291   2.089 -0.5482 -1.8318  0.6629
   66c3c     H1  466   0.839   1.131   2.018  1.0304 -0.7775 -0.1566
   66c3c     HC  467   1.188   1.192   1.876  0.2013 -1.8592  0.0872
   66c3c     HC  468   1.106   1.052   1.928 -1.9234 -0.6395 -1.7811
   66c3c     HC  469   1.096   1.296   2.079  1.7515 -1.8642  3.0470
   66c3c     HC  470   1.058   1.134   2.128 -0.3887  0.5862  0.0507
   66c3c     H1  471   0.910   1.477   1.941 -2.3145 -0.9675  0.5760
   66c3c     H1  472   1.053   1.417   1.861 -0.4012  0.2754  1.2468
   66c3c     H1  473   0.919   1.454   1.764 -1.3517 -0.3351  0.1788
   66c3c     H1  474   0.711   1.377   1.850 -0.0901  0.4533  2.2866
   66c3c     H1  475   0.771   1.304   1.700  1.2311  4.1303  1.7892
   66c3c     C2  476   0.664   1.170   1.818 -0.3636 -0.0727 -0.6136
   66c3c     HC  477   0.620   1.175   1.918 -1.0190 -0.3986 -0.8869
   66c3c     HC  478   0.719   1.077   1.801 -0.6038 -0.4739  0.7143
   66c3c     CT  479   0.554   1.191   1.714 -0.0251  0.8571 -0.4466
   66c3c     HC  480   0.494   1.280   1.730  2.1705  2.5807 -1.5521
   66c3c     HC  481   0.483   1.108   1.713  1.9952 -0.9153  0.1482
   66c3c     HC  482   0.594   1.199   1.613 -0.9691  0.0345 -0.9005
   67c3c     N4  483   0.032   1.684   0.144 -0.3861 -0.1437 -0.3922
   67c3c     C1  484   0.163   1.664   0.212  0.4197  0.0261  0.9427
   67c3c     C1  485   0.079   1.739   0.014 -0.2115 -0.2952 -0.3311
   67c3c     C2  486   0.265   1.769   0.161 -0.3568  0.1789  0.4958
   67c3c     C2  487   0.186   1.847   0.052  0.1432 -0.8012 -0.2885
   67c3c     C1  488  -0.034   1.550   0.125  1.1820 -0.1722 -0.9617
   67c3c     C1  489  -0.049   1.776   0.214  0.6042 -0.1392 -0.2544
   67c3c     H1  490   0.219   1.571   0.199  0.5592  0.2142  0.2007
   67c3c     H1  491   0.153   1.663   0.321  1.6308  2.0897  1.0997
   67c3c     H1  492   0.134   1.658  -0.034  1.0387 -0.4026  1.2555
   67c3c     H1  493   0.001   1.779  -0.051  0.7918 -0.9208 -1.9666
   67c3c     HC  494   0.343   1.715   0.109 -1.8913 -0.9066 -0.7050
   67c3c     HC  495   0.314   1.834   0.234 -0.6494  2.1429 -1.0182
   67c3c     HC  496   0.255   1.861  -0.031  1.1426 -0.6032  0.5815
   67c3c     HC  497   0.140   1.944   0.075  1.3943  0.1457 -1.6924
   67c3c     H1  498  -0.034   1.491   0.217 -1.8216 -0.0715 -0.8335
   67c3c     H1  499  -0.139   1.552   0.095 -0.0777 -2.2110  2.9149
   67c3c     H1  500   0.028   1.487   0.062  1.1283 -0.5680 -0.6260
   67c3c     H1  501  -0.068   1.730   0.311  1.2282 -0.9791 -0.5199
   67c3c     H1  502   0.011   1.865   0.232 -0.5495  1.0056 -1.9190
   67c3c     C2  503  -0.179   1.829   0.146  0.2779 -0.3544 -0.3505
   67c3c     HC  504  -0.249   1.760   0.099 -0.9377 -0.4770  1.5826
   67c3c     HC  505  -0.164   1.903   0.067 -3.0592 -1.2201 -1.9029
   67c3c     CT  506  -0.277   1.901   0.247 -0.4852  0.6427 -0.2296
   67c3c     HC  507  -0.348   1.968   0.199 -2.7134 -0.9152  0.7718
   67c3c     HC  508  -0.227   1.969   0.317 -1.0532  0.3485  0.4741
   67c3c     HC  509  -0.336   1.830   0.305  2.3668 -2.0667 -0.4667
   68c3c     N4  510   0.309   1.136   0.666 -0.2077 -0.7815 -0.4316
   68c3c     C1  511   0.347   1.024   0.583  0.6028  0.3113 -0.5346
   68c3c     C1  512   0.170   1.112   0.703 -0.0417 -0.0221  0.5149
   68c3c     C2  513   0.283   0.901   0.656  0.7902 -0.0194  0.9118
   68c3c     C2  514   0.165   0.961   0.732  0.2827 -0.4597  0.5366
   68c3c     C1  515   0.396   1.143   0.786  0.6425 -0.6015 -0.4373
   68c3c     C1  516   0.321   1.262   0.587 -0.3591 -0.0583  0.2537
   68c3c     H1  517   0.454   1.012   0.570  0.8266  2.6395 -1.0896
   68c3c     H1  518   0.299   1.043   0.487  0.7050 -0.3792 -0.7237
   68c3c     H1  519   0.130   1.170   0.787  0.4013  2.8983 -1.2128
   68c3c     H1  520   0.110   1.132   0.614 -3.3878 -3.1403  1.9834
   68c3c     HC  521   0.352   0.863   0.731  0.7675  0.1233  1.0039
   68c3c     HC  522   0.251   0.817   0.594  1.9723 -0.2556  0.6086
   68c3c     HC  523   0.176   0.953   0.840  0.4230 -0.5098  0.5195
   68c3c     HC  524   0.068   0.920   0.706  1.2455 -1.6189 -1.3878
   68c3c     H1  525   0.503   1.137   0.763  0.6633 -0.0064 -0.5004
   68c3c     H1  526   0.375   1.236   0.839  2.8851 -0.1052 -0.3524
   68c3c     H1  527   0.378   1.066   0.861 -0.5725  0.2946  0.1930
   68c3c     H1  528   0.253   1.258   0.502  0.7863 -0.5932 -0.6486
   68c3c     H1  529   0.289   1.340   0.656  1.1459  0.6602  0.1367
   68c3c     C2  530   0.462   1.295   0.526  0.1971  0.2322 -1.1511
   68c3c     HC  531   0.494   1.236   0.441 -1.0447 -1.6166 -0.3931
   68c3c     HC  532   0.536   1.302   0.606 -1.1574 -1.8066  0.3409
   68c3c     CT  533   0.452   1.435   0.471 -0.3054 -0.5145  0.1321
   68c3c     HC  534   0.547   1.475   0.435 -0.7102  1.0222  0.7050
   68c3c     HC  535   0.395   1.504   0.534 -0.1666 -0.5077  0.2503
   68c3c     HC  536   0.393   1.431   0.379  2.6809  2.0780 -2.0025
   69c3c     N4  537   1.421   2.168   2.160  0.0519 -0.1767 -0.1527
   69c3c     C1  538   1.391   2.278   2.064 -0.3931 -0.6895  0.7539
   69c3c     C1  539   1.406   2.226   2.298  0.9039 -0.7380  0.1853
   69c3c     C2  540   1.276   2.359   2.129 -0.1299 -0.1381  0.0527
   69c3c     C2  541   1.289   2.331   2.281  0.3473 -0.6912  0.6644
   69c3c     C1  542   1.309   2.070   2.150  0.0521  0.2740 -0.0055
   69c3c     C1  543   1.545   2.098   2.140  0.2191  0.0536  0.6535
   69c3c     H1  544   1.359   2.241   1.967 -1.8345 -1.3869  1.4796
   69c3c     H1  545   1.476   2.346   2.053 -0.5447 -0.7441 -0.9926
   69c3c     H1  546   1.387   2.156   2.379 -0.1699 -0.3049  0.3212
   69c3c     H1  547   1.499   2.275   2.326  0.7545  0.9008 -2.0515
   69c3c     HC  548   1.182   2.339   2.077  1.1395 -2.2814 -1.4973
   69c3c     HC  549   1.295   2.464   2.106 -2.2048  0.2610  0.0686
   69c3c     HC  550   1.199   2.288   2.326  0.9761 -0.1397  2.4984
   69c3c     HC  551   1.306   2.419   2.344 -0.2889  0.1017 -0.2404
   69c3c     H1  552   1.298   2.036   2.047 -0.6156 -2.2468  0.8515
   69c3c     H1  553   1.336   1.989   2.218 -1.5740 -0.4109 -0.1600
   69c3c     H1  554   1.213   2.102   2.190  1.5981  1.8753  2.5243
   69c3c     H1  555   1.551   2.038   2.231  0.2061  0.5231  0.9655
   69c3c     H1  556   1.540   2.024   2.060  1.6107  1.3854 -0.7017
   69c3c     C2  557   1.672   2.186   2.139  0.0714  0.3867  1.4354
   69c3c     HC  558   1.672   2.254   2.225  1.4129  1.1983  0.8135
   69c3c     HC  559   1.675   2.254   2.054  1.3292  0.3650  1.4590
   69c3c     CT  560   1.791   2.094   2.136  0.4760  0.7495 -0.0075
   69c3c     HC  561   1.880   2.157   2.123 -0.9148  2.7217 -0.2970
   69c3c     HC  562   1.801   2.022   2.055  2.5611  1.3520 -0.3083
   69c3c     HC  563   1.803   2.035   2.227  0.5158  1.2041  0.2842
   70c3c     N4  564   2.030   1.212   0.303 -0.3302  0.7517 -0.2499
   70c3c     C1  565   2.009   1.182   0.450  0.6539  0.0406  0.4391
   70c3c     C1  566   1.932   1.127   0.234  0.7296  0.2940 -0.1991
   70c3c     C2  567   1.858   1.173   0.460  0.5930  0.3996 -0.0467
   70c3c     C2  568   1.807   1.141   0.319  0.2513  0.2381 -0.0594
   70c3c     C1  569   1.997   1.358   0.285  0.7011  0.4556 -0.0583
   70c3c     C1  570   2.164   1.188   0.245 -0.2993  0.1475 -0.7552
   70c3c     H1  571   2.057   1.257   0.512  1.6776  0.5874 -0.9832
   70c3c     H1  572   2.045   1.080   0.464  0.4168 -0.0778  0.2043
   70c3c     H1  573   1.915   1.163   0.132  1.1753  0.8299 -0.0878
   70c3c     H1  574   1.945   1.019   0.239  0.0957  0.3234  2.5841
   70c3c     HC  575   1.826   1.271   0.494  1.9658  0.9706 -0.3434
   70c3c     HC  576   1.814   1.110   0.538 -0.8649  2.8930  1.1899
   70c3c     HC  577   1.732   1.217   0.294 -2.1178 -2.5225 -1.7021
   70c3c     HC  578   1.751   1.047   0.315  0.4364  0.1695 -1.5387
   70c3c     H1  579   1.893   1.382   0.307  1.0028  1.4816  0.2652
   70c3c     H1  580   2.058   1.423   0.347  2.4540 -2.3903  1.3255
   70c3c     H1  581   2.015   1.401   0.187  0.0782 -1.7186 -1.1615
   70c3c     H1  582   2.152   1.187   0.136  0.0896 -0.3737 -0.7958
   70c3c     H1  583   2.231   1.271   0.267 -0.4401  0.7428 -2.4804
   70c3c     C2  584   2.238   1.059   0.291 -0.2327 -0.4351  0.2521
   70c3c     HC  585   2.191   0.968   0.251  0.4747  0.5424 -2.9100
   70c3c     HC  586   2.233   1.042   0.399 -1.0178 -0.4775  0.2118
   70c3c     CT  587   2.388   1.076   0.246 -0.9193 -0.3391 -0.0843
   70c3c     HC  588   2.395   1.097   0.139  1.2535  0.2040  0.1412
   70c3c     HC  589   2.448   0.989   0.273 -2.2047 -1.9322 -2.2006
   70c3c     HC  590   2.436   1.156   0.302 -1.5774 -0.1280  0.1829
   71c3c     N4  591   1.358   2.662   0.896 -0.3166 -0.1161  0.2822
   71c3c     C1  592   1.502   2.658   0.891 -0.3458 -0.0702  0.1955
   71c3c     C1  593   1.324   2.518   0.862 -0.1401 -0.0201 -0.2404
   71c3c     C2  594   1.541   2.530   0.962 -0.3877 -0.5720 -0.8515
   71c3c     C2  595   1.429   2.432   0.931  0.3077  0.2152  0.1892
   71c3c     C1  596   1.312   2.695   1.027  0.8150 -0.1993  0.7412
   71c3c     C1  597   1.307   2.765   0.805  0.5006 -0.4218  0.0962
   71c3c     H1  598   1.545   2.749   0.932 -1.1653  0.6001 -0.4178
   71c3c     H1  599   1.538   2.647   0.789  2.8631 -3.0006  1.5438
   71c3c     H1  600   1.226   2.488   0.900 -0.8322  0.6338 -1.4941
   71c3c     H1  601   1.333   2.503   0.755  0.5052 -0.3977 -0.1376
   71c3c     HC  602   1.545   2.543   1.070 -0.7139  0.0482 -0.9159
   71c3c     HC  603   1.644   2.505   0.935 -0.1312  1.6901 -2.0085
   71c3c     HC  604   1.392   2.393   1.027 -2.0545  0.0751 -0.7390
   71c3c     HC  605   1.477   2.369   0.856  0.1067  0.9934 -0.5996
   71c3c     H1  606   1.207   2.665   1.021  0.8467  0.0767 -1.9456
   71c3c     H1  607   1.348   2.630   1.107 -0.5755 -1.0180  0.7180
   71c3c     H1  608   1.316   2.801   1.054 -3.0861  0.6814 -1.7272
   71c3c     H1  609   1.201   2.781   0.827  0.1665 -0.6900 -1.2934
   71c3c     H1  610   1.356   2.859   0.829  0.9380 -0.5001 -0.4815
   71c3c     C2  611   1.312   2.747   0.649 -0.6699  0.4337 -1.0826
   71c3c     HC  612   1.252   2.665   0.610  0.4803 -0.0761 -1.8201
   71c3c     HC  613   1.416   2.727   0.623 -0.6290 -0.9789  0.1326
   71c3c     CT  614   1.270   2.874   0.572 -0.1549 -0.0657  0.2198
   71c3c     HC  615   1.353   2.945   0.581 -0.3802  0.0184  1.7010
   71c3c     HC  616   1.180   2.913   0.619 -1.4713 -2.7150 -0.0408
   71c3c     HC  617   1.259   2.858   0.464  1.5187  1.2779 -0.1815
   72c3c     N4  618   1.856   1.670   1.948 -0.2633  0.1433  0.0949
   72c3c     C1  619   1.882   1.540   1.886  0.6657  0.0084  0.7595
   72c3c     C1  620   1.925   1.754   1.850  0.0567  0.1295  0.0553
   72c3c     C2  621   1.855   1.550   1.735  0.0066 -0.2627 -0.5541
   72c3c     C2  622   1.883   1.696   1.711 -0.0719 -0.0843 -0.1054
   72c3c     C1  623   1.706   1.693   1.948 -0.6396 -0.3111  0.3810
   72c3c     C1  624   1.912   1.673   2.078  0.1113  0.0273  0.3159
   72c3c     H1  625   1.823   1.461   1.933 -0.1282  0.1022 -0.0753
   72c3c     H1  626   1.986   1.512   1.901  0.6891 -0.2568  0.1040
   72c3c     H1  627   1.901   1.860   1.853  2.7332  0.7530  0.3180
   72c3c     H1  628   2.034   1.746   1.854 -0.0205 -1.8933 -0.9426
   72c3c     HC  629   1.752   1.534   1.702 -0.7639  2.1117  0.6373
   72c3c     HC  630   1.923   1.485   1.679  0.4219 -0.5857  0.3166
   72c3c     HC  631   1.793   1.747   1.679 -0.2393 -0.7213 -0.6753
   72c3c     HC  632   1.963   1.709   1.637  0.5464 -1.4357  0.3033
   72c3c     H1  633   1.660   1.599   1.978  1.2074 -2.1014 -2.1668
   72c3c     H1  634   1.677   1.783   2.003 -1.7033 -0.8520  0.7322
   72c3c     H1  635   1.663   1.709   1.850  0.8316 -0.8295 -0.3634
   72c3c     H1  636   1.851   1.737   2.142 -0.9728 -1.4597  0.8172
   72c3c     H1  637   1.899   1.575   2.125 -0.7226  0.3582  0.7970
   72c3c     C2  638   2.062   1.716   2.097  0.1274 -1.0773 -0.2944
   72c3c     HC  639   2.081   1.813   2.049  0.8659 -2.2020 -2.3525
   72c3c     HC  640   2.128   1.653   2.036 -0.6466  0.4318 -2.7743
   72c3c     CT  641   2.105   1.705   2.251  0.7432 -0.5569 -0.9190
   72c3c     HC  642   2.197   1.759   2.272 -0.0919  1.8100 -3.0924
   72c3c     HC  643   2.112   1.601   2.283 -0.9608 -0.2647  0.4763
   72c3c     HC  644   2.022   1.743   2.310  1.3943 -1.5723  0.6805
   73c3c     N4  645   0.336   2.080   1.657  0.6388  0.2952 -0.2867
   73c3c     C1  646   0.246   2.038   1.765 -0.1986 -0.2604 -0.7441
   73c3c     C1  647   0.426   1.955   1.656 -0.1404  0.0270 -0.5054
   73c3c     C2  648   0.216   1.885   1.750  0.0471 -0.4866 -0.3142
   73c3c     C2  649   0.335   1.836   1.677 -0.6040  0.1920 -0.2959
   73c3c     C1  650   0.258   2.097   1.537  0.3639 -0.5003  0.4093
   73c3c     C1  651   0.400   2.212   1.679 -0.2327  0.6346  0.8948
   73c3c     H1  652   0.155   2.099   1.767 -0.5859 -0.8624  1.8560
   73c3c     H1  653   0.294   2.052   1.862 -0.9480  1.5962 -0.6067
   73c3c     H1  654   0.485   1.945   1.566  0.1994 -0.9168 -0.1897
   73c3c     H1  655   0.492   1.949   1.743  1.2692  1.5832 -1.4563
   73c3c     HC  656   0.127   1.885   1.686  0.0578 -1.1511 -0.3278
   73c3c     HC  657   0.214   1.834   1.846  2.3872  0.4003  0.2228
   73c3c     HC  658   0.308   1.794   1.580  3.3763 -1.7641 -0.6768
   73c3c     HC  659   0.391   1.754   1.723 -3.0714 -2.3474 -1.6444
   73c3c     H1  660   0.329   2.135   1.463  0.7156  0.6651  1.3196
   73c3c     H1  661   0.206   2.008   1.502 -1.4274  0.5041  0.4560
   73c3c     H1  662   0.176   2.169   1.545  0.5350  0.0086 -2.0022
   73c3c     H1  663   0.466   2.243   1.598 -0.0478  0.0025  0.8008
   73c3c     H1  664   0.318   2.284   1.693  1.5330  2.6631  1.1030
   73c3c     C2  665   0.502   2.232   1.792  0.0726  0.8778 -0.6539
   73c3c     HC  666   0.581   2.157   1.786 -0.0915  0.6276  0.1923
   73c3c     HC  667   0.451   2.230   1.889 -0.6404 -1.4886 -1.0445
   73c3c     CT  668   0.571   2.376   1.780  0.1536  0.0691  0.7385
   73c3c     HC  669   0.503   2.442   1.726  2.2197  1.9048  0.3131
   73c3c     HC  670   0.667   2.375   1.728  0.7757  0.0727  1.8854
   73c3c     HC  671   0.598   2.409   1.880 -0.5930 -0.2385  1.0459
   74c3c     N4  672   2.096   2.299   2.371  0.8546 -0.2074  0.1181
   74c3c     C1  673   2.172   2.242   2.255  0.3072 -0.7165  1.0284
   74c3c     C1  674   2.169   2.424   2.395  0.5780 -0.4616 -0.0413
   74c3c     C2  675   2.204   2.354   2.159 -0.1580 -0.2102 -0.0815
   74c3c     C2  676   2.212   2.470   2.257 -0.8982  0.2949  0.5784
   74c3c     C1  677   1.958   2.323   2.330  0.3382 -0.3787 -0.0168
   74c3c     C1  678   2.110   2.214   2.492 -0.2432  0.1645  0.2523
   74c3c     H1  679   2.129   2.157   2.202  0.2951  0.5171 -1.0030
   74c3c     H1  680   2.269   2.212   2.293  0.3360 -1.2174  0.5621
   74c3c     H1  681   2.117   2.501   2.452  1.2958 -0.2037  0.2703
   74c3c     H1  682   2.262   2.405   2.449  2.2907 -0.1451 -2.8030
   74c3c     HC  683   2.129   2.371   2.083 -1.2193  2.0510  1.4007
   74c3c     HC  684   2.303   2.327   2.121  1.3427  1.3229  2.5655
   74c3c     HC  685   2.146   2.543   2.211  0.0123 -0.8034 -2.6180
   74c3c     HC  686   2.305   2.526   2.267 -0.0654 -0.8126 -0.8224
   74c3c     H1  687   1.909   2.227   2.314  2.4339 -1.4963  0.1553
   74c3c     H1  688   1.911   2.378   2.411  0.9818  0.7917 -0.4185
   74c3c     H1  689   1.940   2.378   2.238 -0.6475  2.1829  1.6479
   74c3c     H1  690   2.212   2.208   2.530 -0.1922  0.2914  0.1407
   74c3c     H1  691   2.055   2.278   2.561 -0.6016 -0.5726  0.6524
   74c3c     C2  692   2.039   2.080   2.495  0.2953  0.2660  0.9463
   74c3c     HC  693   2.084   2.028   2.410 -2.3166  1.9762 -1.5746
   74c3c     HC  694   1.931   2.089   2.488  0.4180  1.0690 -0.0001
   74c3c     CT  695   2.079   2.010   2.627  0.6401  0.1162  0.8806
   74c3c     HC  696   2.077   2.085   2.706  1.6943 -0.2211  1.2312
   74c3c     HC  697   2.180   1.970   2.622  0.6606  0.3363 -0.8926
   74c3c     HC  698   2.013   1.924   2.641  0.9820 -0.7559 -2.2919
   75c3c     N4  699   2.455   0.226   0.496  0.4081 -0.2333  0.8555
   75c3c     C1  700   2.414   0.113   0.589 -0.2888  1.0425 -0.9748
   75c3c     C1  701   2.522   0.148   0.395 -0.4607 -0.1258 -0.3304
   75c3c     C2  702   2.361   0.003   0.501 -0.3468  0.2757 -0.1015
   75c3c     C2  703   2.437   0.027   0.365 -0.0087 -0.5058 -0.4366
   75c3c     C1  704   2.342   0.300   0.445  0.2208  0.6762  0.0215
   75c3c     C1  705   2.535   0.331   0.560  0.0888 -0.3480  0.2712
   75c3c     H1  706   2.334   0.143   0.656  0.0294  0.1368 -0.1832
   75c3c     H1  707   2.497   0.063   0.639  0.1668  0.9964 -1.7636
   75c3c     H1  708   2.546   0.205   0.304 -2.4191 -0.0593 -0.8136
   75c3c     H1  709   2.615   0.113   0.440 -0.1512  1.5383  0.3868
   75c3c     HC  710   2.253   0.018   0.490 -0.5756 -1.5784 -0.5657
   75c3c     HC  711   2.377  -0.099   0.537  0.5247  0.6133  0.4679
   75c3c     HC  712   2.366   0.058   0.288 -0.0806 -0.2077 -0.2506
   75c3c     HC  713   2.487  -0.057   0.316  1.0818 -1.2006  1.7924
   75c3c     H1  714   2.274   0.333   0.524 -0.0246  0.9280 -0.2943
   75c3c     H1  715   2.366   0.396   0.399  0.3219  0.6567  0.0328
   75c3c     H1  716   2.266   0.254   0.383  0.5218  1.4748 -0.9538
   75c3c     H1  717   2.574   0.399   0.484 -0.9114  0.5878  0.5727
   75c3c     H1  718   2.473   0.391   0.627  1.0348 -0.0279  0.8757
   75c3c     C2  719   2.661   0.293   0.642  0.2142  0.1827 -0.3623
   75c3c     HC  720   2.739   0.238   0.589  0.1076 -2.6623  2.3073
   75c3c     HC  721   2.636   0.227   0.725  0.8434 -1.3108 -1.3434
   75c3c     CT  722   2.737   0.423   0.700  0.4551 -0.4241 -0.1391
   75c3c     HC  723   2.829   0.381   0.741  0.5723  0.4806  0.5422
   75c3c     HC  724   2.692   0.474   0.785  0.6470  1.2790 -1.0363
   75c3c     HC  725   2.769   0.500   0.629  0.4186 -1.5879 -1.4391
   76fsi    FSI  726   1.726   1.593   0.019  0.0096 -0.3756  0.5913
   76fsi    SBT  727   1.628   1.475   0.051  0.1823  0.0437 -0.1267
   76fsi    NBT  728   1.522   1.549   0.145 -0.8896 -0.3376 -0.1738
   76fsi    OBT  729   1.578   1.439  -0.082 -0.0849  0.3861 -0.1279
   76fsi    OBT  730   1.720   1.382   0.112 -0.0533  0.9416 -0.1330
   76fsi    SBT  731   1.369   1.544   0.151 -0.1375  0.1554 -0.0295
   76fsi    OBT  732   1.301   1.510   0.029  0.5320 -0.4086  0.2316
   76fsi    OBT  733   1.321   1.664   0.217 -0.2149  0.5600  0.2772
   76fsi    FSI  734   1.331   1.419   0.245  0.1533 -0.0871  0.1896
   77fsi    FSI  735   1.310   0.924   2.079  0.4298 -0.6225  0.2700
   77fsi    SBT  736   1.309   0.806   2.181 -0.0287  0.4220 -0.1917
   77fsi    NBT  737   1.282   0.684   2.087  0.2225 -0.0029  0.6104
   77fsi    OBT  738   1.447   0.808   2.227 -0.0027  0.0244 -0.3621
   77fsi    OBT  739   1.213   0.832   2.282  0.0166  0.3493 -0.3781
   77fsi    SBT  740   1.330   0.538   2.117  0.0988 -0.3276  0.0730
   77fsi    OBT  741   1.272   0.443   2.023 -0.0418  0.2232  0.2511
   77fsi    OBT  742   1.324   0.499   2.255 -0.6032  0.0854  0.1150
   77fsi    FSI  743   1.481   0.535   2.076  0.6743  0.0541  0.4111
   78fsi    FSI  744   0.946   1.802   1.774  0.5058 -0.3002  0.5026
   78fsi    SBT  745   0.834   1.907   1.720  0.2156  0.5886  0.0937
   78fsi    NBT  746   0.912   2.039   1.712 -0.5278 -0.1880 -0.2566
   78fsi    OBT  747   0.799   1.856   1.587 -0.0380  0.6563 -0.1021
   78fsi    OBT  748   0.726   1.912   1.818  0.6323  0.2767 -0.6969
   78fsi    SBT  749   0.951   2.150   1.830  0.0768 -0.2086  0.0847
   78fsi    OBT  750   1.038   2.245   1.771  0.6653 -0.8631  0.2470
   78fsi    OBT  751   0.972   2.097   1.959  0.3587  0.3892 -0.2679
   78fsi    FSI  752   0.821   2.223   1.839 -0.2029  0.2914  0.1249
   79fsi    FSI  753   2.618   0.095   1.585  0.3253 -0.4054 -0.1395
   79fsi    SBT  754   2.527   0.209   1.650 -0.1276 -0.3004  0.0505
   79fsi    NBT  755   2.544   0.194   1.811 -0.0570 -0.7014 -0.0791
   79fsi    OBT  756   2.580   0.335   1.600 -0.0137 -0.7426 -0.0679
   79fsi    OBT  757   2.394   0.172   1.602 -0.3879 -0.1700 -0.5058
   79fsi    SBT  758   2.671   0.233   1.885  0.0569 -0.3162  0.4145
   79fsi    OBT  759   2.770   0.310   1.807 -0.0301  0.2196  0.6013
   79fsi    OBT  760   2.723   0.123   1.964 -0.7440 -0.1068 -0.2023
   79fsi    FSI  761   2.619   0.340   1.996  0.1097  0.0831 -0.0731
   80fsi    FSI  762   2.417   0.460   1.026 -0.0608 -0.3539  0.2422
   80fsi    SBT  763   2.341   0.455   0.889  0.2735  0.2653 -0.0195
   80fsi    NBT  764   2.418   0.573   0.813  0.2521  0.1748 -0.0772
   80fsi    OBT  765   2.362   0.325   0.838 -0.1108  0.0626  0.0101
   80fsi    OBT  766   2.205   0.470   0.925 -0.3072  0.1683 -0.4239
   80fsi    SBT  767   2.361   0.658   0.693 -0.0371  0.0452 -0.2670
   80fsi    OBT  768   2.356   0.803   0.711  0.4462 -0.0371 -0.8743
   80fsi    OBT  769   2.238   0.605   0.640 -0.1644  0.5428 -0.3998
   80fsi    FSI  770   2.462   0.645   0.571  0.2159  0.4505 -0.5597
   81fsi    FSI  771   0.686   1.635   1.916  0.0774 -0.1979  0.9968
   81fsi    SBT  772   0.602   1.585   2.038  0.2199 -0.2068  0.1625
   81fsi    NBT  773   0.611   1.721   2.118 -0.0373 -0.2173 -0.4622
   81fsi    OBT  774   0.472   1.552   1.986  0.4424 -0.0838  0.4558
   81fsi    OBT  775   0.674   1.473   2.090 -0.4256  0.4270 -0.0443
   81fsi    SBT  776   0.529   1.855   2.093 -0.0601  0.1442 -0.0097
   81fsi    OBT  777   0.441   1.847   1.980  0.7921 -0.2352 -0.0455
   81fsi    OBT  778   0.604   1.982   2.119 -0.3672  0.0739 -0.6860
   81fsi    FSI  779   0.432   1.851   2.221 -0.4492 -0.1322 -0.3774
   82fsi    FSI  780   2.165   0.358   1.436 -0.3480 -0.0159  0.4141
   82fsi    SBT  781   2.133   0.489   1.356  0.3430  0.1242  0.3564
   82fsi    NBT  782   2.110   0.597   1.466 -0.3363 -0.0728  0.3428
   82fsi    OBT  783   2.249   0.510   1.271  0.1356  0.3318  0.8787
   82fsi    OBT  784   2.012   0.452   1.289  0.7898  0.7347  0.2724
   82fsi    SBT  785   2.019   0.722   1.470  0.1026  0.1352  0.2543
   82fsi    OBT  786   1.933   0.727   1.352 -0.0600 -0.2052 -0.0461
   82fsi    OBT  787   2.087   0.840   1.510 -0.2860 -0.4280  0.5050
   82fsi    FSI  788   1.917   0.701   1.591 -0.0747  0.0824  0.5750
   83fsi    FSI  789   1.509   1.517   1.225  0.1509  0.0729 -0.5618
   83fsi    SBT  790   1.648   1.579   1.272 -0.0437 -0.2503  0.0922
   83fsi    NBT  791   1.649   1.730   1.236 -0.6003  0.1316 -0.6021
   83fsi    OBT  792   1.642   1.557   1.410 -0.2517  0.2531  0.3098
   83fsi    OBT  793   1.742   1.502   1.191  0.1420 -0.3833  0.0138
   83fsi    SBT  794   1.763   1.808   1.161  0.2749  0.1813  0.3942
   83fsi    OBT  795   1.719   1.933   1.109  0.6154  0.1377  0.0657
   83fsi    OBT  796   1.855   1.736   1.074 -0.0478  0.6258 -0.9277
   83fsi    FSI  797   1.857   1.863   1.278  0.7612  0.5927 -0.1651
   84fsi    FSI  798   1.754   2.624   2.341  0.2621  0.0826  0.6599
   84fsi    SBT  799   1.621   2.548   2.357 -0.0976  0.3454  0.0285
   84fsi    NBT  800   1.671   2.423   2.443  0.0392  0.0898 -0.4138
   84fsi    OBT  801   1.536   2.633   2.433  0.2540  0.6302 -0.6655
   84fsi    OBT  802   1.596   2.517   2.215 -0.4312  0.3015  0.4425
   84fsi    SBT  803   1.644   2.379   2.596  0.1869  0.3622  0.4685
   84fsi    OBT  804   1.592   2.483   2.678 -0.1925  0.0779  0.4395
   84fsi    OBT  805   1.754   2.301   2.649  0.1233  0.2325 -0.1075
   84fsi    FSI  806   1.519   2.279   2.593 -0.9400  0.0800 -0.2040
   85fsi    FSI  807   1.192   1.882   1.633  0.0003  0.0584 -0.2588
   85fsi    SBT  808   1.295   1.879   1.747 -0.2637 -0.2039  0.0706
   85fsi    NBT  809   1.417   1.832   1.667 -0.1937 -0.5142  0.3760
   85fsi    OBT  810   1.296   2.012   1.799  0.0797  0.1514 -0.2656
   85fsi    OBT  811   1.240   1.775   1.833  0.4964  0.5357  0.4042
   85fsi    SBT  812   1.520   1.925   1.599  0.0963 -0.0406 -0.5220
   85fsi    OBT  813   1.464   2.039   1.538 -0.3675 -0.0120  0.4397
   85fsi    OBT  814   1.607   1.839   1.513  0.7579 -0.5874  0.3760
   85fsi    FSI  815   1.609   1.985   1.715 -0.0231 -0.4881  0.0449
   86fsi    FSI  816   1.093   2.298   0.636  0.1241  0.2216 -0.1630
   86fsi    SBT  817   0.975   2.282   0.526  0.0317  0.2006 -0.3723
   86fsi    NBT  818   1.029   2.332   0.386 -0.4684 -0.1966 -0.3676
   86fsi    OBT  819   0.943   2.141   0.521  0.7028 -0.0645 -0.5160
   86fsi    OBT  820   0.869   2.362   0.580 -0.7177 -0.4904 -0.3861
   86fsi    SBT  821   1.057   2.472   0.327  0.3735  0.2816  0.5896
   86fsi    OBT  822   1.038   2.583   0.420  0.1247  0.6609 -0.8302
   86fsi    OBT  823   0.993   2.485   0.197 -0.3287 -0.5079  0.0313
   86fsi    FSI  824   1.212   2.473   0.299  0.0978 -0.2794 -0.5190
   87fsi    FSI  825   0.469   0.657   1.015  0.1265 -1.1316  0.2942
   87fsi    SBT  826   0.587   0.578   0.956  0.1265 -0.2496 -0.4161
   87fsi    NBT  827   0.583   0.607   0.802  0.4047  0.4797 -0.3860
   87fsi    OBT  828   0.696   0.645   1.029  0.3845 -0.1126 -0.3913
   87fsi    OBT  829   0.554   0.444   0.998 -0.8180  0.1179  0.4658
   87fsi    SBT  830   0.578   0.503   0.681  0.1839  0.2519 -0.7899
   87fsi    OBT  831   0.631   0.375   0.712 -0.6544  0.5648 -0.6164
   87fsi    OBT  832   0.596   0.568   0.558  0.0119 -0.1652  0.3728
   87fsi    FSI  833   0.427   0.473   0.675 -0.5013 -0.3652 -0.3392
   88fsi    FSI  834   0.847   0.901   0.634 -0.6208 -0.4062 -0.0650
   88fsi    SBT  835   0.856   1.018   0.741  0.2947  0.0071  0.2257
   88fsi    NBT  836   0.919   1.138   0.658  0.1948  0.4227 -0.1811
   88fsi    OBT  837   0.722   1.050   0.782  0.6773  0.3423  0.3886
   88fsi    OBT  838   0.939   0.960   0.845  0.3043  0.8458 -0.1964
   88fsi    SBT  839   0.853   1.216   0.538  0.0098 -0.2216 -0.4575
   88fsi    OBT  840   0.746   1.153   0.467 -0.1993  0.7476  0.2844
   88fsi    OBT  841   0.951   1.300   0.473  0.5523 -0.0376  0.4139
   88fsi    FSI  842   0.774   1.319   0.627  0.5095 -0.1931  0.2418
   89fsi    FSI  843   0.862   2.468   1.881 -0.5321 -0.1113  0.6459
   89fsi    SBT  844   0.972   2.578   1.897 -0.1637 -0.1526 -0.2644
   89fsi    NBT  845   0.891   2.712   1.892  0.3123 -0.3133 -0.3699
   89fsi    OBT  846   1.032   2.551   2.025 -0.2332 -0.2265  0.0836
   89fsi    OBT  847   1.060   2.569   1.779  0.0447  0.0084 -0.0525
   89fsi    SBT  848   0.846   2.808   2.014  0.1785  0.0249 -0.2725
   89fsi    OBT  849   0.808   2.729   2.130 -0.4011  0.0112  0.6059
   89fsi    OBT  850   0.751   2.915   1.984 -0.1375  0.4059  0.6718
   89fsi    FSI  851   0.978   2.882   2.058 -0.5793 -0.5798  0.2313
   90fsi    FSI  852   1.918   0.213   0.552  0.5516  0.3572  0.1192
   90fsi    SBT  853   1.990   0.224   0.697 -0.1114  0.3261  0.0946
   90fsi    NBT  854   1.875   0.245   0.804 -0.4276 -0.1885  0.1110
   90fsi    OBT  855   2.052   0.095   0.700 -0.5317 -0.8656 -0.0595
   90fsi    OBT  856   2.072   0.340   0.697  0.2099  0.2057  0.0428
   90fsi    SBT  857   1.772   0.361   0.817  0.0163  0.1958 -0.1801
   90fsi    OBT  858   1.781   0.476   0.726 -0.3204  0.0830  0.0576
   90fsi    OBT  859   1.741   0.398   0.951  0.9452  0.1444 -0.7120
   90fsi    FSI  860   1.648   0.280   0.770  0.4940 -0.0924 -0.0415
   91fsi    FSI  861   2.663   1.489   1.661 -0.1835 -0.0291  0.0437
   91fsi    SBT  862   2.723   1.355   1.606 -0.4529 -0.2374  0.1745
   91fsi    NBT  863   2.664   1.363   1.457 -0.7458 -0.2855  0.2536
   91fsi    OBT  864   2.865   1.374   1.607  0.2282 -0.0934 -0.4125
   91fsi    OBT  865   2.668   1.255   1.693  0.0266 -0.0551 -0.2945
   91fsi    SBT  866   2.529   1.302   1.403  0.2404 -0.2382  0.2948
   91fsi    OBT  867   2.498   1.342   1.268  0.6154 -0.7544  0.1067
   91fsi    OBT  868   2.421   1.290   1.501  0.1282 -0.3434 -0.9248
   91fsi    FSI  869   2.565   1.146   1.388  0.5004  0.1715  0.2449
   92fsi    FSI  870   0.185   2.542   2.652 -0.7114 -0.1176 -0.6878
   92fsi    SBT  871   0.192   2.661   2.555 -0.2586 -0.3554 -0.0925
   92fsi    NBT  872   0.327   2.637   2.485  0.0734 -0.0477 -1.5598
   92fsi    OBT  873   0.084   2.638   2.458  0.2435  0.0236 -0.3935
   92fsi    OBT  874   0.191   2.778   2.640  0.3902 -0.2734  0.2259
   92fsi    SBT  875   0.473   2.691   2.516  0.2829 -0.0966 -0.0685
   92fsi    OBT  876   0.483   2.809   2.597  0.1104 -0.8619 -0.4932
   92fsi    OBT  877   0.559   2.683   2.399 -0.2086 -0.1944  0.5466
   92fsi    FSI  878   0.519   2.575   2.614 -0.1005 -0.4996 -0.1168
   93fsi    FSI  879   1.254   2.062   1.014  0.2082 -0.4435 -0.3851
   93fsi    SBT  880   1.333   1.937   1.077 -0.0639 -0.1469  0.2550
   93fsi    NBT  881   1.218   1.832   1.103  0.4303 -0.7296 -0.5946
   93fsi    OBT  882   1.422   1.899   0.971  0.1197  0.6246  0.1935
   93fsi    OBT  883   1.394   2.004   1.186 -0.2196 -0.4612  0.0258
   93fsi    SBT  884   1.195   1.750   1.237  0.0172 -0.2191  0.1873
   93fsi    OBT  885   1.070   1.779   1.295  0.0127  0.2274 -0.7345
   93fsi    OBT  886   1.308   1.748   1.326  0.1741 -0.2087 -0.7429
   93fsi    FSI  887   1.189   1.603   1.186 -0.2678 -0.3576  0.2443
   94fsi    FSI  888   1.167   0.734   1.586 -0.5831  0.2479  0.0471
   94fsi    SBT  889   1.268   0.828   1.664  0.4238 -0.4978  0.2301
   94fsi    NBT  890   1.410   0.776   1.602 -0.4911  0.0617  0.2746
   94fsi    OBT  891   1.237   0.967   1.630  0.7269 -0.0251  0.2507
   94fsi    OBT  892   1.231   0.802   1.802 -0.0558 -0.2906  0.5987
   94fsi    SBT  893   1.471   0.632   1.622 -0.4274  0.0388 -0.1074
   94fsi    OBT  894   1.558   0.603   1.515 -0.3967 -0.5754 -0.2009
   94fsi    OBT  895   1.388   0.529   1.668 -0.0856 -0.2834  0.3128
   94fsi    FSI  896   1.564   0.646   1.739 -0.0515 -0.2578  0.0448
   95fsi    FSI  897   0.770   0.474   1.538 -0.2795  0.3872 -0.5979
   95fsi    SBT  898   0.655   0.484   1.435  0.0281  0.3532  0.1946
   95fsi    NBT  899   0.548   0.392   1.502 -0.8526  0.4725 -0.9679
   95fsi    OBT  900   0.619   0.624   1.438 -0.6647 -0.1008 -0.3082
   95fsi    OBT  901   0.705   0.424   1.312 -0.3729  0.8591  0.3883
   95fsi    SBT  902   0.469   0.419   1.643 -0.2551 -0.0389  0.7342
   95fsi    OBT  903   0.330   0.382   1.632 -0.2489  0.2050  0.5246
   95fsi    OBT  904   0.505   0.542   1.701 -0.4018  0.0487  0.3926
   95fsi    FSI  905   0.528   0.309   1.743 -0.5840  0.0965 -1.1989
   96fsi    FSI  906   0.157   0.613   1.204 -0.0431 -0.3461 -0.5995
   96fsi    SBT  907   0.225   0.528   1.320 -0.1184  0.3969 -0.0416
   96fsi    NBT  908   0.286   0.633   1.416  0.1356 -0.5010 -0.4870
   96fsi    OBT  909   0.121   0.442   1.377 -0.5573  0.1876  0.1600
   96fsi    OBT  910   0.329   0.453   1.255 -0.2634 -0.2796  0.6775
   96fsi    SBT  911   0.227   0.686   1.552  0.0467  0.4886  0.4805
   96fsi    OBT  912   0.323   0.766   1.624 -0.6240  0.5223  0.5968
   96fsi    OBT  913   0.142   0.594   1.625 -0.4582  0.4582  0.4136
   96fsi    FSI  914   0.127   0.788   1.501  0.0736 -0.1895 -0.2347
   97fsi    FSI  915   0.610   2.568   1.465 -0.4116 -0.4639 -0.5008
   97fsi    SBT  916   0.607   2.716   1.511 -0.1281  0.2220  0.4786
   97fsi    NBT  917   0.463   2.732   1.576 -0.2155  0.8809  0.3427
   97fsi    OBT  918   0.720   2.719   1.605 -0.1206 -0.0037  0.3286
   97fsi    OBT  919   0.628   2.783   1.387 -0.2163  0.0902  0.1427
   97fsi    SBT  920   0.324   2.753   1.510  0.3215 -0.2427 -0.3320
   97fsi    OBT  921   0.326   2.837   1.397  0.1555  0.4255 -0.0315
   97fsi    OBT  922   0.220   2.775   1.605 -0.3948 -0.3508 -0.0294
   97fsi    FSI  923   0.299   2.615   1.447 -0.3663  0.1226  0.2101
   98fsi    FSI  924   0.640   1.068   2.193  1.0032 -0.9948  0.5963
   98fsi    SBT  925   0.649   1.147   2.326  0.0387  0.3788 -0.5949
   98fsi    NBT  926   0.662   1.025   2.429 -0.5570 -0.2366  0.8741
   98fsi    OBT  927   0.765   1.231   2.307  0.0890  0.2322 -0.0918
   98fsi    OBT  928   0.522   1.219   2.330  0.0096  0.9445 -0.4045
   98fsi    SBT  929   0.792   0.948   2.487 -0.5777 -0.1615  0.3724
   98fsi    OBT  930   0.918   0.996   2.439 -0.4119  0.3839  0.2902
   98fsi    OBT  931   0.777   0.805   2.501 -0.5828 -0.6117  0.0067
   98fsi    FSI  932   0.786   0.991   2.634  0.3331  0.0545 -0.3144
   99fsi    FSI  933   0.355   0.171   0.734  0.0789  0.4084 -0.0426
   99fsi    SBT  934   0.402   0.060   0.835 -0.0753  0.3672 -0.1971
   99fsi    NBT  935   0.292   0.061   0.944  0.1334 -0.1711 -0.1902
   99fsi    OBT  936   0.392  -0.064   0.762  0.3957 -0.5404  0.0247
   99fsi    OBT  937   0.537   0.093   0.882 -0.5207 -0.2209  0.2696
   99fsi    SBT  938   0.271   0.162   1.058  0.2164 -0.1212  0.4762
   99fsi    OBT  939   0.391   0.208   1.118  0.5089  0.3986 -0.3587
   99fsi    OBT  940   0.157   0.131   1.135  0.9652 -0.0810  0.1536
   99fsi    FSI  941   0.229   0.294   0.977  0.0204 -0.7070 -0.0322
  100fsi    FSI  942   1.780   2.196   1.003 -0.1554  0.1365  0.2983
  100fsi    SBT  943   1.886   2.150   0.892 -0.0446  0.2008  0.0577
  100fsi    NBT  944   1.985   2.272   0.872 -0.1452  0.6159 -0.5004
  100fsi    OBT  945   1.959   2.037   0.956  0.0153  0.3954  0.0980
  100fsi    OBT  946   1.799   2.115   0.787  0.0082 -0.0846  0.1553
  100fsi    SBT  947   2.054   2.299   0.733 -0.1227  0.3129 -0.5501
  100fsi    OBT  948   2.076   2.186   0.649  0.2459  0.0758 -0.4952
  100fsi    OBT  949   2.165   2.386   0.743  0.4359 -0.0369 -0.2105
  100fsi    FSI  950   1.944   2.374   0.652 -0.0446  0.0334  0.0183
  101fsi    FSI  951   1.138   1.918   0.523  0.2273  0.0284  0.0624
  101fsi    SBT  952   1.292   1.918   0.567 -0.2440  0.3842 -0.4622
  101fsi    NBT  953   1.325   2.073   0.562 -0.7996 -0.1062  0.4986
  101fsi    OBT  954   1.283   1.868   0.700  0.2375  0.5682 -0.2562
  101fsi    OBT  955   1.359   1.834   0.476 -0.0251  1.3755  0.4086
  101fsi    SBT  956   1.412   2.157   0.660 -0.3407  0.1329 -0.2421
  101fsi    OBT  957   1.462   2.282   0.601 -0.5947  0.2389  0.3378
  101fsi    OBT  958   1.511   2.077   0.730  0.4731 -0.1622 -0.1138
  101fsi    FSI  959   1.314   2.201   0.770  0.0552  0.1161 -1.1399
  102fsi    FSI  960   2.554   2.150   1.434 -0.2317  0.1180  0.3175
  102fsi    SBT  961   2.452   2.231   1.350  0.2652 -0.0963  0.4148
  102fsi    NBT  962   2.553   2.307   1.251  0.2485  0.0691  0.2703
  102fsi    OBT  963   2.380   2.123   1.291  0.1747  0.5405 -0.0882
  102fsi    OBT  964   2.385   2.319   1.446  0.1548  0.0602  0.1412
  102fsi    SBT  965   2.623   2.450   1.264  0.6202 -0.0872 -0.2878
  102fsi    OBT  966   2.577   2.536   1.370 -0.0930  0.2165 -0.0689
  102fsi    OBT  967   2.650   2.508   1.136  0.0568  0.1293 -0.1571
  102fsi    FSI  968   2.764   2.408   1.316  0.1366 -0.1525  0.2770
  103fsi    FSI  969   1.097   1.940   2.352 -0.0623  0.2559  0.1608
  103fsi    SBT  970   1.049   1.831   2.252 -0.4953  0.1722 -0.1885
  103fsi    NBT  971   1.036   1.700   2.341  0.2972 -0.4782 -0.3453
  103fsi    OBT  972   0.922   1.877   2.202 -0.2393 -0.1785  0.3222
  103fsi    OBT  973   1.153   1.818   2.157 -0.1330 -0.2103 -0.6034
  103fsi    SBT  974   1.054   1.553   2.299 -0.4245 -0.3479 -0.0365
  103fsi    OBT  975   1.150   1.537   2.192 -0.0272 -0.3864 -0.3616
  103fsi    OBT  976   0.928   1.479   2.288 -0.2489 -0.5148  0.3680
  103fsi    FSI  977   1.125   1.499   2.423  0.2591  0.6670 -0.1261
  104fsi    FSI  978   0.965   1.402   0.114  0.1485  0.1091 -0.3447
  104fsi    SBT  979   0.882   1.303   0.032 -0.0109 -0.2900  0.2406
  104fsi    NBT  980   0.746   1.379   0.008  0.6022  0.0840  0.4564
  104fsi    OBT  981   0.945   1.288  -0.100  0.0059 -0.0935  0.5471
  104fsi    OBT  982   0.878   1.187   0.113  0.3345  0.4819  0.0694
  104fsi    SBT  983   0.601   1.351   0.071  0.1284  0.0798 -0.1643
  104fsi    OBT  984   0.603   1.305   0.208 -0.6604 -0.0956 -0.3225
  104fsi    OBT  985   0.510   1.287  -0.021  0.5016  0.4280 -0.1939
  104fsi    FSI  986   0.553   1.499   0.103  0.4661 -0.0703 -0.1806
  105fsi    FSI  987   0.886   1.367   1.354 -0.5999 -1.0252  0.5261
  105fsi    SBT  988   0.793   1.491   1.357 -0.2098 -0.3805 -0.1040
  105fsi    NBT  989   0.664   1.430   1.420  0.2011  0.0594  0.3490
  105fsi    OBT  990   0.857   1.590   1.440  0.6323 -0.9569 -0.3630
  105fsi    OBT  991   0.775   1.525   1.216 -0.3552  0.1719 -0.6397
  105fsi    SBT  992   0.523   1.498   1.450  0.0701  0.5145  0.4554
  105fsi    OBT  993   0.412   1.409   1.425  0.5782  0.0125  0.0389
  105fsi    OBT  994   0.518   1.633   1.399 -0.4043  0.2930 -0.3374
  105fsi    FSI  995   0.529   1.525   1.603  0.3467 -0.3009  0.2726
  106fsi    FSI  996   0.833   2.270   1.512  0.0449  0.1937 -0.0464
  106fsi    SBT  997   0.916   2.366   1.429  0.2284  0.0879  0.2039
  106fsi    NBT  998   1.056   2.313   1.438 -0.3307 -0.3571  0.0675
  106fsi    OBT  999   0.856   2.375   1.299 -0.5809  0.6290  0.2395
  106fsi    OBT 1000   0.915   2.480   1.513 -0.7415 -0.0734  1.1518
  106fsi    SBT 1001   1.155   2.268   1.326 -0.2508 -0.0536 -0.4565
  106fsi    OBT 1002   1.291   2.294   1.371 -0.4680  0.8483  0.0458
  106fsi    OBT 1003   1.131   2.307   1.193  0.3835  0.2766 -0.0260
  106fsi    FSI 1004   1.145   2.110   1.332  0.1335  0.1585  0.1735
  107fsi    FSI 1005   2.571   1.599   2.460 -0.9361  0.2361  0.3253
  107fsi    SBT 1006   2.483   1.464   2.440 -0.2033  0.0145  0.1161
  107fsi    NBT 1007   2.338   1.519   2.446  0.4728  0.5441  0.2617
  107fsi    OBT 1008   2.513   1.412   2.311  0.5312 -0.2124 -0.1392
  107fsi    OBT 1009   2.533   1.394   2.557  0.2389  0.4200 -0.5322
  107fsi    SBT 1010   2.233   1.489   2.558  0.1837 -0.3473  0.6086
  107fsi    OBT 1011   2.250   1.367   2.635  0.4684 -0.8639  0.4303
  107fsi    OBT 1012   2.101   1.528   2.519 -0.3649 -0.5860  0.3277
  107fsi    FSI 1013   2.270   1.601   2.668 -0.0625 -0.2870  0.9267
  108fsi    FSI 1014   0.799   0.707   2.121  0.2151  0.0497 -0.5384
  108fsi    SBT 1015   0.895   0.801   2.045  0.1334  0.2290 -0.0851
  108fsi    NBT 1016   0.815   0.842   1.914  0.4394 -0.4178 -0.3117
  108fsi    OBT 1017   0.921   0.917   2.124  0.1320  0.7075  0.0721
  108fsi    OBT 1018   0.993   0.706   2.026 -0.0013 -0.0820 -0.3994
  108fsi    SBT 1019   0.761   0.752   1.800 -0.3643 -0.5957  0.1972
  108fsi    OBT 1020   0.642   0.799   1.731 -0.1850 -0.6965  0.5955
  108fsi    OBT 1021   0.750   0.614   1.840 -0.0073  0.3218  1.0593
  108fsi    FSI 1022   0.866   0.763   1.692 -0.7227  0.3057 -0.3722
  109fsi    FSI 1023   2.642   0.932   1.956  0.1259 -0.3087  0.0145
  109fsi    SBT 1024   2.561   0.863   1.848 -0.3539 -0.4428 -0.2122
  109fsi    NBT 1025   2.504   0.737   1.920 -0.6712 -0.2078  0.7199
  109fsi    OBT 1026   2.470   0.962   1.799 -0.1343 -0.1798 -0.3072
  109fsi    OBT 1027   2.666   0.824   1.758 -0.1181 -0.5729 -0.0627
  109fsi    SBT 1028   2.362   0.726   1.995 -0.0354 -0.3111 -0.1990
  109fsi    OBT 1029   2.286   0.844   2.015 -0.3941  0.3831 -0.1914
  109fsi    OBT 1030   2.372   0.633   2.108  0.6119 -0.6652 -0.7292
  109fsi    FSI 1031   2.289   0.651   1.879 -0.2799 -0.3263  0.2852
  110fsi    FSI 1032   1.743   1.811   2.545  0.4464 -0.1528  0.5614
  110fsi    SBT 1033   1.626   1.895   2.493  0.5741  0.0422  0.1827
  110fsi    NBT 1034   1.599   1.823   2.354  0.3606  0.4163  0.3305
  110fsi    OBT 1035   1.523   1.878   2.591 -0.4878 -0.1904  0.3786
  110fsi    OBT 1036   1.679   2.026   2.471 -0.3325  0.5781  0.4129
  110fsi    SBT 1037   1.510   1.694   2.322  0.3816 -0.0053  0.4342
  110fsi    OBT 1038   1.446   1.697   2.194 -0.2031  0.0866  0.5261
  110fsi    OBT 1039   1.422   1.647   2.430  0.1832  0.4281  0.0654
  110fsi    FSI 1040   1.625   1.581   2.306  0.2771  0.3245  0.3607
  111fsi    FSI 1041   1.587   0.358   2.348  0.0192 -1.2452 -0.0636
  111fsi    SBT 1042   1.618   0.380   2.507  0.1616  0.0593 -0.6722
  111fsi    NBT 1043   1.767   0.441   2.504  0.2003  0.1558 -0.1737
  111fsi    OBT 1044   1.518   0.472   2.552  1.2232  0.7214 -0.4244
  111fsi    OBT 1045   1.600   0.249   2.559  0.5989  0.7608  0.5387
  111fsi    SBT 1046   1.803   0.592   2.482  0.1564 -0.0204  0.0784
  111fsi    OBT 1047   1.701   0.671   2.423  0.0597 -0.0314 -0.0967
  111fsi    OBT 1048   1.939   0.613   2.434  0.2321  0.1382 -0.0081
  111fsi    FSI 1049   1.802   0.642   2.634  0.2458 -0.0592 -0.1444
  112fsi    FSI 1050   2.197   0.267   2.631  0.2007 -0.6174  0.7409
  112fsi    SBT 1051   2.169   0.108   2.620 -0.4373 -0.7735 -0.2327
  112fsi    NBT 1052   2.022   0.098   2.671 -0.5874 -0.0748 -0.1172
  112fsi    OBT 1053   2.177   0.078   2.476 -0.0751  0.2724 -0.0478
  112fsi    OBT 1054   2.270   0.055   2.711 -0.1244 -0.5854  0.3477
  112fsi    SBT 1055   1.934  -0.031   2.703 -0.2975 -0.1911  0.1683
  112fsi    OBT 1056   1.989  -0.162   2.670  0.4379  0.1705  0.0542
  112fsi    OBT 1057   1.799  -0.003   2.673  0.5227  0.3215 -0.1397
  112fsi    FSI 1058   1.942  -0.033   2.859  0.4683 -0.5727 -0.0569
  113fsi    FSI 1059   1.182   1.126   0.102 -0.2427 -0.1906  0.0764
  113fsi    SBT 1060   1.285   1.104  -0.008  0.1533  0.2749 -0.5583
  113fsi    NBT 1061   1.413   1.049   0.065  0.2460  0.6429 -0.3258
  113fsi    OBT 1062   1.228   1.008  -0.094 -0.1869 -0.2284  0.1225
  113fsi    OBT 1063   1.304   1.235  -0.054 -0.0899  0.0101  0.4465
  113fsi    SBT 1064   1.463   0.899   0.059 -0.3681  0.0901 -0.1018
  113fsi    OBT 1065   1.478   0.855  -0.076 -0.1118 -0.4037  0.4176
  113fsi    OBT 1066   1.386   0.818   0.149  0.0398  1.1009 -0.0819
  113fsi    FSI 1067   1.618   0.895   0.112  0.3422 -0.2577  0.8591
  114fsi    FSI 1068   0.140   2.055   0.573 -0.0167  0.0768 -0.5368
  114fsi    SBT 1069   0.280   2.108   0.534 -0.1089 -0.0145  0.2970
  114fsi    NBT 1070   0.353   1.985   0.461 -0.1109 -0.2915 -0.5584
  114fsi    OBT 1071   0.251   2.202   0.429 -0.5257 -0.3663 -0.0599
  114fsi    OBT 1072   0.340   2.156   0.660 -0.1775 -0.2809  0.6357
  114fsi    SBT 1073   0.480   1.905   0.516 -0.2621  0.2429 -0.4204
  114fsi    OBT 1074   0.444   1.774   0.555 -0.0739  0.4140  0.0342
  114fsi    OBT 1075   0.565   1.983   0.602  0.1589 -0.2255 -0.4588
  114fsi    FSI 1076   0.569   1.885   0.389 -0.7181 -0.0971 -0.3035
  115fsi    FSI 1077   1.038   0.305   0.395 -0.3366  0.5319 -0.2679
  115fsi    SBT 1078   0.882   0.307   0.418 -0.2523  0.0852 -0.1581
  115fsi    NBT 1079   0.813   0.347   0.283 -0.0155  0.0322 -0.0719
  115fsi    OBT 1080   0.865   0.171   0.466 -0.0347  0.1727  1.3150
  115fsi    OBT 1081   0.871   0.420   0.511 -0.4622  0.3677  0.2550
  115fsi    SBT 1082   0.741   0.250   0.181 -0.4439  0.3960  0.0126
  115fsi    OBT 1083   0.598   0.248   0.202 -0.0077 -0.0359 -0.5677
  115fsi    OBT 1084   0.809   0.123   0.160  0.3893  0.0977  0.3730
  115fsi    FSI 1085   0.764   0.326   0.048 -0.1087  0.2993  0.2143
  116fsi    FSI 1086   0.734   1.110   1.360 -0.8340 -0.3652 -0.3162
  116fsi    SBT 1087   0.734   0.969   1.415  0.0535  0.3139  0.4548
  116fsi    NBT 1088   0.789   0.886   1.297  0.0127 -0.0621  0.2206
  116fsi    OBT 1089   0.825   0.976   1.527 -0.1288 -0.3894  0.7773
  116fsi    OBT 1090   0.598   0.937   1.436  0.6436 -0.2328  0.1204
  116fsi    SBT 1091   0.930   0.821   1.292  0.0606 -0.1793  0.4231
  116fsi    OBT 1092   1.041   0.911   1.325  0.5342 -0.7794  0.4673
  116fsi    OBT 1093   0.947   0.743   1.172  0.7160  0.0803  0.9073
  116fsi    FSI 1094   0.932   0.720   1.412 -0.3433 -0.7083  0.5781
  117fsi    FSI 1095   1.790   2.400   1.320 -0.0184 -0.4644  0.2563
  117fsi    SBT 1096   1.776   2.245   1.343 -0.3170  0.1007  0.0511
  117fsi    NBT 1097   1.886   2.176   1.260 -0.0869 -0.8099 -0.2260
  117fsi    OBT 1098   1.786   2.230   1.486  0.3036 -0.3322 -0.1635
  117fsi    OBT 1099   1.645   2.209   1.287  0.3323 -0.0230  0.0048
  117fsi    SBT 1100   2.039   2.174   1.279 -0.0879 -0.8921 -0.0788
  117fsi    OBT 1101   2.095   2.058   1.228 -0.0158 -0.2034 -0.1429
  117fsi    OBT 1102   2.083   2.226   1.406  0.0979  0.1525  0.3258
  117fsi    FSI 1103   2.086   2.281   1.172  0.3975 -0.0908  0.7294
  118fsi    FSI 1104   2.087   0.565   0.074  0.6296 -0.7204 -0.4228
  118fsi    SBT 1105   2.167   0.618   0.195  0.3930 -0.0666 -0.0725
  118fsi    NBT 1106   2.076   0.721   0.255  0.7286  0.2319 -0.5702
  118fsi    OBT 1107   2.183   0.498   0.268  0.1075  0.6663  0.3532
  118fsi    OBT 1108   2.280   0.679   0.136  0.5809 -0.3833 -0.2377
  118fsi    SBT 1109   2.015   0.742   0.397  0.0644 -0.2867 -0.2145
  118fsi    OBT 1110   1.977   0.626   0.467  0.3214 -0.1458  0.6226
  118fsi    OBT 1111   1.910   0.841   0.393  0.3179 -0.2710 -0.2649
  118fsi    FSI 1112   2.128   0.817   0.483  0.4657  0.3927 -0.1245
  119fsi    FSI 1113   1.714   1.198   2.490 -0.2814  0.2682 -0.0033
  119fsi    SBT 1114   1.664   1.117   2.362 -0.3660 -0.1602  0.0278
  119fsi    NBT 1115   1.506   1.096   2.378 -0.3368  0.7100 -0.0974
  119fsi    OBT 1116   1.703   1.203   2.254  0.0261 -0.3075  0.3158
  119fsi    OBT 1117   1.722   0.983   2.380  0.3557 -0.0111 -0.4893
  119fsi    SBT 1118   1.400   1.188   2.295  0.1166  0.1533 -0.6055
  119fsi    OBT 1119   1.419   1.332   2.304 -0.7259  0.4250 -0.1517
  119fsi    OBT 1120   1.264   1.138   2.312 -0.1359 -0.6701 -0.6799
  119fsi    FSI 1121   1.430   1.147   2.138  0.2619  0.5794 -0.1913
  120fsi    FSI 1122   2.581   1.646   0.656 -1.0135  0.0599 -0.5224
  120fsi    SBT 1123   2.677   1.529   0.602 -0.1774  0.0501  0.4011
  120fsi    NBT 1124   2.659   1.418   0.718 -0.0839 -0.6738 -0.3734
  120fsi    OBT 1125   2.608   1.491   0.480 -0.1129  0.7887  0.6307
  120fsi    OBT 1126   2.809   1.584   0.593 -0.4837 -0.3157 -0.2039
  120fsi    SBT 1127   2.531   1.374   0.794 -0.4890 -0.2403 -0.3203
  120fsi    OBT 1128   2.406   1.413   0.733  0.6087 -0.2100  0.4178
  120fsi    OBT 1129   2.547   1.392   0.937 -0.2872 -0.5758  0.1132
  120fsi    FSI 1130   2.525   1.218   0.775  0.3567 -0.3778 -0.1226
  121fsi    FSI 1131   2.037   0.039   1.590  0.3156  1.1045 -0.0548
  121fsi    SBT 1132   2.018  -0.113   1.613  0.0649  0.1576 -0.0472
  121fsi    NBT 1133   2.018  -0.112   1.770  0.4303 -0.2597  0.9345
  121fsi    OBT 1134   1.889  -0.142   1.550  0.6467  0.2066 -0.0914
  121fsi    OBT 1135   2.134  -0.172   1.551  0.3399  0.0501  0.2620
  121fsi    SBT 1136   1.891  -0.135   1.871 -0.3183  0.2591  0.0542
  121fsi    OBT 1137   1.932  -0.126   2.011 -0.2727  0.1064 -0.2298
  121fsi    OBT 1138   1.800  -0.244   1.845  0.6664  0.4135  0.3023
  121fsi    FSI 1139   1.807  -0.002   1.850  0.0873  0.2584 -0.4252
  122fsi    FSI 1140   1.267   0.804   1.051 -0.3539  0.2390 -0.1353
  122fsi    SBT 1141   1.368   0.887   1.141 -0.2030  0.5345 -0.1464
  122fsi    NBT 1142   1.372   1.027   1.068  0.1202  0.6560  0.4354
  122fsi    OBT 1143   1.310   0.876   1.273 -0.0341  0.2773  0.3081
  122fsi    OBT 1144   1.493   0.815   1.116  0.1916  0.0897  0.1061
  122fsi    SBT 1145   1.277   1.156   1.078  0.3254  0.1580 -0.2955
  122fsi    OBT 1146   1.204   1.156   1.204 -0.6147  0.1816 -0.2276
  122fsi    OBT 1147   1.201   1.184   0.960  0.5128  0.3840 -0.1239
  122fsi    FSI 1148   1.382   1.273   1.096  0.0148 -0.3720  1.0206
  123fsi    FSI 1149   0.540   2.186   0.941 -0.8256  0.6363 -0.5832
  123fsi    SBT 1150   0.583   2.334   0.924  0.0649 -0.0002 -0.1380
  123fsi    NBT 1151   0.467   2.410   0.990 -0.0758 -0.1134 -0.2146
  123fsi    OBT 1152   0.709   2.344   0.993 -0.3415 -0.6429 -0.2882
  123fsi    OBT 1153   0.591   2.340   0.782  0.0906  0.2452 -0.3086
  123fsi    SBT 1154   0.445   2.447   1.136 -0.0775  0.0671  0.4784
  123fsi    OBT 1155   0.498   2.346   1.222  0.3971  0.5852  0.4465
  123fsi    OBT 1156   0.315   2.498   1.162  0.1446  0.6346  0.3639
  123fsi    FSI 1157   0.527   2.573   1.170 -0.4709  0.7906 -0.5260
  124fsi    FSI 1158   2.222   1.556   1.363 -0.3562 -0.1654  0.3723
  124fsi    SBT 1159   2.089   1.619   1.297  0.0087 -0.2031 -0.5779
  124fsi    NBT 1160   2.077   1.524   1.167 -0.5062 -0.6707 -0.4245
  124fsi    OBT 1161   1.989   1.602   1.396  0.3273 -0.7418 -0.2930
  124fsi    OBT 1162   2.130   1.754   1.268  0.3742  0.0663  0.3674
  124fsi    SBT 1163   2.164   1.495   1.038  0.0955 -0.0470  0.1842
  124fsi    OBT 1164   2.303   1.531   1.045 -0.4000  0.0197  0.3882
  124fsi    OBT 1165   2.104   1.543   0.920  0.1704  0.0392  0.2102
  124fsi    FSI 1166   2.160   1.335   1.016 -0.0854 -0.1048  0.0227
  125fsi    FSI 1167   0.806   2.659   1.214 -0.1849  0.5590 -0.0370
  125fsi    SBT 1168   0.882   2.749   1.111 -0.2661  0.1166  0.0752
  125fsi    NBT 1169   0.926   2.653   0.997  0.1570 -0.6776 -0.0122
  125fsi    OBT 1170   0.778   2.849   1.087  0.5890  0.1387 -0.0133
  125fsi    OBT 1171   0.993   2.792   1.185 -0.4704 -0.1441 -0.1534
  125fsi    SBT 1172   0.884   2.665   0.846 -0.3533  0.0964  0.0923
  125fsi    OBT 1173   0.972   2.593   0.754  0.1605 -0.5052  0.6465
  125fsi    OBT 1174   0.843   2.790   0.796 -0.0505  0.1852 -0.0592
  125fsi    FSI 1175   0.757   2.582   0.842  0.2342  0.3973  0.0162
  126fsi    FSI 1176   0.523   2.300   0.209 -0.0113 -0.7453 -0.0878
  126fsi    SBT 1177   0.656   2.282   0.299  0.3355  0.0557 -0.5110
  126fsi    NBT 1178   0.694   2.427   0.321  0.3293  0.0912 -0.0114
  126fsi    OBT 1179   0.616   2.209   0.412  0.4226  0.5852  0.3885
  126fsi    OBT 1180   0.739   2.207   0.201 -0.0686 -0.1868 -0.3200
  126fsi    SBT 1181   0.617   2.531   0.414  0.4273 -0.0936 -0.6654
  126fsi    OBT 1182   0.705   2.591   0.509 -0.1919  0.0079 -0.3231
  126fsi    OBT 1183   0.492   2.482   0.471  0.2168  0.1366  0.2735
  126fsi    FSI 1184   0.575   2.651   0.316 -0.0264  0.4310  0.2790
  127fsi    FSI 1185   0.658   1.845   2.399 -0.4258  0.4370 -0.0298
  127fsi    SBT 1186   0.625   1.753   2.522 -0.2883 -0.4001  0.5120
  127fsi    NBT 1187   0.475   1.703   2.500  0.4662 -0.5805 -0.0527
  127fsi    OBT 1188   0.722   1.647   2.513 -0.7260 -0.0956 -0.0707
  127fsi    OBT 1189   0.638   1.843   2.633 -0.1830  0.3119  0.2585
  127fsi    SBT 1190   0.419   1.566   2.446 -0.1691  0.2945 -0.0693
  127fsi    OBT 1191   0.326   1.506   2.538 -0.2564  0.2296  0.1196
  127fsi    OBT 1192   0.520   1.490   2.388 -0.3024  0.0165  0.1708
  127fsi    FSI 1193   0.324   1.611   2.329 -0.0130 -0.1725  0.1576
  128fsi    FSI 1194   0.325   0.959   1.196 -0.1554  0.6841 -0.7434
  128fsi    SBT 1195   0.206   1.052   1.254  0.2200 -0.0509 -0.1380
  128fsi    NBT 1196   0.158   1.143   1.133  0.7639  0.1107 -0.1928
  128fsi    OBT 1197   0.097   0.964   1.285  0.2248 -0.1720  0.4288
  128fsi    OBT 1198   0.256   1.132   1.361  0.0771  0.3975 -0.8983
  128fsi    SBT 1199   0.221   1.282   1.100  0.0391  0.1200 -0.2358
  128fsi    OBT 1200   0.367   1.278   1.107 -0.2752  0.3036  0.4403
  128fsi    OBT 1201   0.148   1.387   1.172 -0.0267 -0.3396 -0.4898
  128fsi    FSI 1202   0.181   1.310   0.953 -0.4925  0.1460 -0.4854
  129fsi    FSI 1203   1.823   1.670   0.680  0.3315 -0.3412  0.9965
  129fsi    SBT 1204   1.682   1.636   0.743 -0.1041  0.1596  0.0318
  129fsi    NBT 1205   1.713   1.508   0.826  0.2412 -0.0353 -0.5881
  129fsi    OBT 1206   1.654   1.755   0.822  0.0868  0.0699  0.1243
  129fsi    OBT 1207   1.599   1.606   0.634 -0.2507  0.1923 -0.2095
  129fsi    SBT 1208   1.681   1.359   0.816  0.4176 -0.3043  0.1172
  129fsi    OBT 1209   1.781   1.275   0.879 -0.2883  0.7482 -0.5685
  129fsi    OBT 1210   1.631   1.321   0.687  0.2002  0.4615  0.4237
  129fsi    FSI 1211   1.560   1.356   0.916  0.1924 -0.3658  0.6361
  130fsi    FSI 1212   2.277   1.706   0.722  0.6706 -0.3760  0.0188
  130fsi    SBT 1213   2.282   1.849   0.775  0.0920 -0.0065  0.1791
  130fsi    NBT 1214   2.408   1.850   0.860  0.1664 -0.0695 -0.5823
  130fsi    OBT 1215   2.296   1.918   0.652 -0.5735  0.2876  0.2731
  130fsi    OBT 1216   2.162   1.868   0.846  0.1727 -0.6270 -0.2084
  130fsi    SBT 1217   2.436   1.847   1.013  0.1181 -0.1040 -0.1583
  130fsi    OBT 1218   2.528   1.740   1.040  0.5429 -0.3298 -0.2798
  130fsi    OBT 1219   2.320   1.865   1.096 -0.1693  0.1700  0.1809
  130fsi    FSI 1220   2.523   1.974   1.039  0.0290 -0.0687 -0.4648
  131fsi    FSI 1221   0.677   2.046   1.194 -0.3643 -0.3299 -0.1623
  131fsi    SBT 1222   0.805   1.973   1.149 -0.5834  0.4299 -0.2163
  131fsi    NBT 1223   0.793   1.991   0.998 -0.1412  0.2119  0.6306
  131fsi    OBT 1224   0.906   2.060   1.207 -0.3522 -0.1603  0.5201
  131fsi    OBT 1225   0.790   1.837   1.198 -0.6293  0.5272  0.2592
  131fsi    SBT 1226   0.885   2.062   0.892 -0.2764  0.3318  0.2977
  131fsi    OBT 1227   0.983   2.153   0.953 -0.4694 -0.1750 -0.2292
  131fsi    OBT 1228   0.809   2.122   0.785 -0.1621  0.0699  0.1845
  131fsi    FSI 1229   0.968   1.945   0.825 -0.1012 -0.1878  0.8677
  132fsi    FSI 1230   1.035   2.599   2.340  0.3359  0.3116 -0.0027
  132fsi    SBT 1231   0.976   2.493   2.431  0.1290 -0.4658 -0.2775
  132fsi    NBT 1232   0.942   2.374   2.334  1.1817 -0.4615 -0.0453
  132fsi    OBT 1233   1.081   2.457   2.524  0.0305  0.6700 -0.5246
  132fsi    OBT 1234   0.855   2.559   2.482 -0.1188 -0.2731  0.3291
  132fsi    SBT 1235   0.800   2.319   2.300 -0.0961 -0.4633  0.0398
  132fsi    OBT 1236   0.803   2.189   2.237 -0.2395  0.1630  0.4497
  132fsi    OBT 1237   0.717   2.419   2.238  0.0739 -0.2813  0.2996
  132fsi    FSI 1238   0.727   2.299   2.438 -0.0705  0.5418 -0.3776
  133fsi    FSI 1239   0.314   0.896   2.575 -0.2348 -0.0903  0.7387
  133fsi    SBT 1240   0.243   0.976   2.456 -0.0526 -0.0172  0.3774
  133fsi    NBT 1241   0.100   0.908   2.442 -0.0326  0.0499  0.8841
  133fsi    OBT 1242   0.229   1.105   2.511  0.5357  0.1880  0.9941
  133fsi    OBT 1243   0.334   0.963   2.347 -0.5581  0.6182  0.9722
  133fsi    SBT 1244  -0.043   0.965   2.440 -0.2653 -0.3817  0.1260
  133fsi    OBT 1245  -0.141   0.871   2.395 -0.0334  0.0191 -0.1075
  133fsi    OBT 1246  -0.048   1.093   2.374 -0.7593 -0.3408 -0.0651
  133fsi    FSI 1247  -0.088   0.999   2.595  0.2175  0.1051 -0.3563
  134fsi    FSI 1248   1.627   0.965   0.901 -0.5505  0.1413 -0.1598
  134fsi    SBT 1249   1.647   0.839   0.805 -0.1157  0.0915  0.1492
  134fsi    NBT 1250   1.800   0.803   0.819 -0.0951 -0.1759 -0.5579
  134fsi    OBT 1251   1.547   0.742   0.844  0.0111  0.3178 -0.5409
  134fsi    OBT 1252   1.627   0.902   0.680 -0.0887  0.3692  0.8061
  134fsi    SBT 1253   1.869   0.738   0.947 -0.0303 -0.4100  0.1468
  134fsi    OBT 1254   1.980   0.655   0.916  0.2546 -0.0286 -0.1038
  134fsi    OBT 1255   1.778   0.683   1.043 -0.4362  0.2059  0.0990
  134fsi    FSI 1256   1.939   0.858   1.026  0.0987  0.4199  0.1061
  135fsi    FSI 1257   0.314   0.837   0.343  0.3714  0.2473 -0.8737
  135fsi    SBT 1258   0.468   0.868   0.302  0.1934 -0.0684 -0.1841
  135fsi    NBT 1259   0.477   0.782   0.167  0.5152 -0.1372  0.1998
  135fsi    OBT 1260   0.479   1.014   0.296 -0.4415  0.6991  0.7129
  135fsi    OBT 1261   0.546   0.808   0.402 -0.1669 -0.5346  0.0634
  135fsi    SBT 1262   0.494   0.627   0.152 -0.3147 -0.3136 -0.3987
  135fsi    OBT 1263   0.522   0.558   0.274 -0.2095  0.4171 -0.2289
  135fsi    OBT 1264   0.574   0.596   0.039 -0.4796 -0.2515 -0.6290
  135fsi    FSI 1265   0.353   0.577   0.115  0.2153 -0.3628 -0.2113
  136fsi    FSI 1266   2.041   2.121   1.921  0.4508 -0.0520 -0.5527
  136fsi    SBT 1267   1.988   2.135   1.770  0.3143  0.0125  0.1725
  136fsi    NBT 1268   2.050   2.000   1.717  0.2894 -0.3000 -0.3035
  136fsi    OBT 1269   1.844   2.131   1.779  0.0190  0.3529  0.3990
  136fsi    OBT 1270   2.040   2.257   1.713  0.1294  0.0847  0.8036
  136fsi    SBT 1271   2.197   1.988   1.666 -0.0750  0.0789  0.4992
  136fsi    OBT 1272   2.279   2.101   1.665  0.4584 -0.0819  0.0860
  136fsi    OBT 1273   2.205   1.904   1.547 -0.9508 -0.7836  0.5987
  136fsi    FSI 1274   2.261   1.895   1.776 -0.5732  0.1676  0.0627
  137fsi    FSI 1275   1.153   0.600   0.143  0.5125  0.0761  0.1529
  137fsi    SBT 1276   1.061   0.674   0.031  0.7565 -0.0089  0.3757
  137fsi    NBT 1277   1.002   0.806   0.096  0.4800 -0.2895  0.4193
  137fsi    OBT 1278   1.156   0.706  -0.070 -0.4772  0.2123  0.0995
  137fsi    OBT 1279   0.957   0.577  -0.008  0.6448 -0.4592  0.1822
  137fsi    SBT 1280   0.897   0.807   0.216 -0.2919  0.4978 -0.1470
  137fsi    OBT 1281   0.888   0.934   0.283 -0.4523 -0.5181  0.0571
  137fsi    OBT 1282   0.900   0.686   0.298 -0.5432  0.1223  0.1893
  137fsi    FSI 1283   0.756   0.809   0.134  0.4096 -0.2848 -1.2647
  138fsi    FSI 1284   1.176   0.298   1.762 -0.3885 -0.1577 -0.2624
  138fsi    SBT 1285   1.056   0.391   1.708 -0.1827 -0.1845  0.0502
  138fsi    NBT 1286   1.096   0.405   1.560  0.0607  0.2180  0.5488
  138fsi    OBT 1287   0.929   0.330   1.733  0.4011  0.1542 -0.7966
  138fsi    OBT 1288   1.071   0.517   1.779 -0.3915 -0.2560  0.6298
  138fsi    SBT 1289   1.039   0.327   1.441 -0.2885  0.4650  0.2354
  138fsi    OBT 1290   1.004   0.412   1.334 -0.0174  0.6380 -0.2823
  138fsi    OBT 1291   0.956   0.207   1.470 -0.3761  0.0498  0.4474
  138fsi    FSI 1292   1.172   0.260   1.389 -0.5352 -0.2151 -0.5052
  139fsi    FSI 1293   1.431   0.015   1.398  0.2314  0.0621  0.7624
  139fsi    SBT 1294   1.362  -0.017   1.530 -0.4536  0.1981  0.1115
  139fsi    NBT 1295   1.467  -0.114   1.596  0.0710  0.7889 -0.8110
  139fsi    OBT 1296   1.355   0.111   1.588  0.0682  0.0296 -0.4789
  139fsi    OBT 1297   1.234  -0.079   1.490 -0.2039  0.0843 -0.3480
  139fsi    SBT 1298   1.450  -0.239   1.694 -0.3616 -0.0386 -0.4014
  139fsi    OBT 1299   1.552  -0.339   1.684 -0.1146  0.2369 -0.3124
  139fsi    OBT 1300   1.315  -0.279   1.724  0.1731 -0.7445 -0.5378
  139fsi    FSI 1301   1.496  -0.177   1.831  0.3238  0.3446  0.1890
  140fsi    FSI 1302   2.273   1.483   1.762 -0.5041  0.7534  0.1772
  140fsi    SBT 1303   2.301   1.380   1.878 -0.0962  0.4513 -0.2837
  140fsi    NBT 1304   2.169   1.293   1.887  0.4455 -0.7832  0.0827
  140fsi    OBT 1305   2.414   1.305   1.831  0.0558  0.8966 -0.1562
  140fsi    OBT 1306   2.316   1.462   1.993  0.6835 -0.0034 -0.0778
  140fsi    SBT 1307   2.115   1.184   1.787 -0.0423  0.1557 -0.3430
  140fsi    OBT 1308   2.217   1.128   1.705 -0.2537  0.1933 -0.5197
  140fsi    OBT 1309   1.984   1.224   1.737 -0.4872  0.1944  0.2419
  140fsi    FSI 1310   2.084   1.058   1.886 -0.0271 -0.3131 -0.0978
  141fsi    FSI 1311   0.992   0.515   2.364  1.1563 -0.3881  0.2500
  141fsi    SBT 1312   0.923   0.407   2.277  0.4335 -0.2994  0.1053
  141fsi    NBT 1313   0.781   0.410   2.345  0.3249  0.1676 -0.0951
  141fsi    OBT 1314   0.921   0.454   2.138 -0.0329  0.3018 -0.1732
  141fsi    OBT 1315   0.999   0.289   2.315  0.1663 -0.6262  0.2686
  141fsi    SBT 1316   0.639   0.442   2.296  0.2467 -0.1378  0.2623
  141fsi    OBT 1317   0.625   0.456   2.153 -0.2247 -0.3451 -0.0867
  141fsi    OBT 1318   0.572   0.544   2.376 -0.2102  0.4296  0.1102
  141fsi    FSI 1319   0.560   0.311   2.320 -0.4890 -0.2687 -0.4536
  142fsi    FSI 1320   1.608   0.246   1.160 -0.3842 -0.2638  0.0709
  142fsi    SBT 1321   1.581   0.361   1.262  0.0440  0.2933  0.0052
  142fsi    NBT 1322   1.722   0.376   1.337 -0.6828  0.2780 -0.2037
  142fsi    OBT 1323   1.558   0.478   1.182  0.0723  0.4835  0.6879
  142fsi    OBT 1324   1.467   0.321   1.344  0.0800 -0.1455  0.3577
  142fsi    SBT 1325   1.753   0.326   1.483 -0.1228  0.0748  0.2529
  142fsi    OBT 1326   1.637   0.307   1.568 -0.3356  0.4038  0.3008
  142fsi    OBT 1327   1.855   0.410   1.545  0.2874  0.1186  0.0970
  142fsi    FSI 1328   1.814   0.183   1.470  0.0526 -0.2879  1.0413
  143fsi    FSI 1329   1.234   0.545   1.126 -0.8958 -0.4259  0.5312
  143fsi    SBT 1330   1.244   0.480   0.984 -0.5038 -0.2490  0.2722
  143fsi    NBT 1331   1.135   0.561   0.905  0.2216 -0.6129 -0.5507
  143fsi    OBT 1332   1.373   0.514   0.933 -0.5219 -0.4920 -0.0567
  143fsi    OBT 1333   1.218   0.340   1.010 -0.3902  0.4375  0.0408
  143fsi    SBT 1334   0.988   0.512   0.876  0.2216  0.1014 -0.2678
  143fsi    OBT 1335   0.909   0.617   0.832 -0.5317  0.2749  0.2437
  143fsi    OBT 1336   0.925   0.405   0.951 -0.5339  0.2219 -1.0727
  143fsi    FSI 1337   1.019   0.446   0.739 -0.0553 -0.2619  0.3233
  144fsi    FSI 1338   1.077   0.343   0.109 -0.0993  0.2019 -0.7594
  144fsi    SBT 1339   1.149   0.257  -0.004  0.6925 -0.1873  0.0636
  144fsi    NBT 1340   1.289   0.220   0.062  0.8657  0.5563  0.1170
  144fsi    OBT 1341   1.056   0.149  -0.026  0.3237  0.6670 -0.2105
  144fsi    OBT 1342   1.165   0.350  -0.110  0.5362 -0.0321 -0.1819
  144fsi    SBT 1343   1.330   0.074   0.113  0.6033  0.3501 -0.2966
  144fsi    OBT 1344   1.470   0.062   0.101 -0.1644 -0.4011 -0.4285
  144fsi    OBT 1345   1.254  -0.039   0.069  0.5325  0.1425 -0.1996
  144fsi    FSI 1346   1.311   0.083   0.266  0.0370 -0.8581 -0.1420
  145fsi    FSI 1347   2.599   2.202   0.897  0.8191  0.2179  0.3179
  145fsi    SBT 1348   2.532   2.274   0.773 -0.4662  0.0754  0.0877
  145fsi    NBT 1349   2.659   2.318   0.683 -0.4000 -0.0666 -0.0766
  145fsi    OBT 1350   2.440   2.183   0.713  0.0319 -0.2118  0.4558
  145fsi    OBT 1351   2.464   2.388   0.828  0.0851 -0.3195  0.3615
  145fsi    SBT 1352   2.777   2.419   0.723 -0.3552 -0.1776  0.3866
  145fsi    OBT 1353   2.893   2.399   0.645  0.1171  0.3428 -0.1321
  145fsi    OBT 1354   2.787   2.447   0.864 -0.2306  0.2409 -1.0335
  145fsi    FSI 1355   2.721   2.549   0.668  0.2385 -0.3139  0.1209
  146fsi    FSI 1356   0.310   0.377   0.413 -0.1742 -0.5738 -0.1434
  146fsi    SBT 1357   0.201   0.312   0.327 -0.3406  0.2269  0.1511
  146fsi    NBT 1358   0.195   0.165   0.377 -0.0798  0.1591 -0.3215
  146fsi    OBT 1359   0.085   0.380   0.363 -0.2515  0.3691 -0.7727
  146fsi    OBT 1360   0.240   0.320   0.191  0.7038 -0.5954 -0.5792
  146fsi    SBT 1361   0.210   0.033   0.302 -0.2221  0.2942 -0.0387
  146fsi    OBT 1362   0.201  -0.090   0.375  0.6193  0.1426 -0.4513
  146fsi    OBT 1363   0.318   0.038   0.206 -0.0057 -0.6805  0.1455
  146fsi    FSI 1364   0.074   0.039   0.226 -0.0997  0.0807 -0.0685
  147fsi    FSI 1365   0.322   0.003   2.167  1.1313 -0.7214 -0.5546
  147fsi    SBT 1366   0.402  -0.077   2.054  0.3640 -0.4040 -0.3441
  147fsi    NBT 1367   0.292  -0.099   1.936 -0.1592 -0.6051  0.1373
  147fsi    OBT 1368   0.512   0.006   2.020 -0.2784  0.0436  0.0599
  147fsi    OBT 1369   0.442  -0.201   2.117  0.1268  0.0792 -0.4926
  147fsi    SBT 1370   0.179  -0.209   1.930 -0.1942 -0.1088  0.0496
  147fsi    OBT 1371   0.226  -0.341   1.965 -0.8650  0.4905 -0.2414
  147fsi    OBT 1372   0.100  -0.198   1.811 -0.2169  0.4245 -0.2483
  147fsi    FSI 1373   0.071  -0.174   2.039 -0.0356  0.4588  0.1335
  148fsi    FSI 1374   1.122   1.427   1.594  0.4652 -0.0503  0.1550
  148fsi    SBT 1375   1.266   1.378   1.586  0.0693  0.4641 -0.0982
  148fsi    NBT 1376   1.307   1.394   1.737 -0.0934 -0.3900  0.8809
  148fsi    OBT 1377   1.250   1.244   1.530  0.4215 -0.2637 -0.6670
  148fsi    OBT 1378   1.338   1.470   1.501 -0.0843  0.3235  0.6511
  148fsi    SBT 1379   1.430   1.461   1.808 -0.0900 -0.1460  0.1059
  148fsi    OBT 1380   1.391   1.505   1.939  0.1513 -0.0165 -0.1719
  148fsi    OBT 1381   1.511   1.548   1.729  0.5298 -0.4476  0.1288
  148fsi    FSI 1382   1.534   1.338   1.827  0.1638  0.0291  0.2324
  149fsi    FSI 1383   2.569   2.147   0.411  0.3702  0.7106 -0.2223
  149fsi    SBT 1384   2.508   2.274   0.334 -0.0610 -0.0923 -0.6292
  149fsi    NBT 1385   2.516   2.225   0.187 -0.4993  0.0978 -0.4682
  149fsi    OBT 1386   2.373   2.284   0.387  0.1123 -0.0669  0.3295
  149fsi    OBT 1387   2.595   2.384   0.367 -0.1978 -0.0273 -0.0637
  149fsi    SBT 1388   2.638   2.233   0.087 -0.0617 -0.0495 -0.0778
  149fsi    OBT 1389   2.650   2.121  -0.004  0.0480 -0.0687 -0.0030
  149fsi    OBT 1390   2.767   2.275   0.143 -1.0765  0.1241 -0.5384
  149fsi    FSI 1391   2.591   2.354  -0.005 -0.2032  0.0201 -0.0215
  150fsi    FSI 1392   0.089   1.845   1.274  0.3820  0.2971 -0.1453
  150fsi    SBT 1393   0.076   1.704   1.348 -0.1995  0.1364  0.2676
  150fsi    NBT 1394   0.013   1.744   1.488  0.0848  0.1460 -0.7579
  150fsi    OBT 1395  -0.012   1.629   1.261  0.0752  0.7555  0.0647
  150fsi    OBT 1396   0.216   1.665   1.368  0.3342 -0.3835  0.0333
  150fsi    SBT 1397  -0.139   1.793   1.517  0.1760  0.1660  0.3881
  150fsi    OBT 1398  -0.218   1.829   1.402 -0.2023  0.8158 -0.3503
  150fsi    OBT 1399  -0.140   1.882   1.632  0.3423 -0.3442  0.8616
  150fsi    FSI 1400  -0.209   1.662   1.572 -0.2712 -0.2404 -0.7316
   2.67578   2.67578   2.67578
