simbox
 2300
    1Li      Li    1   2.248   2.448   2.492
    2Li      Li    2   0.572   2.544   3.121
    3Li      Li    3   1.956   1.079   0.894
    4Li      Li    4   2.048   0.722   0.480
    5Li      Li    5   2.283   0.465   2.680
    6Li      Li    6   1.057   0.737   1.249
    7Li      Li    7   1.532   2.674   0.036
    8Li      Li    8   1.906   2.969   0.319
    9Li      Li    9   0.893   2.454   2.561
   10Li      Li   10   3.173   2.503   2.377
   11Li      Li   11   2.358   1.529   2.244
   12Li      Li   12   2.374   1.339   2.660
   13Li      Li   13   0.857   2.767   1.380
   14Li      Li   14   2.017   0.759   1.383
   15Li      Li   15   0.774   2.783   2.348
   16Li      Li   16   1.969   2.820   1.975
   17Li      Li   17   0.460   0.888   2.300
   18Li      Li   18   2.669   2.675   2.422
   19Li      Li   19   0.531   2.283   0.705
   20Li      Li   20   2.239   1.463   0.712
   21Li      Li   21   0.561   0.858   0.713
   22Li      Li   22   2.976   3.014   2.571
   23Li      Li   23   2.113   0.674   1.765
   24Li      Li   24   2.718   2.836   3.010
   25Li      Li   25   1.304   2.090   1.961
   26Li      Li   26   2.537   0.332   0.897
   27Li      Li   27   2.510   2.640   1.479
   28Li      Li   28   0.747   2.022   0.027
   29Li      Li   29   1.160   0.726   2.586
   30Li      Li   30   2.611   1.437   0.576
   31Li      Li   31   3.175   1.232   2.579
   32Li      Li   32   0.866   1.259   0.565
   33Li      Li   33   0.686   1.128   1.665
   34Li      Li   34   0.755   3.196   2.776
   35Li      Li   35   2.795   1.994   0.704
   36Li      Li   36   2.395   0.953   2.218
   37Li      Li   37   1.121   2.932   1.194
   38Li      Li   38   0.929   2.569   0.777
   39Li      Li   39   1.002   0.986   2.694
   40Li      Li   40   0.141   0.675   0.292
   41Li      Li   41   1.512   2.913   2.728
   42Li      Li   42   2.854   0.638   2.619
   43Li      Li   43   0.279   0.951   1.593
   44Li      Li   44   1.550   2.494   1.318
   45Li      Li   45   2.122   1.815   1.825
   46Li      Li   46   2.556   2.996   0.399
   47Li      Li   47   0.554   0.613   1.657
   48Li      Li   48   1.094   0.883   1.835
   49Li      Li   49   2.155   2.784   2.214
   50Li      Li   50   2.444   2.822   1.884
   51c3c      N   51   2.062   2.778   2.948
   51c3c     C1   52   2.160   2.669   2.963
   51c3c     C2   53   1.928   2.717   2.948
   51c3c     C3   54   2.080   2.541   2.984
   51c3c     C4   55   1.948   2.570   2.914
   51c3c     C5   56   2.072   2.868   3.064
   51c3c     C6   57   2.086   2.861   2.827
   51c3c     H1   58   2.231   2.684   3.044
   51c3c     H2   59   2.221   2.656   2.873
   51c3c     H3   60   1.882   2.719   3.047
   51c3c     H4   61   1.858   2.767   2.881
   51c3c     H5   62   2.061   2.524   3.091
   51c3c     H6   63   2.131   2.453   2.945
   51c3c     H7   64   1.867   2.506   2.948
   51c3c     H8   65   1.958   2.559   2.806
   51c3c     H9   66   2.168   2.919   3.067
   51c3c    H10   67   1.994   2.944   3.062
   51c3c    H11   68   2.062   2.812   3.157
   51c3c    H12   69   2.015   2.944   2.826
   51c3c    H13   70   2.184   2.907   2.833
   51c3c     C7   71   2.075   2.791   2.690
   51c3c    H14   72   1.978   2.742   2.678
   51c3c    H15   73   2.151   2.714   2.678
   51c3c     C8   74   2.091   2.892   2.576
   51c3c    H16   75   2.179   2.954   2.590
   51c3c    H17   76   2.005   2.959   2.570
   51c3c    H18   77   2.100   2.843   2.479
   52c3c      N   78   1.741   0.280   1.017
   52c3c     C1   79   1.845   0.382   1.032
   52c3c     C2   80   1.774   0.176   1.115
   52c3c     C3   81   1.972   0.313   1.083
   52c3c     C4   82   1.927   0.175   1.129
   52c3c     C5   83   1.611   0.339   1.050
   52c3c     C6   84   1.730   0.229   0.878
   52c3c     H1   85   1.817   0.457   1.107
   52c3c     H2   86   1.862   0.438   0.940
   52c3c     H3   87   1.735   0.203   1.213
   52c3c     H4   88   1.732   0.079   1.091
   52c3c     H5   89   2.017   0.369   1.165
   52c3c     H6   90   2.049   0.305   1.005
   52c3c     H7   91   1.958   0.156   1.232
   52c3c     H8   92   1.973   0.099   1.066
   52c3c     H9   93   1.591   0.425   0.986
   52c3c    H10   94   1.528   0.269   1.037
   52c3c    H11   95   1.606   0.376   1.153
   52c3c    H12   96   1.643   0.165   0.869
   52c3c    H13   97   1.709   0.315   0.813
   52c3c     C7   98   1.850   0.152   0.818
   52c3c    H14   99   1.862   0.056   0.869
   52c3c    H15  100   1.942   0.208   0.834
   52c3c     C8  101   1.835   0.127   0.668
   52c3c    H16  102   1.814   0.219   0.613
   52c3c    H17  103   1.753   0.057   0.646
   52c3c    H18  104   1.927   0.086   0.626
   53c3c      N  105   2.906   1.185   1.260
   53c3c     C1  106   2.826   1.074   1.314
   53c3c     C2  107   3.017   1.118   1.189
   53c3c     C3  108   2.924   0.963   1.353
   53c3c     C4  109   3.046   0.987   1.264
   53c3c     C5  110   2.827   1.260   1.162
   53c3c     C6  111   2.951   1.281   1.363
   53c3c     H1  112   2.763   1.033   1.235
   53c3c     H2  113   2.759   1.105   1.394
   53c3c     H3  114   2.985   1.089   1.089
   53c3c     H4  115   3.104   1.182   1.175
   53c3c     H5  116   2.880   0.865   1.334
   53c3c     H6  117   2.950   0.967   1.458
   53c3c     H7  118   3.059   0.904   1.194
   53c3c     H8  119   3.137   0.991   1.324
   53c3c     H9  120   2.735   1.300   1.207
   53c3c    H10  121   2.882   1.344   1.120
   53c3c    H11  122   2.796   1.201   1.076
   53c3c    H12  123   3.002   1.363   1.313
   53c3c    H13  124   2.863   1.326   1.408
   53c3c     C7  125   3.043   1.230   1.477
   53c3c    H14  126   3.125   1.170   1.435
   53c3c    H15  127   2.987   1.167   1.545
   53c3c     C8  128   3.113   1.340   1.556
   53c3c    H16  129   3.042   1.396   1.617
   53c3c    H17  130   3.164   1.411   1.490
   53c3c    H18  131   3.187   1.299   1.624
   54c3c      N  132   0.260   2.151   1.285
   54c3c     C1  133   0.188   2.023   1.275
   54c3c     C2  134   0.402   2.115   1.273
   54c3c     C3  135   0.279   1.915   1.337
   54c3c     C4  136   0.419   1.973   1.330
   54c3c     C5  137   0.218   2.237   1.174
   54c3c     C6  138   0.230   2.228   1.407
   54c3c     H1  139   0.175   1.996   1.170
   54c3c     H2  140   0.089   2.026   1.320
   54c3c     H3  141   0.431   2.111   1.168
   54c3c     H4  142   0.470   2.187   1.319
   54c3c     H5  143   0.272   1.821   1.283
   54c3c     H6  144   0.252   1.894   1.441
   54c3c     H7  145   0.482   1.913   1.263
   54c3c     H8  146   0.466   1.974   1.428
   54c3c     H9  147   0.110   2.253   1.173
   54c3c    H10  148   0.262   2.336   1.180
   54c3c    H11  149   0.245   2.196   1.077
   54c3c    H12  150   0.288   2.321   1.404
   54c3c    H13  151   0.126   2.258   1.404
   54c3c     C7  152   0.255   2.165   1.545
   54c3c    H14  153   0.361   2.142   1.558
   54c3c    H15  154   0.199   2.071   1.556
   54c3c     C8  155   0.208   2.259   1.657
   54c3c    H16  156   0.100   2.272   1.656
   54c3c    H17  157   0.252   2.358   1.645
   54c3c    H18  158   0.237   2.223   1.755
   55c3c      N  159   0.378   3.000   0.969
   55c3c     C1  160   0.341   2.861   0.993
   55c3c     C2  161   0.282   3.080   1.046
   55c3c     C3  162   0.204   2.853   1.060
   55c3c     C4  163   0.155   2.996   1.062
   55c3c     C5  164   0.514   3.028   1.017
   55c3c     C6  165   0.387   3.029   0.824
   55c3c     H1  166   0.414   2.812   1.058
   55c3c     H2  167   0.340   2.801   0.901
   55c3c     H3  168   0.320   3.099   1.147
   55c3c     H4  169   0.261   3.177   1.001
   55c3c     H5  170   0.214   2.813   1.161
   55c3c     H6  171   0.135   2.788   1.006
   55c3c     H7  172   0.103   3.018   1.156
   55c3c     H8  173   0.085   3.013   0.980
   55c3c     H9  174   0.583   2.960   0.967
   55c3c    H10  175   0.547   3.129   0.997
   55c3c    H11  176   0.527   3.013   1.124
   55c3c    H12  177   0.422   3.131   0.808
   55c3c    H13  178   0.464   2.966   0.782
   55c3c     C7  179   0.261   3.008   0.739
   55c3c    H14  180   0.185   3.082   0.764
   55c3c    H15  181   0.217   2.909   0.756
   55c3c     C8  182   0.297   3.017   0.590
   55c3c    H16  183   0.369   2.940   0.564
   55c3c    H17  184   0.343   3.113   0.566
   55c3c    H18  185   0.209   3.004   0.527
   56c3c      N  186   1.428   1.997   1.066
   56c3c     C1  187   1.349   1.873   1.058
   56c3c     C2  188   1.565   1.957   1.032
   56c3c     C3  189   1.444   1.757   1.082
   56c3c     C4  190   1.584   1.816   1.086
   56c3c     C5  191   1.379   2.093   0.967
   56c3c     C6  192   1.416   2.060   1.199
   56c3c     H1  193   1.305   1.860   0.959
   56c3c     H2  194   1.267   1.872   1.130
   56c3c     H3  195   1.576   1.950   0.924
   56c3c     H4  196   1.641   2.026   1.068
   56c3c     H5  197   1.437   1.690   0.996
   56c3c     H6  198   1.421   1.701   1.173
   56c3c     H7  199   1.653   1.759   1.024
   56c3c     H8  200   1.624   1.815   1.187
   56c3c     H9  201   1.277   2.124   0.986
   56c3c    H10  202   1.441   2.183   0.965
   56c3c    H11  203   1.381   2.052   0.866
   56c3c    H12  204   1.480   2.148   1.202
   56c3c    H13  205   1.314   2.095   1.210
   56c3c     C7  206   1.449   1.974   1.324
   56c3c    H14  207   1.556   1.955   1.331
   56c3c    H15  208   1.398   1.878   1.320
   56c3c     C8  209   1.405   2.041   1.453
   56c3c    H16  210   1.306   2.085   1.446
   56c3c    H17  211   1.476   2.119   1.482
   56c3c    H18  212   1.403   1.966   1.532
   57c3c      N  213   0.711   0.221   1.824
   57c3c     C1  214   0.601   0.128   1.854
   57c3c     C2  215   0.654   0.355   1.840
   57c3c     C3  216   0.472   0.196   1.808
   57c3c     C4  217   0.501   0.344   1.826
   57c3c     C5  218   0.820   0.203   1.921
   57c3c     C6  219   0.770   0.200   1.689
   57c3c     H1  220   0.593   0.113   1.961
   57c3c     H2  221   0.616   0.030   1.809
   57c3c     H3  222   0.674   0.393   1.940
   57c3c     H4  223   0.700   0.427   1.773
   57c3c     H5  224   0.386   0.165   1.867
   57c3c     H6  225   0.448   0.175   1.703
   57c3c     H7  226   0.453   0.376   1.918
   57c3c     H8  227   0.461   0.404   1.744
   57c3c     H9  228   0.867   0.105   1.912
   57c3c    H10  229   0.898   0.278   1.906
   57c3c    H11  230   0.786   0.215   2.024
   57c3c    H12  231   0.850   0.273   1.676
   57c3c    H13  232   0.818   0.102   1.685
   57c3c     C7  233   0.676   0.211   1.568
   57c3c    H14  234   0.618   0.302   1.579
   57c3c    H15  235   0.606   0.128   1.565
   57c3c     C8  236   0.749   0.216   1.433
   57c3c    H16  237   0.808   0.126   1.416
   57c3c    H17  238   0.816   0.301   1.427
   57c3c    H18  239   0.678   0.225   1.351
   58c3c      N  240   1.894   2.210   0.443
   58c3c     C1  241   1.811   2.144   0.544
   58c3c     C2  242   1.827   2.339   0.420
   58c3c     C3  243   1.668   2.196   0.531
   58c3c     C4  244   1.677   2.310   0.432
   58c3c     C5  245   2.027   2.230   0.499
   58c3c     C6  246   1.916   2.134   0.318
   58c3c     H1  247   1.843   2.172   0.645
   58c3c     H2  248   1.818   2.035   0.542
   58c3c     H3  249   1.852   2.410   0.499
   58c3c     H4  250   1.854   2.385   0.325
   58c3c     H5  251   1.630   2.230   0.628
   58c3c     H6  252   1.596   2.123   0.493
   58c3c     H7  253   1.619   2.396   0.463
   58c3c     H8  254   1.637   2.278   0.336
   58c3c     H9  255   2.065   2.134   0.533
   58c3c    H10  256   2.097   2.273   0.427
   58c3c    H11  257   2.029   2.294   0.586
   58c3c    H12  258   1.973   2.196   0.248
   58c3c    H13  259   1.983   2.050   0.339
   58c3c     C7  260   1.796   2.076   0.241
   58c3c    H14  261   1.739   2.156   0.194
   58c3c    H15  262   1.730   2.022   0.308
   58c3c     C8  263   1.843   1.979   0.132
   58c3c    H16  264   1.889   1.890   0.175
   58c3c    H17  265   1.917   2.025   0.066
   58c3c    H18  266   1.760   1.946   0.070
   59c3c      N  267   1.349   2.970   2.186
   59c3c     C1  268   1.282   3.038   2.074
   59c3c     C2  269   1.345   2.826   2.156
   59c3c     C3  270   1.176   2.941   2.022
   59c3c     C4  271   1.232   2.803   2.054
   59c3c     C5  272   1.489   3.013   2.190
   59c3c     C6  273   1.294   3.005   2.319
   59c3c     H1  274   1.352   3.054   1.992
   59c3c     H2  275   1.242   3.136   2.100
   59c3c     H3  276   1.437   2.792   2.109
   59c3c     H4  277   1.335   2.765   2.245
   59c3c     H5  278   1.160   2.953   1.914
   59c3c     H6  279   1.080   2.956   2.070
   59c3c     H7  280   1.272   2.757   1.964
   59c3c     H8  281   1.154   2.738   2.094
   59c3c     H9  282   1.499   3.121   2.206
   59c3c    H10  283   1.547   2.963   2.267
   59c3c    H11  284   1.538   2.990   2.096
   59c3c    H12  285   1.355   2.956   2.395
   59c3c    H13  286   1.308   3.112   2.336
   59c3c     C7  287   1.147   2.972   2.349
   59c3c    H14  288   1.130   2.865   2.342
   59c3c    H15  289   1.082   3.021   2.276
   59c3c     C8  290   1.105   3.023   2.488
   59c3c    H16  291   1.120   3.130   2.498
   59c3c    H17  292   1.162   2.974   2.567
   59c3c    H18  293   1.000   3.003   2.506
   60c3c      N  294   1.598   0.224   1.896
   60c3c     C1  295   1.597   0.368   1.925
   60c3c     C2  296   1.737   0.180   1.919
   60c3c     C3  297   1.740   0.418   1.907
   60c3c     C4  298   1.829   0.297   1.886
   60c3c     C5  299   1.511   0.158   1.992
   60c3c     C6  300   1.545   0.189   1.763
   60c3c     H1  301   1.571   0.391   2.028
   60c3c     H2  302   1.528   0.424   1.863
   60c3c     H3  303   1.756   0.160   2.024
   60c3c     H4  304   1.763   0.090   1.863
   60c3c     H5  305   1.772   0.475   1.994
   60c3c     H6  306   1.743   0.484   1.820
   60c3c     H7  307   1.916   0.301   1.951
   60c3c     H8  308   1.866   0.293   1.783
   60c3c     H9  309   1.409   0.196   1.984
   60c3c    H10  310   1.508   0.050   1.976
   60c3c    H11  311   1.544   0.174   2.094
   60c3c    H12  312   1.546   0.081   1.751
   60c3c    H13  313   1.441   0.219   1.756
   60c3c     C7  314   1.616   0.249   1.641
   60c3c    H14  315   1.721   0.219   1.638
   60c3c    H15  316   1.612   0.358   1.647
   60c3c     C8  317   1.552   0.207   1.508
   60c3c    H16  318   1.459   0.261   1.493
   60c3c    H17  319   1.533   0.100   1.504
   60c3c    H18  320   1.617   0.232   1.424
   61c3c      N  321   2.923   1.989   2.270
   61c3c     C1  322   2.861   2.034   2.395
   61c3c     C2  323   2.812   1.982   2.174
   61c3c     C3  324   2.719   1.978   2.397
   61c3c     C4  325   2.686   1.944   2.253
   61c3c     C5  326   3.019   2.090   2.224
   61c3c     C6  327   2.999   1.862   2.283
   61c3c     H1  328   2.850   2.143   2.395
   61c3c     H2  329   2.919   2.009   2.484
   61c3c     H3  330   2.792   2.081   2.132
   61c3c     H4  331   2.832   1.916   2.091
   61c3c     H5  332   2.649   2.052   2.436
   61c3c     H6  333   2.712   1.889   2.460
   61c3c     H7  334   2.599   2.000   2.218
   61c3c     H8  335   2.661   1.838   2.243
   61c3c     H9  336   3.101   2.104   2.296
   61c3c    H10  337   3.064   2.064   2.128
   61c3c    H11  338   2.973   2.188   2.211
   61c3c    H12  339   3.046   1.839   2.187
   61c3c    H13  340   3.082   1.877   2.352
   61c3c     C7  341   2.924   1.735   2.329
   61c3c    H14  342   2.841   1.713   2.262
   61c3c    H15  343   2.882   1.749   2.428
   61c3c     C8  344   3.017   1.612   2.333
   61c3c    H16  345   3.098   1.625   2.403
   61c3c    H17  346   3.060   1.591   2.235
   61c3c    H18  347   2.962   1.523   2.363
   62c3c      N  348   1.525   0.818   1.638
   62c3c     C1  349   1.560   0.676   1.636
   62c3c     C2  350   1.378   0.820   1.642
   62c3c     C3  351   1.449   0.603   1.559
   62c3c     C4  352   1.326   0.689   1.581
   62c3c     C5  353   1.580   0.881   1.759
   62c3c     C6  354   1.582   0.893   1.523
   62c3c     H1  355   1.562   0.635   1.738
   62c3c     H2  356   1.659   0.660   1.595
   62c3c     H3  357   1.344   0.826   1.745
   62c3c     H4  358   1.337   0.907   1.589
   62c3c     H5  359   1.434   0.501   1.596
   62c3c     H6  360   1.473   0.595   1.453
   62c3c     H7  361   1.257   0.641   1.650
   62c3c     H8  362   1.273   0.705   1.487
   62c3c     H9  363   1.689   0.881   1.758
   62c3c    H10  364   1.551   0.986   1.769
   62c3c    H11  365   1.550   0.831   1.851
   62c3c    H12  366   1.557   0.999   1.534
   62c3c    H13  367   1.691   0.890   1.529
   62c3c     C7  368   1.545   0.848   1.382
   62c3c    H14  369   1.440   0.816   1.382
   62c3c    H15  370   1.604   0.761   1.354
   62c3c     C8  371   1.558   0.956   1.274
   62c3c    H16  372   1.657   1.002   1.275
   62c3c    H17  373   1.484   1.035   1.290
   62c3c    H18  374   1.541   0.915   1.175
   63c3c      N  375   1.654   2.101   2.537
   63c3c     C1  376   1.509   2.115   2.517
   63c3c     C2  377   1.686   1.962   2.501
   63c3c     C3  378   1.448   1.977   2.544
   63c3c     C4  379   1.563   1.878   2.529
   63c3c     C5  380   1.723   2.190   2.444
   63c3c     C6  381   1.700   2.135   2.673
   63c3c     H1  382   1.486   2.139   2.413
   63c3c     H2  383   1.466   2.195   2.577
   63c3c     H3  384   1.709   1.950   2.395
   63c3c     H4  385   1.773   1.924   2.555
   63c3c     H5  386   1.367   1.955   2.474
   63c3c     H6  387   1.409   1.970   2.645
   63c3c     H7  388   1.547   1.808   2.447
   63c3c     H8  389   1.574   1.818   2.619
   63c3c     H9  390   1.702   2.296   2.463
   63c3c    H10  391   1.831   2.175   2.450
   63c3c    H11  392   1.695   2.170   2.341
   63c3c    H12  393   1.807   2.116   2.678
   63c3c    H13  394   1.688   2.242   2.690
   63c3c     C7  395   1.635   2.063   2.792
   63c3c    H14  396   1.637   1.955   2.779
   63c3c    H15  397   1.531   2.093   2.800
   63c3c     C8  398   1.705   2.095   2.924
   63c3c    H16  399   1.713   2.203   2.940
   63c3c    H17  400   1.807   2.056   2.925
   63c3c    H18  401   1.652   2.052   3.009
   64c3c      N  402   2.767   1.937   1.723
   64c3c     C1  403   2.717   1.842   1.821
   64c3c     C2  404   2.757   2.067   1.788
   64c3c     C3  405   2.604   1.913   1.896
   64c3c     C4  406   2.629   2.061   1.870
   64c3c     C5  407   2.907   1.907   1.693
   64c3c     C6  408   2.694   1.930   1.595
   64c3c     H1  409   2.795   1.819   1.894
   64c3c     H2  410   2.687   1.748   1.776
   64c3c     H3  411   2.840   2.085   1.857
   64c3c     H4  412   2.756   2.150   1.717
   64c3c     H5  413   2.604   1.889   2.002
   64c3c     H6  414   2.506   1.884   1.859
   64c3c     H7  415   2.634   2.119   1.962
   64c3c     H8  416   2.548   2.102   1.809
   64c3c     H9  417   2.919   1.808   1.651
   64c3c    H10  418   2.948   1.978   1.621
   64c3c    H11  419   2.970   1.912   1.782
   64c3c    H12  420   2.743   1.996   1.524
   64c3c    H13  421   2.707   1.827   1.561
   64c3c     C7  422   2.542   1.953   1.581
   64c3c    H14  423   2.518   2.057   1.598
   64c3c    H15  424   2.485   1.892   1.652
   64c3c     C8  425   2.494   1.911   1.441
   64c3c    H16  426   2.507   1.804   1.425
   64c3c    H17  427   2.546   1.962   1.361
   64c3c    H18  428   2.388   1.932   1.428
   65c3c      N  429   2.900   2.149   1.236
   65c3c     C1  430   2.763   2.099   1.255
   65c3c     C2  431   2.922   2.257   1.333
   65c3c     C3  432   2.685   2.211   1.326
   65c3c     C4  433   2.787   2.308   1.381
   65c3c     C5  434   2.995   2.041   1.263
   65c3c     C6  435   2.924   2.191   1.096
   65c3c     H1  436   2.760   2.010   1.317
   65c3c     H2  437   2.713   2.069   1.163
   65c3c     H3  438   2.977   2.223   1.421
   65c3c     H4  439   2.982   2.338   1.292
   65c3c     H5  440   2.622   2.172   1.406
   65c3c     H6  441   2.620   2.261   1.254
   65c3c     H7  442   2.782   2.310   1.490
   65c3c     H8  443   2.766   2.409   1.346
   65c3c     H9  444   2.977   1.954   1.199
   65c3c    H10  445   3.098   2.073   1.250
   65c3c    H11  446   2.986   2.006   1.366
   65c3c    H12  447   3.027   2.225   1.087
   65c3c    H13  448   2.914   2.104   1.031
   65c3c     C7  449   2.832   2.301   1.040
   65c3c    H14  450   2.835   2.390   1.103
   65c3c    H15  451   2.728   2.269   1.037
   65c3c     C8  452   2.876   2.340   0.898
   65c3c    H16  453   2.867   2.256   0.830
   65c3c    H17  454   2.980   2.373   0.897
   65c3c    H18  455   2.815   2.421   0.860
   66c3c      N  456   1.427   2.982   0.707
   66c3c     C1  457   1.564   2.997   0.757
   66c3c     C2  458   1.397   2.837   0.698
   66c3c     C3  459   1.636   2.866   0.731
   66c3c     C4  460   1.526   2.762   0.727
   66c3c     C5  461   1.334   3.044   0.802
   66c3c     C6  462   1.409   3.049   0.577
   66c3c     H1  463   1.566   3.013   0.865
   66c3c     H2  464   1.617   3.083   0.716
   66c3c     H3  465   1.322   2.803   0.770
   66c3c     H4  466   1.355   2.807   0.602
   66c3c     H5  467   1.709   2.845   0.809
   66c3c     H6  468   1.689   2.868   0.635
   66c3c     H7  469   1.520   2.713   0.824
   66c3c     H8  470   1.545   2.685   0.652
   66c3c     H9  471   1.347   3.152   0.809
   66c3c    H10  472   1.231   3.023   0.775
   66c3c    H11  473   1.347   3.004   0.903
   66c3c    H12  474   1.305   3.041   0.546
   66c3c    H13  475   1.426   3.156   0.589
   66c3c     C7  476   1.498   2.999   0.461
   66c3c    H14  477   1.488   2.891   0.447
   66c3c    H15  478   1.603   3.017   0.483
   66c3c     C8  479   1.462   3.068   0.330
   66c3c    H16  480   1.470   3.176   0.338
   66c3c    H17  481   1.360   3.044   0.301
   66c3c    H18  482   1.527   3.035   0.249
   67c3c      N  483   0.373   0.459   2.612
   67c3c     C1  484   0.256   0.538   2.570
   67c3c     C2  485   0.413   0.380   2.494
   67c3c     C3  486   0.218   0.495   2.428
   67c3c     C4  487   0.287   0.360   2.411
   67c3c     C5  488   0.483   0.549   2.650
   67c3c     C6  489   0.344   0.375   2.730
   67c3c     H1  490   0.273   0.646   2.573
   67c3c     H2  491   0.171   0.524   2.637
   67c3c     H3  492   0.482   0.436   2.431
   67c3c     H4  493   0.463   0.286   2.520
   67c3c     H5  494   0.258   0.566   2.356
   67c3c     H6  495   0.110   0.488   2.413
   67c3c     H7  496   0.308   0.337   2.307
   67c3c     H8  497   0.223   0.280   2.449
   67c3c     H9  498   0.456   0.612   2.735
   67c3c    H10  499   0.573   0.495   2.677
   67c3c    H11  500   0.511   0.617   2.569
   67c3c    H12  501   0.437   0.329   2.765
   67c3c    H13  502   0.310   0.440   2.811
   67c3c     C7  503   0.241   0.262   2.711
   67c3c    H14  504   0.279   0.186   2.643
   67c3c    H15  505   0.148   0.300   2.668
   67c3c     C8  506   0.205   0.192   2.843
   67c3c    H16  507   0.164   0.263   2.915
   67c3c    H17  508   0.293   0.145   2.888
   67c3c    H18  509   0.130   0.115   2.827
   68c3c      N  510   0.476   2.798   1.858
   68c3c     C1  511   0.427   2.902   1.766
   68c3c     C2  512   0.469   2.860   1.990
   68c3c     C3  513   0.406   3.033   1.842
   68c3c     C4  514   0.482   3.011   1.971
   68c3c     C5  515   0.386   2.681   1.848
   68c3c     C6  516   0.612   2.750   1.825
   68c3c     H1  517   0.332   2.877   1.718
   68c3c     H2  518   0.501   2.916   1.688
   68c3c     H3  519   0.369   2.843   2.032
   68c3c     H4  520   0.542   2.819   2.060
   68c3c     H5  521   0.300   3.046   1.864
   68c3c     H6  522   0.441   3.119   1.785
   68c3c     H7  523   0.440   3.068   2.053
   68c3c     H8  524   0.586   3.043   1.958
   68c3c     H9  525   0.386   2.640   1.747
   68c3c    H10  526   0.416   2.599   1.913
   68c3c    H11  527   0.283   2.706   1.872
   68c3c    H12  528   0.637   2.665   1.888
   68c3c    H13  529   0.611   2.711   1.723
   68c3c     C7  530   0.728   2.852   1.833
   68c3c    H14  531   0.740   2.888   1.936
   68c3c    H15  532   0.708   2.940   1.771
   68c3c     C8  533   0.862   2.793   1.790
   68c3c    H16  534   0.858   2.759   1.686
   68c3c    H17  535   0.891   2.709   1.853
   68c3c    H18  536   0.942   2.868   1.795
   69c3c      N  537   2.391   2.189   0.638
   69c3c     C1  538   2.335   2.325   0.654
   69c3c     C2  539   2.533   2.200   0.672
   69c3c     C3  540   2.453   2.422   0.663
   69c3c     C4  541   2.576   2.341   0.632
   69c3c     C5  542   2.325   2.100   0.734
   69c3c     C6  543   2.370   2.129   0.504
   69c3c     H1  544   2.276   2.335   0.745
   69c3c     H2  545   2.266   2.353   0.574
   69c3c     H3  546   2.548   2.191   0.779
   69c3c     H4  547   2.594   2.123   0.623
   69c3c     H5  548   2.459   2.461   0.765
   69c3c     H6  549   2.443   2.507   0.595
   69c3c     H7  550   2.663   2.376   0.687
   69c3c     H8  551   2.600   2.348   0.526
   69c3c     H9  552   2.218   2.094   0.719
   69c3c    H10  553   2.362   1.998   0.729
   69c3c    H11  554   2.341   2.133   0.837
   69c3c    H12  555   2.427   2.037   0.498
   69c3c    H13  556   2.267   2.097   0.494
   69c3c     C7  557   2.406   2.211   0.378
   69c3c    H14  558   2.514   2.225   0.371
   69c3c    H15  559   2.360   2.309   0.380
   69c3c     C8  560   2.359   2.138   0.251
   69c3c    H16  561   2.252   2.122   0.252
   69c3c    H17  562   2.405   2.039   0.243
   69c3c    H18  563   2.385   2.194   0.162
   70c3c      N  564   1.076   2.382   1.810
   70c3c     C1  565   1.038   2.461   1.691
   70c3c     C2  566   1.221   2.396   1.826
   70c3c     C3  567   1.165   2.526   1.638
   70c3c     C4  568   1.276   2.438   1.690
   70c3c     C5  569   1.010   2.439   1.928
   70c3c     C6  570   1.033   2.241   1.799
   70c3c     H1  571   0.965   2.538   1.712
   70c3c     H2  572   0.994   2.400   1.612
   70c3c     H3  573   1.248   2.475   1.896
   70c3c     H4  574   1.269   2.304   1.862
   70c3c     H5  575   1.175   2.627   1.679
   70c3c     H6  576   1.163   2.533   1.529
   70c3c     H7  577   1.369   2.493   1.698
   70c3c     H8  578   1.292   2.352   1.624
   70c3c     H9  579   0.901   2.437   1.917
   70c3c    H10  580   1.035   2.385   2.020
   70c3c    H11  581   1.038   2.543   1.943
   70c3c    H12  582   1.056   2.190   1.893
   70c3c    H13  583   0.924   2.239   1.790
   70c3c     C7  584   1.091   2.157   1.683
   70c3c    H14  585   1.199   2.150   1.688
   70c3c    H15  586   1.069   2.203   1.586
   70c3c     C8  587   1.034   2.014   1.679
   70c3c    H16  588   0.925   2.015   1.670
   70c3c    H17  589   1.060   1.957   1.768
   70c3c    H18  590   1.073   1.960   1.593
   71c3c      N  591   2.397   0.867   1.423
   71c3c     C1  592   2.365   0.744   1.350
   71c3c     C2  593   2.542   0.883   1.403
   71c3c     C3  594   2.486   0.651   1.364
   71c3c     C4  595   2.603   0.743   1.395
   71c3c     C5  596   2.327   0.981   1.363
   71c3c     C6  597   2.357   0.866   1.566
   71c3c     H1  598   2.353   0.764   1.244
   71c3c     H2  599   2.273   0.696   1.383
   71c3c     H3  600   2.560   0.930   1.306
   71c3c     H4  601   2.588   0.946   1.478
   71c3c     H5  602   2.503   0.593   1.273
   71c3c     H6  603   2.473   0.579   1.445
   71c3c     H7  604   2.679   0.736   1.317
   71c3c     H8  605   2.651   0.714   1.489
   71c3c     H9  606   2.219   0.974   1.374
   71c3c    H10  607   2.359   1.074   1.410
   71c3c    H11  608   2.347   0.990   1.257
   71c3c    H12  609   2.388   0.959   1.612
   71c3c    H13  610   2.248   0.867   1.572
   71c3c     C7  611   2.406   0.750   1.656
   71c3c    H14  612   2.514   0.743   1.656
   71c3c    H15  613   2.367   0.654   1.622
   71c3c     C8  614   2.360   0.773   1.799
   71c3c    H16  615   2.254   0.799   1.804
   71c3c    H17  616   2.411   0.860   1.841
   71c3c    H18  617   2.380   0.687   1.863
   72c3c      N  618   1.418   0.740   0.256
   72c3c     C1  619   1.526   0.762   0.158
   72c3c     C2  620   1.478   0.731   0.390
   72c3c     C3  621   1.659   0.757   0.234
   72c3c     C4  622   1.627   0.700   0.370
   72c3c     C5  623   1.325   0.854   0.250
   72c3c     C6  624   1.337   0.620   0.230
   72c3c     H1  625   1.520   0.858   0.108
   72c3c     H2  626   1.524   0.689   0.077
   72c3c     H3  627   1.469   0.824   0.447
   72c3c     H4  628   1.430   0.657   0.455
   72c3c     H5  629   1.697   0.859   0.245
   72c3c     H6  630   1.734   0.699   0.181
   72c3c     H7  631   1.689   0.744   0.448
   72c3c     H8  632   1.645   0.592   0.371
   72c3c     H9  633   1.278   0.861   0.152
   72c3c    H10  634   1.247   0.847   0.326
   72c3c    H11  635   1.378   0.948   0.266
   72c3c    H12  636   1.254   0.616   0.301
   72c3c    H13  637   1.290   0.631   0.132
   72c3c     C7  638   1.410   0.484   0.235
   72c3c    H14  639   1.466   0.473   0.329
   72c3c    H15  640   1.483   0.476   0.155
   72c3c     C8  641   1.313   0.366   0.230
   72c3c    H16  642   1.260   0.362   0.134
   72c3c    H17  643   1.238   0.372   0.309
   72c3c    H18  644   1.366   0.272   0.242
   73c3c      N  645   2.384   2.077   2.811
   73c3c     C1  646   2.428   2.208   2.762
   73c3c     C2  647   2.502   2.018   2.875
   73c3c     C3  648   2.579   2.198   2.730
   73c3c     C4  649   2.625   2.070   2.798
   73c3c     C5  650   2.279   2.097   2.912
   73c3c     C6  651   2.328   1.991   2.705
   73c3c     H1  652   2.417   2.283   2.840
   73c3c     H2  653   2.369   2.245   2.678
   73c3c     H3  654   2.511   2.053   2.978
   73c3c     H4  655   2.494   1.910   2.879
   73c3c     H5  656   2.632   2.284   2.771
   73c3c     H6  657   2.599   2.196   2.623
   73c3c     H7  658   2.709   2.089   2.865
   73c3c     H8  659   2.660   1.998   2.724
   73c3c     H9  660   2.190   2.142   2.868
   73c3c    H10  661   2.247   2.004   2.958
   73c3c    H11  662   2.310   2.162   2.994
   73c3c    H12  663   2.298   1.895   2.746
   73c3c    H13  664   2.234   2.032   2.669
   73c3c     C7  665   2.418   1.964   2.584
   73c3c    H14  666   2.505   1.906   2.614
   73c3c    H15  667   2.453   2.058   2.540
   73c3c     C8  668   2.349   1.888   2.473
   73c3c    H16  669   2.262   1.941   2.434
   73c3c    H17  670   2.312   1.792   2.508
   73c3c    H18  671   2.418   1.873   2.391
   74c3c      N  672   1.236   1.380   1.551
   74c3c     C1  673   1.133   1.276   1.540
   74c3c     C2  674   1.343   1.320   1.631
   74c3c     C3  675   1.202   1.140   1.557
   74c3c     C4  676   1.345   1.173   1.594
   74c3c     C5  677   1.290   1.409   1.418
   74c3c     C6  678   1.188   1.508   1.607
   74c3c     H1  679   1.080   1.279   1.444
   74c3c     H2  680   1.057   1.284   1.617
   74c3c     H3  681   1.439   1.367   1.614
   74c3c     H4  682   1.325   1.325   1.739
   74c3c     H5  683   1.199   1.080   1.466
   74c3c     H6  684   1.153   1.082   1.635
   74c3c     H7  685   1.408   1.157   1.506
   74c3c     H8  686   1.384   1.113   1.676
   74c3c     H9  687   1.214   1.453   1.352
   74c3c    H10  688   1.372   1.481   1.423
   74c3c    H11  689   1.330   1.321   1.367
   74c3c    H12  690   1.271   1.578   1.609
   74c3c    H13  691   1.116   1.553   1.540
   74c3c     C7  692   1.124   1.505   1.748
   74c3c    H14  693   1.187   1.456   1.822
   74c3c    H15  694   1.029   1.451   1.748
   74c3c     C8  695   1.096   1.647   1.801
   74c3c    H16  696   1.024   1.699   1.738
   74c3c    H17  697   1.188   1.705   1.803
   74c3c    H18  698   1.057   1.643   1.902
   75c3c      N  699   2.118   1.031   2.689
   75c3c     C1  700   2.022   0.951   2.765
   75c3c     C2  701   2.040   1.139   2.624
   75c3c     C3  702   1.888   0.968   2.697
   75c3c     C4  703   1.892   1.111   2.649
   75c3c     C5  704   2.212   1.087   2.785
   75c3c     C6  705   2.194   0.948   2.593
   75c3c     H1  706   2.009   0.989   2.867
   75c3c     H2  707   2.054   0.847   2.772
   75c3c     H3  708   2.064   1.239   2.659
   75c3c     H4  709   2.054   1.143   2.516
   75c3c     H5  710   1.804   0.948   2.763
   75c3c     H6  711   1.881   0.900   2.612
   75c3c     H7  712   1.855   1.177   2.727
   75c3c     H8  713   1.833   1.125   2.559
   75c3c     H9  714   2.260   1.009   2.843
   75c3c    H10  715   2.290   1.145   2.734
   75c3c    H11  716   2.162   1.153   2.856
   75c3c    H12  717   2.269   1.008   2.541
   75c3c    H13  718   2.253   0.873   2.646
   75c3c     C7  719   2.111   0.872   2.487
   75c3c    H14  720   2.035   0.935   2.442
   75c3c    H15  721   2.060   0.787   2.532
   75c3c     C8  722   2.197   0.820   2.373
   75c3c    H16  723   2.277   0.754   2.406
   75c3c    H17  724   2.241   0.903   2.318
   75c3c    H18  725   2.133   0.766   2.303
   76c3c      N  726   1.504   1.539   2.984
   76c3c     C1  727   1.365   1.518   2.942
   76c3c     C2  728   1.572   1.589   2.863
   76c3c     C3  729   1.371   1.468   2.798
   76c3c     C4  730   1.502   1.524   2.744
   76c3c     C5  731   1.507   1.645   3.085
   76c3c     C6  732   1.569   1.421   3.045
   76c3c     H1  733   1.311   1.612   2.939
   76c3c     H2  734   1.311   1.450   3.008
   76c3c     H3  735   1.561   1.696   2.851
   76c3c     H4  736   1.679   1.569   2.864
   76c3c     H5  737   1.286   1.499   2.738
   76c3c     H6  738   1.371   1.359   2.795
   76c3c     H7  739   1.484   1.595   2.664
   76c3c     H8  740   1.563   1.444   2.703
   76c3c     H9  741   1.447   1.615   3.171
   76c3c    H10  742   1.608   1.666   3.120
   76c3c    H11  743   1.466   1.740   3.050
   76c3c    H12  744   1.669   1.450   3.079
   76c3c    H13  745   1.516   1.392   3.135
   76c3c     C7  746   1.588   1.293   2.959
   76c3c    H14  747   1.645   1.316   2.869
   76c3c    H15  748   1.492   1.252   2.928
   76c3c     C8  749   1.661   1.181   3.034
   76c3c    H16  750   1.604   1.148   3.121
   76c3c    H17  751   1.759   1.214   3.069
   76c3c    H18  752   1.676   1.095   2.970
   77c3c      N  753   2.827   1.420   1.951
   77c3c     C1  754   2.960   1.451   1.896
   77c3c     C2  755   2.844   1.295   2.029
   77c3c     C3  756   3.033   1.317   1.886
   77c3c     C4  757   2.988   1.247   2.012
   77c3c     C5  758   2.787   1.529   2.040
   77c3c     C6  759   2.722   1.409   1.848
   77c3c     H1  760   3.017   1.512   1.966
   77c3c     H2  761   2.955   1.506   1.802
   77c3c     H3  762   2.823   1.308   2.135
   77c3c     H4  763   2.777   1.216   1.995
   77c3c     H5  764   3.141   1.328   1.882
   77c3c     H6  765   3.001   1.259   1.800
   77c3c     H7  766   3.048   1.279   2.097
   77c3c     H8  767   2.995   1.139   2.004
   77c3c     H9  768   2.797   1.626   1.992
   77c3c    H10  769   2.683   1.521   2.072
   77c3c    H11  770   2.847   1.531   2.131
   77c3c    H12  771   2.628   1.383   1.897
   77c3c    H13  772   2.705   1.506   1.801
   77c3c     C7  773   2.743   1.309   1.733
   77c3c    H14  774   2.762   1.209   1.773
   77c3c    H15  775   2.829   1.336   1.673
   77c3c     C8  776   2.621   1.302   1.641
   77c3c    H16  777   2.604   1.398   1.592
   77c3c    H17  778   2.531   1.275   1.696
   77c3c    H18  779   2.634   1.227   1.563
   78c3c      N  780   2.422   0.812   0.632
   78c3c     C1  781   2.536   0.764   0.553
   78c3c     C2  782   2.428   0.959   0.636
   78c3c     C3  783   2.641   0.874   0.558
   78c3c     C4  784   2.568   1.002   0.596
   78c3c     C5  785   2.298   0.776   0.563
   78c3c     C6  786   2.419   0.752   0.766
   78c3c     H1  787   2.509   0.742   0.450
   78c3c     H2  788   2.575   0.669   0.590
   78c3c     H3  789   2.356   1.007   0.570
   78c3c     H4  790   2.405   0.997   0.736
   78c3c     H5  791   2.691   0.886   0.461
   78c3c     H6  792   2.717   0.851   0.632
   78c3c     H7  793   2.563   1.071   0.512
   78c3c     H8  794   2.618   1.053   0.679
   78c3c     H9  795   2.290   0.668   0.553
   78c3c    H10  796   2.212   0.816   0.618
   78c3c    H11  797   2.293   0.818   0.463
   78c3c    H12  798   2.331   0.787   0.821
   78c3c    H13  799   2.405   0.644   0.757
   78c3c     C7  800   2.544   0.776   0.851
   78c3c    H14  801   2.570   0.882   0.852
   78c3c    H15  802   2.630   0.725   0.806
   78c3c     C8  803   2.528   0.726   0.995
   78c3c    H16  804   2.499   0.621   0.998
   78c3c    H17  805   2.452   0.784   1.047
   78c3c    H18  806   2.621   0.737   1.051
   79c3c      N  807   1.321   0.325   2.361
   79c3c     C1  808   1.264   0.459   2.339
   79c3c     C2  809   1.257   0.231   2.267
   79c3c     C3  810   1.177   0.455   2.214
   79c3c     C4  811   1.154   0.309   2.185
   79c3c     C5  812   1.464   0.331   2.332
   79c3c     C6  813   1.309   0.278   2.501
   79c3c     H1  814   1.341   0.536   2.326
   79c3c     H2  815   1.203   0.494   2.422
   79c3c     H3  816   1.330   0.187   2.198
   79c3c     H4  817   1.210   0.146   2.315
   79c3c     H5  818   1.226   0.504   2.130
   79c3c     H6  819   1.082   0.507   2.231
   79c3c     H7  820   1.165   0.290   2.078
   79c3c     H8  821   1.053   0.278   2.213
   79c3c     H9  822   1.516   0.399   2.399
   79c3c    H10  823   1.512   0.234   2.340
   79c3c    H11  824   1.481   0.368   2.231
   79c3c    H12  825   1.356   0.180   2.510
   79c3c    H13  826   1.368   0.343   2.566
   79c3c     C7  827   1.166   0.269   2.559
   79c3c    H14  828   1.099   0.218   2.491
   79c3c    H15  829   1.125   0.369   2.574
   79c3c     C8  830   1.163   0.200   2.696
   79c3c    H16  831   1.225   0.253   2.768
   79c3c    H17  832   1.198   0.097   2.690
   79c3c    H18  833   1.061   0.199   2.735
   80c3c      N  834   0.285   1.467   0.864
   80c3c     C1  835   0.427   1.453   0.901
   80c3c     C2  836   0.203   1.433   0.982
   80c3c     C3  837   0.431   1.429   1.051
   80c3c     C4  838   0.297   1.365   1.081
   80c3c     C5  839   0.259   1.608   0.831
   80c3c     C6  840   0.258   1.384   0.745
   80c3c     H1  841   0.489   1.537   0.869
   80c3c     H2  842   0.474   1.367   0.854
   80c3c     H3  843   0.164   1.522   1.032
   80c3c     H4  844   0.115   1.373   0.959
   80c3c     H5  845   0.443   1.521   1.108
   80c3c     H6  846   0.514   1.363   1.074
   80c3c     H7  847   0.267   1.380   1.185
   80c3c     H8  848   0.298   1.258   1.062
   80c3c     H9  849   0.314   1.641   0.743
   80c3c    H10  850   0.153   1.625   0.812
   80c3c    H11  851   0.286   1.674   0.913
   80c3c    H12  852   0.162   1.412   0.703
   80c3c    H13  853   0.330   1.408   0.667
   80c3c     C7  854   0.258   1.230   0.767
   80c3c    H14  855   0.184   1.199   0.841
   80c3c    H15  856   0.355   1.197   0.806
   80c3c     C8  857   0.231   1.152   0.638
   80c3c    H16  858   0.296   1.185   0.557
   80c3c    H17  859   0.128   1.165   0.606
   80c3c    H18  860   0.247   1.045   0.654
   81c3c      N  861   1.082   0.751   0.709
   81c3c     C1  862   1.153   0.872   0.753
   81c3c     C2  863   0.987   0.790   0.603
   81c3c     C3  864   1.082   0.990   0.688
   81c3c     C4  865   1.028   0.931   0.560
   81c3c     C5  866   1.181   0.659   0.649
   81c3c     C6  867   1.019   0.678   0.820
   81c3c     H1  868   1.258   0.874   0.721
   81c3c     H2  869   1.157   0.885   0.861
   81c3c     H3  870   0.984   0.721   0.519
   81c3c     H4  871   0.884   0.795   0.639
   81c3c     H5  872   1.150   1.074   0.672
   81c3c     H6  873   1.000   1.024   0.752
   81c3c     H7  874   1.107   0.926   0.485
   81c3c     H8  875   0.945   0.988   0.520
   81c3c     H9  876   1.254   0.628   0.723
   81c3c    H10  877   1.135   0.568   0.611
   81c3c    H11  878   1.236   0.705   0.567
   81c3c    H12  879   0.975   0.585   0.784
   81c3c    H13  880   1.098   0.646   0.888
   81c3c     C7  881   0.912   0.755   0.903
   81c3c    H14  882   0.831   0.793   0.841
   81c3c    H15  883   0.957   0.842   0.951
   81c3c     C8  884   0.848   0.668   1.012
   81c3c    H16  885   0.921   0.637   1.087
   81c3c    H17  886   0.803   0.577   0.971
   81c3c    H18  887   0.770   0.722   1.065
   82c3c      N  888   0.257   0.353   1.153
   82c3c     C1  889   0.382   0.276   1.170
   82c3c     C2  890   0.181   0.277   1.053
   82c3c     C3  891   0.413   0.208   1.036
   82c3c     C4  892   0.284   0.218   0.955
   82c3c     C5  893   0.182   0.354   1.279
   82c3c     C6  894   0.279   0.495   1.116
   82c3c     H1  895   0.369   0.196   1.244
   82c3c     H2  896   0.466   0.335   1.206
   82c3c     H3  897   0.130   0.193   1.099
   82c3c     H4  898   0.104   0.336   1.004
   82c3c     H5  899   0.443   0.104   1.051
   82c3c     H6  900   0.495   0.258   0.985
   82c3c     H7  901   0.251   0.121   0.917
   82c3c     H8  902   0.299   0.280   0.867
   82c3c     H9  903   0.235   0.407   1.358
   82c3c    H10  904   0.084   0.402   1.267
   82c3c    H11  905   0.161   0.254   1.317
   82c3c    H12  906   0.182   0.545   1.110
   82c3c    H13  907   0.332   0.544   1.197
   82c3c     C7  908   0.354   0.525   0.985
   82c3c    H14  909   0.300   0.486   0.900
   82c3c    H15  910   0.454   0.481   0.987
   82c3c     C8  911   0.370   0.675   0.959
   82c3c    H16  912   0.431   0.722   1.036
   82c3c    H17  913   0.273   0.726   0.958
   82c3c    H18  914   0.418   0.692   0.863
   83c3c      N  915   2.965   0.549   1.970
   83c3c     C1  916   3.047   0.452   2.044
   83c3c     C2  917   2.828   0.499   1.989
   83c3c     C3  918   2.979   0.315   2.030
   83c3c     C4  919   2.834   0.346   1.996
   83c3c     C5  920   2.978   0.681   2.032
   83c3c     C6  921   3.002   0.566   1.828
   83c3c     H1  922   3.044   0.476   2.151
   83c3c     H2  923   3.152   0.452   2.014
   83c3c     H3  924   2.791   0.529   2.087
   83c3c     H4  925   2.756   0.534   1.915
   83c3c     H5  926   2.985   0.258   2.122
   83c3c     H6  927   3.023   0.254   1.951
   83c3c     H7  928   2.768   0.309   2.074
   83c3c     H8  929   2.804   0.299   1.902
   83c3c     H9  930   3.081   0.718   2.030
   83c3c    H10  931   2.917   0.755   1.980
   83c3c    H11  932   2.946   0.683   2.136
   83c3c    H12  933   2.931   0.635   1.782
   83c3c    H13  934   3.100   0.615   1.823
   83c3c     C7  935   3.010   0.442   1.738
   83c3c    H14  936   2.914   0.390   1.735
   83c3c    H15  937   3.083   0.371   1.776
   83c3c     C8  938   3.050   0.478   1.595
   83c3c    H16  939   3.145   0.531   1.591
   83c3c    H17  940   2.974   0.539   1.547
   83c3c    H18  941   3.061   0.386   1.536
   84c3c      N  942   0.859   1.560   2.926
   84c3c     C1  943   0.751   1.481   2.988
   84c3c     C2  944   0.831   1.700   2.961
   84c3c     C3  945   0.627   1.571   2.993
   84c3c     C4  946   0.680   1.713   2.977
   84c3c     C5  947   0.989   1.520   2.981
   84c3c     C6  948   0.869   1.540   2.780
   84c3c     H1  949   0.777   1.454   3.090
   84c3c     H2  950   0.731   1.388   2.935
   84c3c     H3  951   0.877   1.725   3.057
   84c3c     H4  952   0.872   1.769   2.888
   84c3c     H5  953   0.574   1.560   3.088
   84c3c     H6  954   0.557   1.548   2.914
   84c3c     H7  955   0.655   1.774   3.064
   84c3c     H8  956   0.634   1.761   2.890
   84c3c     H9  957   1.012   1.415   2.958
   84c3c    H10  958   1.070   1.580   2.939
   84c3c    H11  959   0.994   1.531   3.089
   84c3c    H12  960   0.952   1.601   2.745
   84c3c    H13  961   0.895   1.437   2.758
   84c3c     C7  962   0.747   1.578   2.693
   84c3c    H14  963   0.719   1.682   2.707
   84c3c    H15  964   0.662   1.515   2.720
   84c3c     C8  965   0.776   1.559   2.545
   84c3c    H16  966   0.808   1.457   2.523
   84c3c    H17  967   0.853   1.628   2.509
   84c3c    H18  968   0.686   1.581   2.488
   85c3c      N  969   0.663   1.353   2.140
   85c3c     C1  970   0.702   1.375   2.000
   85c3c     C2  971   0.731   1.232   2.184
   85c3c     C3  972   0.762   1.242   1.950
   85c3c     C4  973   0.743   1.143   2.061
   85c3c     C5  974   0.713   1.463   2.222
   85c3c     C6  975   0.517   1.350   2.163
   85c3c     H1  976   0.777   1.453   1.989
   85c3c     H2  977   0.616   1.409   1.943
   85c3c     H3  978   0.832   1.251   2.219
   85c3c     H4  979   0.680   1.188   2.271
   85c3c     H5  980   0.868   1.256   1.926
   85c3c     H6  981   0.714   1.202   1.860
   85c3c     H7  982   0.826   1.072   2.068
   85c3c     H8  983   0.654   1.083   2.042
   85c3c     H9  984   0.660   1.555   2.196
   85c3c    H10  985   0.694   1.441   2.327
   85c3c    H11  986   0.820   1.481   2.211
   85c3c    H12  987   0.498   1.338   2.269
   85c3c    H13  988   0.475   1.447   2.137
   85c3c     C7  989   0.435   1.243   2.088
   85c3c    H14  990   0.467   1.143   2.118
   85c3c    H15  991   0.449   1.251   1.981
   85c3c     C8  992   0.286   1.253   2.120
   85c3c    H16  993   0.248   1.355   2.105
   85c3c    H17  994   0.267   1.226   2.224
   85c3c    H18  995   0.227   1.186   2.058
   86c3c      N  996   2.224   1.451   1.352
   86c3c     C1  997   2.128   1.435   1.461
   86c3c     C2  998   2.357   1.461   1.414
   86c3c     C3  999   2.187   1.507   1.581
   86c3c     C4 1000   2.334   1.527   1.549
   86c3c     C5 1001   2.219   1.330   1.272
   86c3c     C6 1002   2.195   1.566   1.264
   86c3c     H1 1003   2.119   1.330   1.491
   86c3c     H2 1004   2.028   1.469   1.437
   86c3c     H3 1005   2.398   1.362   1.434
   86c3c     H4 1006   2.429   1.514   1.352
   86c3c     H5 1007   2.171   1.450   1.673
   86c3c     H6 1008   2.140   1.604   1.592
   86c3c     H7 1009   2.399   1.481   1.623
   86c3c     H8 1010   2.358   1.634   1.548
   86c3c     H9 1011   2.119   1.313   1.231
   86c3c    H10 1012   2.290   1.336   1.190
   86c3c    H11 1013   2.243   1.241   1.329
   86c3c    H12 1014   2.263   1.565   1.179
   86c3c    H13 1015   2.094   1.555   1.223
   86c3c     C7 1016   2.202   1.707   1.323
   86c3c    H14 1017   2.298   1.726   1.370
   86c3c    H15 1018   2.123   1.722   1.397
   86c3c     C8 1019   2.187   1.813   1.214
   86c3c    H16 1020   2.096   1.796   1.156
   86c3c    H17 1021   2.271   1.811   1.144
   86c3c    H18 1022   2.182   1.912   1.258
   87c3c      N 1023   2.416   2.952   0.959
   87c3c     C1 1024   2.295   2.926   0.880
   87c3c     C2 1025   2.484   3.062   0.889
   87c3c     C3 1026   2.330   2.956   0.734
   87c3c     C4 1027   2.445   3.054   0.741
   87c3c     C5 1028   2.379   2.996   1.094
   87c3c     C6 1029   2.502   2.833   0.977
   87c3c     H1 1030   2.215   2.994   0.907
   87c3c     H2 1031   2.256   2.825   0.893
   87c3c     H3 1032   2.450   3.159   0.925
   87c3c     H4 1033   2.592   3.060   0.904
   87c3c     H5 1034   2.245   2.999   0.680
   87c3c     H6 1035   2.360   2.866   0.680
   87c3c     H7 1036   2.413   3.151   0.704
   87c3c     H8 1037   2.528   3.019   0.678
   87c3c     H9 1038   2.324   2.920   1.148
   87c3c    H10 1039   2.466   3.022   1.154
   87c3c    H11 1040   2.316   3.086   1.093
   87c3c    H12 1041   2.585   2.858   1.042
   87c3c    H13 1042   2.444   2.758   1.030
   87c3c     C7 1043   2.558   2.765   0.851
   87c3c    H14 1044   2.611   2.837   0.790
   87c3c    H15 1045   2.477   2.722   0.792
   87c3c     C8 1046   2.656   2.651   0.882
   87c3c    H16 1047   2.604   2.567   0.927
   87c3c    H17 1048   2.734   2.683   0.952
   87c3c    H18 1049   2.703   2.616   0.791
   88c3c      N 1050   0.423   1.732   0.287
   88c3c     C1 1051   0.387   1.735   0.430
   88c3c     C2 1052   0.296   1.709   0.216
   88c3c     C3 1053   0.256   1.656   0.448
   88c3c     C4 1054   0.207   1.626   0.308
   88c3c     C5 1055   0.475   1.863   0.247
   88c3c     C6 1056   0.529   1.634   0.253
   88c3c     H1 1057   0.369   1.837   0.465
   88c3c     H2 1058   0.464   1.694   0.496
   88c3c     H3 1059   0.244   1.803   0.199
   88c3c     H4 1060   0.309   1.664   0.117
   88c3c     H5 1061   0.183   1.715   0.503
   88c3c     H6 1062   0.272   1.563   0.503
   88c3c     H7 1063   0.102   1.653   0.297
   88c3c     H8 1064   0.215   1.519   0.287
   88c3c     H9 1065   0.568   1.889   0.298
   88c3c    H10 1066   0.496   1.865   0.140
   88c3c    H11 1067   0.405   1.943   0.267
   88c3c    H12 1068   0.547   1.638   0.146
   88c3c    H13 1069   0.623   1.666   0.298
   88c3c     C7 1070   0.507   1.487   0.292
   88c3c    H14 1071   0.420   1.446   0.241
   88c3c    H15 1072   0.489   1.477   0.399
   88c3c     C8 1073   0.629   1.401   0.256
   88c3c    H16 1074   0.720   1.436   0.305
   88c3c    H17 1075   0.647   1.402   0.148
   88c3c    H18 1076   0.613   1.297   0.284
   89c3c      N 1077   1.917   2.844   1.270
   89c3c     C1 1078   1.808   2.900   1.191
   89c3c     C2 1079   2.014   2.953   1.284
   89c3c     C3 1080   1.870   3.002   1.095
   89c3c     C4 1081   2.005   3.036   1.156
   89c3c     C5 1082   1.862   2.811   1.403
   89c3c     C6 1083   1.975   2.722   1.210
   89c3c     H1 1084   1.738   2.955   1.254
   89c3c     H2 1085   1.750   2.823   1.141
   89c3c     H3 1086   1.987   3.018   1.367
   89c3c     H4 1087   2.115   2.918   1.307
   89c3c     H5 1088   1.807   3.090   1.085
   89c3c     H6 1089   1.883   2.960   0.995
   89c3c     H7 1090   2.014   3.142   1.178
   89c3c     H8 1091   2.086   3.010   1.087
   89c3c     H9 1092   1.788   2.731   1.396
   89c3c    H10 1093   1.940   2.777   1.472
   89c3c    H11 1094   1.814   2.894   1.453
   89c3c    H12 1095   2.065   2.694   1.265
   89c3c    H13 1096   1.904   2.640   1.224
   89c3c     C7 1097   2.008   2.720   1.060
   89c3c    H14 1098   2.081   2.796   1.035
   89c3c    H15 1099   1.918   2.737   1.001
   89c3c     C8 1100   2.064   2.584   1.019
   89c3c    H16 1101   2.001   2.502   1.052
   89c3c    H17 1102   2.162   2.566   1.063
   89c3c    H18 1103   2.075   2.576   0.910
   90c3c      N 1104   2.857   1.714   2.848
   90c3c     C1 1105   2.719   1.722   2.897
   90c3c     C2 1106   2.913   1.590   2.904
   90c3c     C3 1107   2.702   1.623   3.013
   90c3c     C4 1108   2.840   1.564   3.035
   90c3c     C5 1109   2.858   1.705   2.701
   90c3c     C6 1110   2.936   1.835   2.881
   90c3c     H1 1111   2.647   1.695   2.820
   90c3c     H2 1112   2.691   1.823   2.928
   90c3c     H3 1113   2.892   1.505   2.839
   90c3c     H4 1114   3.022   1.593   2.916
   90c3c     H5 1115   2.631   1.545   2.985
   90c3c     H6 1116   2.664   1.671   3.103
   90c3c     H7 1117   2.834   1.458   3.059
   90c3c     H8 1118   2.889   1.613   3.120
   90c3c     H9 1119   2.812   1.793   2.656
   90c3c    H10 1120   2.959   1.695   2.661
   90c3c    H11 1121   2.800   1.620   2.665
   90c3c    H12 1122   3.037   1.825   2.842
   90c3c    H13 1123   2.893   1.920   2.827
   90c3c     C7 1124   2.946   1.877   3.029
   90c3c    H14 1125   3.002   1.803   3.086
   90c3c    H15 1126   2.847   1.884   3.075
   90c3c     C8 1127   3.014   2.013   3.043
   90c3c    H16 1128   2.960   2.091   2.989
   90c3c    H17 1129   3.116   2.011   3.004
   90c3c    H18 1130   3.019   2.044   3.148
   91c3c      N 1131   0.806   1.932   2.068
   91c3c     C1 1132   0.773   2.017   2.182
   91c3c     C2 1133   0.741   1.804   2.099
   91c3c     C3 1134   0.762   1.927   2.306
   91c3c     C4 1135   0.749   1.787   2.252
   91c3c     C5 1136   0.752   1.988   1.944
   91c3c     C6 1137   0.951   1.922   2.046
   91c3c     H1 1138   0.674   2.058   2.165
   91c3c     H2 1139   0.840   2.102   2.195
   91c3c     H3 1140   0.635   1.809   2.074
   91c3c     H4 1141   0.783   1.720   2.044
   91c3c     H5 1142   0.673   1.950   2.364
   91c3c     H6 1143   0.847   1.934   2.374
   91c3c     H7 1144   0.659   1.743   2.293
   91c3c     H8 1145   0.833   1.725   2.283
   91c3c     H9 1146   0.799   2.082   1.917
   91c3c    H10 1147   0.764   1.920   1.859
   91c3c    H11 1148   0.646   2.012   1.953
   91c3c    H12 1149   0.971   1.847   1.969
   91c3c    H13 1150   0.987   2.016   2.005
   91c3c     C7 1151   1.038   1.893   2.168
   91c3c    H14 1152   1.019   1.792   2.204
   91c3c    H15 1153   1.021   1.962   2.251
   91c3c     C8 1154   1.182   1.910   2.130
   91c3c    H16 1155   1.204   2.014   2.105
   91c3c    H17 1156   1.203   1.844   2.046
   91c3c    H18 1157   1.247   1.884   2.214
   92c3c      N 1158   0.802   1.776   0.649
   92c3c     C1 1159   0.901   1.882   0.679
   92c3c     C2 1160   0.696   1.838   0.568
   92c3c     C3 1161   0.869   2.003   0.589
   92c3c     C4 1162   0.753   1.963   0.502
   92c3c     C5 1163   0.869   1.676   0.565
   92c3c     C6 1164   0.750   1.702   0.765
   92c3c     H1 1165   1.005   1.852   0.665
   92c3c     H2 1166   0.901   1.917   0.783
   92c3c     H3 1167   0.658   1.770   0.492
   92c3c     H4 1168   0.610   1.868   0.628
   92c3c     H5 1169   0.954   2.037   0.530
   92c3c     H6 1170   0.841   2.089   0.649
   92c3c     H7 1171   0.786   1.943   0.400
   92c3c     H8 1172   0.679   2.043   0.496
   92c3c     H9 1173   0.959   1.639   0.615
   92c3c    H10 1174   0.805   1.591   0.542
   92c3c    H11 1175   0.901   1.719   0.470
   92c3c    H12 1176   0.681   1.624   0.733
   92c3c    H13 1177   0.833   1.650   0.813
   92c3c     C7 1178   0.680   1.786   0.874
   92c3c    H14 1179   0.589   1.832   0.835
   92c3c    H15 1180   0.746   1.866   0.907
   92c3c     C8 1181   0.638   1.711   1.001
   92c3c    H16 1182   0.685   1.614   1.010
   92c3c    H17 1183   0.529   1.700   1.006
   92c3c    H18 1184   0.665   1.769   1.089
   93c3c      N 1185   1.864   0.267   2.882
   93c3c     C1 1186   1.739   0.237   2.954
   93c3c     C2 1187   1.882   0.411   2.897
   93c3c     C3 1188   1.649   0.360   2.939
   93c3c     C4 1189   1.744   0.474   2.905
   93c3c     C5 1190   1.976   0.200   2.948
   93c3c     C6 1191   1.863   0.221   2.741
   93c3c     H1 1192   1.758   0.226   3.060
   93c3c     H2 1193   1.691   0.145   2.921
   93c3c     H3 1194   1.930   0.434   2.992
   93c3c     H4 1195   1.944   0.457   2.819
   93c3c     H5 1196   1.595   0.381   3.032
   93c3c     H6 1197   1.573   0.348   2.862
   93c3c     H7 1198   1.741   0.551   2.982
   93c3c     H8 1199   1.720   0.523   2.810
   93c3c     H9 1200   1.970   0.092   2.941
   93c3c    H10 1201   2.071   0.231   2.904
   93c3c    H11 1202   1.983   0.226   3.053
   93c3c    H12 1203   1.959   0.246   2.696
   93c3c    H13 1204   1.857   0.112   2.739
   93c3c     C7 1205   1.756   0.275   2.644
   93c3c    H14 1206   1.773   0.381   2.625
   93c3c    H15 1207   1.655   0.265   2.683
   93c3c     C8 1208   1.761   0.198   2.511
   93c3c    H16 1209   1.711   0.101   2.518
   93c3c    H17 1210   1.863   0.180   2.478
   93c3c    H18 1211   1.714   0.256   2.431
   94c3c      N 1212   1.165   1.405   0.299
   94c3c     C1 1213   1.110   1.286   0.234
   94c3c     C2 1214   1.310   1.384   0.300
   94c3c     C3 1215   1.204   1.170   0.269
   94c3c     C4 1216   1.333   1.234   0.317
   94c3c     C5 1217   1.137   1.522   0.216
   94c3c     C6 1218   1.110   1.434   0.434
   94c3c     H1 1219   1.116   1.296   0.126
   94c3c     H2 1220   1.005   1.266   0.257
   94c3c     H3 1221   1.353   1.407   0.202
   94c3c     H4 1222   1.363   1.448   0.370
   94c3c     H5 1223   1.223   1.108   0.180
   94c3c     H6 1224   1.162   1.105   0.346
   94c3c     H7 1225   1.419   1.203   0.258
   94c3c     H8 1226   1.353   1.206   0.420
   94c3c     H9 1227   1.031   1.549   0.214
   94c3c    H10 1228   1.193   1.608   0.254
   94c3c    H11 1229   1.171   1.511   0.113
   94c3c    H12 1230   1.160   1.523   0.472
   94c3c    H13 1231   1.005   1.462   0.424
   94c3c     C7 1232   1.123   1.328   0.545
   94c3c    H14 1233   1.228   1.305   0.563
   94c3c    H15 1234   1.074   1.235   0.515
   94c3c     C8 1235   1.065   1.377   0.678
   94c3c    H16 1236   0.963   1.416   0.669
   94c3c    H17 1237   1.124   1.460   0.717
   94c3c    H18 1238   1.065   1.299   0.754
   95c3c      N 1239   1.046   2.100   2.804
   95c3c     C1 1240   1.031   2.042   2.939
   95c3c     C2 1241   1.185   2.077   2.761
   95c3c     C3 1242   1.163   1.974   2.975
   95c3c     C4 1243   1.264   2.044   2.888
   95c3c     C5 1244   0.957   2.034   2.707
   95c3c     C6 1245   1.009   2.243   2.805
   95c3c     H1 1246   0.948   1.971   2.946
   95c3c     H2 1247   1.010   2.118   3.014
   95c3c     H3 1248   1.190   1.989   2.697
   95c3c     H4 1249   1.228   2.158   2.703
   95c3c     H5 1250   1.160   1.868   2.950
   95c3c     H6 1251   1.187   1.983   3.081
   95c3c     H7 1252   1.350   1.980   2.869
   95c3c     H8 1253   1.300   2.135   2.937
   95c3c     H9 1254   0.852   2.059   2.723
   95c3c    H10 1255   0.979   2.063   2.605
   95c3c    H11 1256   0.965   1.926   2.712
   95c3c    H12 1257   0.999   2.279   2.703
   95c3c    H13 1258   0.910   2.251   2.851
   95c3c     C7 1259   1.103   2.339   2.879
   95c3c    H14 1260   1.194   2.353   2.821
   95c3c    H15 1261   1.133   2.299   2.976
   95c3c     C8 1262   1.039   2.476   2.904
   95c3c    H16 1263   0.956   2.469   2.973
   95c3c    H17 1264   1.002   2.520   2.811
   95c3c    H18 1265   1.112   2.545   2.946
   96c3c      N 1266   0.318   1.817   1.847
   96c3c     C1 1267   0.207   1.797   1.753
   96c3c     C2 1268   0.418   1.717   1.806
   96c3c     C3 1269   0.203   1.648   1.716
   96c3c     C4 1270   0.341   1.596   1.752
   96c3c     C5 1271   0.372   1.952   1.827
   96c3c     C6 1272   0.279   1.808   1.989
   96c3c     H1 1273   0.226   1.851   1.661
   96c3c     H2 1274   0.112   1.834   1.791
   96c3c     H3 1275   0.479   1.755   1.724
   96c3c     H4 1276   0.489   1.692   1.886
   96c3c     H5 1277   0.183   1.635   1.610
   96c3c     H6 1278   0.126   1.593   1.770
   96c3c     H7 1279   0.389   1.557   1.662
   96c3c     H8 1280   0.336   1.516   1.825
   96c3c     H9 1281   0.298   2.029   1.847
   96c3c    H10 1282   0.455   1.971   1.895
   96c3c    H11 1283   0.411   1.969   1.726
   96c3c    H12 1284   0.365   1.835   2.051
   96c3c    H13 1285   0.205   1.885   2.010
   96c3c     C7 1286   0.227   1.673   2.043
   96c3c    H14 1287   0.308   1.601   2.046
   96c3c    H15 1288   0.149   1.632   1.980
   96c3c     C8 1289   0.167   1.689   2.183
   96c3c    H16 1290   0.070   1.738   2.180
   96c3c    H17 1291   0.232   1.750   2.246
   96c3c    H18 1292   0.155   1.592   2.231
   97c3c      N 1293   2.623   1.011   2.971
   97c3c     C1 1294   2.570   1.094   2.861
   97c3c     C2 1295   2.582   1.078   3.095
   97c3c     C3 1296   2.523   1.228   2.921
   97c3c     C4 1297   2.566   1.226   3.066
   97c3c     C5 1298   2.563   0.877   2.969
   97c3c     C6 1299   2.769   0.991   2.962
   97c3c     H1 1300   2.488   1.043   2.811
   97c3c     H2 1301   2.645   1.108   2.783
   97c3c     H3 1302   2.485   1.042   3.128
   97c3c     H4 1303   2.653   1.061   3.176
   97c3c     H5 1304   2.414   1.234   2.918
   97c3c     H6 1305   2.564   1.314   2.870
   97c3c     H7 1306   2.491   1.271   3.131
   97c3c     H8 1307   2.659   1.281   3.081
   97c3c     H9 1308   2.585   0.823   2.877
   97c3c    H10 1309   2.598   0.816   3.052
   97c3c    H11 1310   2.455   0.882   2.979
   97c3c    H12 1311   2.801   0.924   3.041
   97c3c    H13 1312   2.790   0.939   2.869
   97c3c     C7 1313   2.860   1.116   2.968
   97c3c    H14 1314   2.853   1.163   3.066
   97c3c    H15 1315   2.828   1.190   2.894
   97c3c     C8 1316   3.006   1.079   2.940
   97c3c    H16 1317   3.017   1.032   2.842
   97c3c    H17 1318   3.042   1.008   3.014
   97c3c    H18 1319   3.071   1.167   2.943
   98c3c      N 1320   1.503   1.379   1.003
   98c3c     C1 1321   1.512   1.233   1.021
   98c3c     C2 1322   1.368   1.414   1.044
   98c3c     C3 1323   1.372   1.176   0.998
   98c3c     C4 1324   1.279   1.297   1.005
   98c3c     C5 1325   1.600   1.444   1.091
   98c3c     C6 1326   1.533   1.425   0.867
   98c3c     H1 1327   1.540   1.209   1.123
   98c3c     H2 1328   1.589   1.188   0.957
   98c3c     H3 1329   1.361   1.428   1.152
   98c3c     H4 1330   1.333   1.506   0.996
   98c3c     H5 1331   1.349   1.101   1.075
   98c3c     H6 1332   1.364   1.125   0.902
   98c3c     H7 1333   1.199   1.288   1.078
   98c3c     H8 1334   1.230   1.312   0.909
   98c3c     H9 1335   1.703   1.418   1.066
   98c3c    H10 1336   1.598   1.553   1.086
   98c3c    H11 1337   1.584   1.420   1.196
   98c3c    H12 1338   1.530   1.534   0.863
   98c3c    H13 1339   1.635   1.397   0.843
   98c3c     C7 1340   1.444   1.376   0.752
   98c3c    H14 1341   1.344   1.419   0.760
   98c3c    H15 1342   1.436   1.267   0.753
   98c3c     C8 1343   1.502   1.417   0.618
   98c3c    H16 1344   1.610   1.405   0.617
   98c3c    H17 1345   1.480   1.521   0.594
   98c3c    H18 1346   1.463   1.354   0.538
   99c3c      N 1347   1.821   2.273   1.938
   99c3c     C1 1348   1.835   2.128   1.949
   99c3c     C2 1349   1.917   2.332   2.030
   99c3c     C3 1350   1.877   2.098   2.092
   99c3c     C4 1351   1.933   2.231   2.142
   99c3c     C5 1352   1.862   2.312   1.804
   99c3c     C6 1353   1.685   2.326   1.959
   99c3c     H1 1354   1.916   2.091   1.886
   99c3c     H2 1355   1.748   2.073   1.912
   99c3c     H3 1356   2.015   2.344   1.984
   99c3c     H4 1357   1.887   2.431   2.065
   99c3c     H5 1358   1.951   2.019   2.097
   99c3c     H6 1359   1.794   2.067   2.156
   99c3c     H7 1360   2.040   2.223   2.161
   99c3c     H8 1361   1.882   2.263   2.233
   99c3c     H9 1362   1.798   2.270   1.727
   99c3c    H10 1363   1.865   2.421   1.797
   99c3c    H11 1364   1.963   2.279   1.782
   99c3c    H12 1365   1.687   2.434   1.944
   99c3c    H13 1366   1.621   2.286   1.880
   99c3c     C7 1367   1.620   2.302   2.096
   99c3c    H14 1368   1.672   2.359   2.174
   99c3c    H15 1369   1.628   2.197   2.123
   99c3c     C8 1370   1.472   2.339   2.097
   99c3c    H16 1371   1.422   2.295   2.011
   99c3c    H17 1372   1.457   2.447   2.093
   99c3c    H18 1373   1.423   2.300   2.186
  100c3c      N 1374   0.727   0.295   0.611
  100c3c     C1 1375   0.836   0.390   0.637
  100c3c     C2 1376   0.788   0.162   0.624
  100c3c     C3 1377   0.966   0.323   0.590
  100c3c     C4 1378   0.934   0.175   0.578
  100c3c     C5 1379   0.624   0.311   0.715
  100c3c     C6 1380   0.658   0.318   0.482
  100c3c     H1 1381   0.847   0.405   0.744
  100c3c     H2 1382   0.820   0.488   0.592
  100c3c     H3 1383   0.791   0.131   0.728
  100c3c     H4 1384   0.735   0.083   0.571
  100c3c     H5 1385   1.047   0.340   0.661
  100c3c     H6 1386   1.000   0.362   0.494
  100c3c     H7 1387   1.000   0.115   0.641
  100c3c     H8 1388   0.947   0.141   0.476
  100c3c     H9 1389   0.578   0.410   0.713
  100c3c    H10 1390   0.544   0.238   0.703
  100c3c    H11 1391   0.664   0.297   0.815
  100c3c    H12 1392   0.577   0.245   0.472
  100c3c    H13 1393   0.610   0.415   0.483
  100c3c     C7 1394   0.741   0.309   0.352
  100c3c    H14 1395   0.783   0.210   0.340
  100c3c    H15 1396   0.824   0.380   0.354
  100c3c     C8 1397   0.656   0.340   0.228
  100c3c    H16 1398   0.615   0.441   0.232
  100c3c    H17 1399   0.573   0.270   0.219
  100c3c    H18 1400   0.716   0.332   0.137
  101fsi     F1 1401   1.625   2.375   1.574
  101fsi     S1 1402   1.658   2.526   1.601
  101fsi      N 1403   1.814   2.531   1.589
  101fsi     O1 1404   1.588   2.596   1.497
  101fsi     O2 1405   1.611   2.544   1.736
  101fsi     S2 1406   1.904   2.456   1.484
  101fsi     O3 1407   1.836   2.439   1.360
  101fsi     O4 1408   1.978   2.347   1.540
  101fsi     F2 1409   2.015   2.558   1.452
  102fsi     F1 1410   1.291   0.533   2.730
  102fsi     S1 1411   1.409   0.619   2.675
  102fsi      N 1412   1.413   0.738   2.778
  102fsi     O1 1413   1.518   0.527   2.673
  102fsi     O2 1414   1.354   0.660   2.549
  102fsi     S2 1415   1.489   0.752   2.916
  102fsi     O3 1416   1.491   0.631   2.992
  102fsi     O4 1417   1.456   0.872   2.987
  102fsi     F2 1418   1.639   0.775   2.874
  103fsi     F1 1419   1.152   1.106   1.222
  103fsi     S1 1420   1.019   1.084   1.142
  103fsi      N 1421   0.973   0.944   1.195
  103fsi     O1 1422   0.936   1.194   1.182
  103fsi     O2 1423   1.060   1.077   1.005
  103fsi     S2 1424   0.889   0.918   1.323
  103fsi     O3 1425   0.935   0.988   1.440
  103fsi     O4 1426   0.866   0.777   1.335
  103fsi     F2 1427   0.749   0.979   1.290
  104fsi     F1 1428   0.804   2.318   0.728
  104fsi     S1 1429   0.836   2.283   0.878
  104fsi      N 1430   0.694   2.248   0.936
  104fsi     O1 1431   0.924   2.171   0.868
  104fsi     O2 1432   0.888   2.408   0.926
  104fsi     S2 1433   0.591   2.137   0.895
  104fsi     O3 1434   0.625   2.070   0.774
  104fsi     O4 1435   0.454   2.179   0.897
  104fsi     F2 1436   0.600   2.031   1.009
  105fsi     F1 1437   0.447   2.332   2.760
  105fsi     S1 1438   0.572   2.332   2.855
  105fsi      N 1439   0.534   2.224   2.962
  105fsi     O1 1440   0.683   2.299   2.771
  105fsi     O2 1441   0.571   2.464   2.915
  105fsi     S2 1442   0.608   2.092   3.004
  105fsi     O3 1443   0.699   2.036   2.910
  105fsi     O4 1444   0.526   1.999   3.077
  105fsi     F2 1445   0.704   2.148   3.115
  106fsi     F1 1446   0.720   2.175   2.438
  106fsi     S1 1447   0.665   2.314   2.392
  106fsi      N 1448   0.599   2.287   2.251
  106fsi     O1 1449   0.575   2.349   2.496
  106fsi     O2 1450   0.786   2.392   2.382
  106fsi     S2 1451   0.467   2.208   2.214
  106fsi     O3 1452   0.448   2.086   2.287
  106fsi     O4 1453   0.447   2.198   2.072
  106fsi     F2 1454   0.349   2.300   2.261
  107fsi     F1 1455   1.505   2.768   1.243
  107fsi     S1 1456   1.427   2.867   1.150
  107fsi      N 1457   1.366   2.775   1.039
  107fsi     O1 1458   1.330   2.927   1.236
  107fsi     O2 1459   1.528   2.955   1.099
  107fsi     S2 1460   1.221   2.715   1.028
  107fsi     O3 1461   1.151   2.714   1.153
  107fsi     O4 1462   1.209   2.601   0.942
  107fsi     F2 1463   1.146   2.827   0.948
  108fsi     F1 1464   1.285   2.358   0.084
  108fsi     S1 1465   1.417   2.376   0.168
  108fsi      N 1466   1.441   2.532   0.164
  108fsi     O1 1467   1.384   2.324   0.298
  108fsi     O2 1468   1.516   2.308   0.091
  108fsi     S2 1469   1.363   2.645   0.240
  108fsi     O3 1470   1.221   2.631   0.242
  108fsi     O4 1471   1.415   2.772   0.196
  108fsi     F2 1472   1.411   2.634   0.390
  109fsi     F1 1473   2.153   0.533   1.916
  109fsi     S1 1474   2.108   0.622   2.038
  109fsi      N 1475   2.066   0.756   1.966
  109fsi     O1 1476   2.002   0.546   2.097
  109fsi     O2 1477   2.231   0.641   2.110
  109fsi     S2 1478   1.939   0.799   1.885
  109fsi     O3 1479   1.840   0.697   1.866
  109fsi     O4 1480   1.982   0.861   1.763
  109fsi     F2 1481   1.867   0.911   1.968
  110fsi     F1 1482   2.886   2.344   1.835
  110fsi     S1 1483   2.768   2.411   1.914
  110fsi      N 1484   2.795   2.564   1.893
  110fsi     O1 1485   2.650   2.363   1.848
  110fsi     O2 1486   2.793   2.365   2.048
  110fsi     S2 1487   2.768   2.651   1.765
  110fsi     O3 1488   2.736   2.578   1.645
  110fsi     O4 1489   2.862   2.759   1.755
  110fsi     F2 1490   2.633   2.723   1.799
  111fsi     F1 1491   1.015   3.105   0.940
  111fsi     S1 1492   0.865   3.098   0.987
  111fsi      N 1493   0.831   2.946   0.976
  111fsi     O1 1494   0.869   3.149   1.121
  111fsi     O2 1495   0.795   3.178   0.890
  111fsi     S2 1496   0.842   2.830   1.080
  111fsi     O3 1497   0.912   2.865   1.201
  111fsi     O4 1498   0.874   2.704   1.018
  111fsi     F2 1499   0.695   2.810   1.130
  112fsi     F1 1500   3.193   1.327   0.745
  112fsi     S1 1501   3.150   1.424   0.629
  112fsi      N 1502   2.994   1.417   0.633
  112fsi     O1 1503   3.203   1.552   0.669
  112fsi     O2 1504   3.209   1.364   0.513
  112fsi     S2 1505   2.902   1.461   0.752
  112fsi     O3 1506   2.958   1.441   0.883
  112fsi     O4 1507   2.765   1.426   0.730
  112fsi     F2 1508   2.903   1.618   0.736
  113fsi     F1 1509   2.787   3.221   2.525
  113fsi     S1 1510   2.759   3.085   2.453
  113fsi      N 1511   2.756   2.982   2.572
  113fsi     O1 1512   2.638   3.104   2.380
  113fsi     O2 1513   2.881   3.062   2.379
  113fsi     S2 1514   2.646   2.952   2.681
  113fsi     O3 1515   2.544   3.051   2.696
  113fsi     O4 1516   2.706   2.902   2.802
  113fsi     F2 1517   2.572   2.826   2.623
  114fsi     F1 1518   1.867   1.373   0.655
  114fsi     S1 1519   1.947   1.297   0.764
  114fsi      N 1520   2.065   1.395   0.799
  114fsi     O1 1521   1.852   1.273   0.869
  114fsi     O2 1522   1.994   1.179   0.699
  114fsi     S2 1523   2.110   1.465   0.933
  114fsi     O3 1524   2.094   1.606   0.938
  114fsi     O4 1525   2.242   1.419   0.967
  114fsi     F2 1526   2.015   1.410   1.044
  115fsi     F1 1527   1.624   2.326   1.069
  115fsi     S1 1528   1.635   2.477   1.028
  115fsi      N 1529   1.768   2.483   0.946
  115fsi     O1 1530   1.514   2.502   0.956
  115fsi     O2 1531   1.651   2.547   1.152
  115fsi     S2 1532   1.792   2.485   0.793
  115fsi     O3 1533   1.676   2.470   0.711
  115fsi     O4 1534   1.910   2.413   0.756
  115fsi     F2 1535   1.834   2.634   0.769
  116fsi     F1 1536   0.769   1.341   1.662
  116fsi     S1 1537   0.625   1.404   1.653
  116fsi      N 1538   0.595   1.406   1.500
  116fsi     O1 1539   0.542   1.309   1.722
  116fsi     O2 1540   0.643   1.532   1.715
  116fsi     S2 1541   0.581   1.280   1.407
  116fsi     O3 1542   0.616   1.157   1.473
  116fsi     O4 1543   0.630   1.300   1.274
  116fsi     F2 1544   0.425   1.268   1.389
  117fsi     F1 1545   2.373   0.392   2.292
  117fsi     S1 1546   2.412   0.295   2.175
  117fsi      N 1547   2.334   0.163   2.210
  117fsi     O1 1548   2.366   0.364   2.058
  117fsi     O2 1549   2.554   0.282   2.194
  117fsi     S2 1550   2.197   0.108   2.156
  117fsi     O3 1551   2.101   0.207   2.115
  117fsi     O4 1552   2.146  -0.001   2.236
  117fsi     F2 1553   2.238   0.037   2.022
  118fsi     F1 1554   1.560   2.803   1.887
  118fsi     S1 1555   1.712   2.839   1.871
  118fsi      N 1556   1.717   2.990   1.916
  118fsi     O1 1557   1.775   2.747   1.961
  118fsi     O2 1558   1.739   2.824   1.731
  118fsi     S2 1559   1.806   3.063   2.024
  118fsi     O3 1560   1.891   2.976   2.100
  118fsi     O4 1561   1.732   3.164   2.095
  118fsi     F2 1562   1.907   3.145   1.937
  119fsi     F1 1563   2.352   2.878   0.347
  119fsi     S1 1564   2.217   2.797   0.339
  119fsi      N 1565   2.233   2.696   0.459
  119fsi     O1 1566   2.117   2.900   0.353
  119fsi     O2 1567   2.227   2.733   0.210
  119fsi     S2 1568   2.155   2.686   0.596
  119fsi     O3 1569   2.077   2.801   0.631
  119fsi     O4 1570   2.236   2.630   0.700
  119fsi     F2 1571   2.051   2.574   0.566
  120fsi     F1 1572   2.766   2.393   2.990
  120fsi     S1 1573   2.783   2.537   2.926
  120fsi      N 1574   2.664   2.547   2.824
  120fsi     O1 1575   2.769   2.629   3.036
  120fsi     O2 1576   2.911   2.531   2.861
  120fsi     S2 1577   2.511   2.560   2.855
  120fsi     O3 1578   2.468   2.491   2.973
  120fsi     O4 1579   2.431   2.545   2.736
  120fsi     F2 1580   2.494   2.712   2.892
  121fsi     F1 1581   2.304   0.438   0.878
  121fsi     S1 1582   2.263   0.355   0.751
  121fsi      N 1583   2.107   0.373   0.746
  121fsi     O1 1584   2.335   0.417   0.644
  121fsi     O2 1585   2.303   0.222   0.789
  121fsi     S2 1586   2.022   0.477   0.664
  121fsi     O3 1587   2.068   0.613   0.670
  121fsi     O4 1588   1.881   0.457   0.677
  121fsi     F2 1589   2.049   0.435   0.515
  122fsi     F1 1590   2.363   0.643   3.066
  122fsi     S1 1591   2.265   0.617   2.946
  122fsi      N 1592   2.125   0.600   3.014
  122fsi     O1 1593   2.280   0.732   2.861
  122fsi     O2 1594   2.312   0.493   2.891
  122fsi     S2 1595   2.019   0.709   3.052
  122fsi     O3 1596   2.072   0.842   3.065
  122fsi     O4 1597   1.924   0.662   3.149
  122fsi     F2 1598   1.931   0.716   2.923
  123fsi     F1 1599   1.341   0.402   0.558
  123fsi     S1 1600   1.481   0.369   0.623
  123fsi      N 1601   1.546   0.512   0.635
  123fsi     O1 1602   1.445   0.305   0.747
  123fsi     O2 1603   1.544   0.288   0.523
  123fsi     S2 1604   1.538   0.619   0.750
  123fsi     O3 1605   1.454   0.581   0.860
  123fsi     O4 1606   1.519   0.752   0.700
  123fsi     F2 1607   1.683   0.621   0.812
  124fsi     F1 1608   2.791   0.478   2.910
  124fsi     S1 1609   2.882   0.604   2.931
  124fsi      N 1610   3.027   0.547   2.913
  124fsi     O1 1611   2.842   0.694   2.826
  124fsi     O2 1612   2.856   0.645   3.066
  124fsi     S2 1613   3.131   0.572   2.797
  124fsi     O3 1614   3.077   0.623   2.674
  124fsi     O4 1615   3.228   0.466   2.788
  124fsi     F2 1616   3.215   0.692   2.854
  125fsi     F1 1617   2.618   1.845   0.419
  125fsi     S1 1618   2.694   1.792   0.546
  125fsi      N 1619   2.620   1.866   0.664
  125fsi     O1 1620   2.676   1.649   0.540
  125fsi     O2 1621   2.826   1.846   0.531
  125fsi     S2 1622   2.614   1.831   0.817
  125fsi     O3 1623   2.483   1.838   0.873
  125fsi     O4 1624   2.720   1.901   0.884
  125fsi     F2 1625   2.651   1.680   0.826
  126fsi     F1 1626   2.852   0.859   1.046
  126fsi     S1 1627   2.925   0.811   0.915
  126fsi      N 1628   2.878   0.919   0.811
  126fsi     O1 1629   3.064   0.816   0.950
  126fsi     O2 1630   2.868   0.683   0.889
  126fsi     S2 1631   2.958   1.039   0.750
  126fsi     O3 1632   3.052   1.100   0.840
  126fsi     O4 1633   2.874   1.126   0.673
  126fsi     F2 1634   3.048   0.969   0.641
  127fsi     F1 1635   2.277   1.226   2.003
  127fsi     S1 1636   2.208   1.091   1.964
  127fsi      N 1637   2.057   1.120   1.986
  127fsi     O1 1638   2.248   1.070   1.827
  127fsi     O2 1639   2.260   0.999   2.062
  127fsi     S2 1640   1.989   1.260   1.997
  127fsi     O3 1641   2.042   1.358   1.906
  127fsi     O4 1642   1.970   1.299   2.134
  127fsi     F2 1643   1.844   1.232   1.942
  128fsi     F1 1644   1.063   0.348   1.442
  128fsi     S1 1645   1.148   0.238   1.516
  128fsi      N 1646   1.226   0.323   1.623
  128fsi     O1 1647   1.050   0.149   1.573
  128fsi     O2 1648   1.232   0.185   1.413
  128fsi     S2 1649   1.170   0.377   1.758
  128fsi     O3 1650   1.041   0.440   1.747
  128fsi     O4 1651   1.269   0.446   1.836
  128fsi     F2 1652   1.145   0.246   1.841
  129fsi     F1 1653   0.788   0.867   0.322
  129fsi     S1 1654   0.677   0.976   0.303
  129fsi      N 1655   0.546   0.890   0.284
  129fsi     O1 1656   0.685   1.052   0.426
  129fsi     O2 1657   0.718   1.046   0.184
  129fsi     S2 1658   0.434   0.851   0.386
  129fsi     O3 1659   0.479   0.842   0.523
  129fsi     O4 1660   0.347   0.746   0.340
  129fsi     F2 1661   0.341   0.978   0.385
  130fsi     F1 1662   0.897   2.701   0.375
  130fsi     S1 1663   0.760   2.661   0.442
  130fsi      N 1664   0.685   2.799   0.456
  130fsi     O1 1665   0.699   2.572   0.347
  130fsi     O2 1666   0.799   2.606   0.569
  130fsi     S2 1667   0.606   2.879   0.347
  130fsi     O3 1668   0.649   2.860   0.211
  130fsi     O4 1669   0.577   3.015   0.388
  130fsi     F2 1670   0.464   2.811   0.351
  131fsi     F1 1671   3.170   2.619   1.599
  131fsi     S1 1672   3.109   2.511   1.502
  131fsi      N 1673   3.014   2.596   1.410
  131fsi     O1 1674   3.224   2.456   1.436
  131fsi     O2 1675   3.039   2.422   1.590
  131fsi     S2 1676   3.028   2.636   1.258
  131fsi     O3 1677   3.097   2.539   1.177
  131fsi     O4 1678   3.058   2.774   1.236
  131fsi     F2 1679   2.880   2.622   1.207
  132fsi     F1 1680   1.088   1.573   2.556
  132fsi     S1 1681   1.159   1.713   2.566
  132fsi      N 1682   1.293   1.686   2.492
  132fsi     O1 1683   1.070   1.804   2.499
  132fsi     O2 1684   1.175   1.733   2.708
  132fsi     S2 1685   1.308   1.619   2.350
  132fsi     O3 1686   1.192   1.636   2.267
  132fsi     O4 1687   1.368   1.490   2.354
  132fsi     F2 1688   1.416   1.707   2.282
  133fsi     F1 1689   1.588   2.775   2.425
  133fsi     S1 1690   1.724   2.821   2.488
  133fsi      N 1691   1.809   2.690   2.482
  133fsi     O1 1692   1.767   2.928   2.403
  133fsi     O2 1693   1.687   2.857   2.622
  133fsi     S2 1694   1.901   2.634   2.368
  133fsi     O3 1695   1.955   2.730   2.275
  133fsi     O4 1696   1.853   2.510   2.315
  133fsi     F2 1697   2.030   2.595   2.449
  134fsi     F1 1698   2.156   2.644   1.659
  134fsi     S1 1699   2.246   2.757   1.600
  134fsi      N 1700   2.147   2.876   1.580
  134fsi     O1 1701   2.346   2.778   1.701
  134fsi     O2 1702   2.293   2.704   1.475
  134fsi     S2 1703   2.083   2.970   1.689
  134fsi     O3 1704   2.062   2.905   1.815
  134fsi     O4 1705   1.975   3.049   1.638
  134fsi     F2 1706   2.196   3.075   1.719
  135fsi     F1 1707   1.857   0.632   1.432
  135fsi     S1 1708   1.851   0.479   1.456
  135fsi      N 1709   1.996   0.431   1.422
  135fsi     O1 1710   1.822   0.470   1.595
  135fsi     O2 1711   1.752   0.436   1.361
  135fsi     S2 1712   2.125   0.462   1.505
  135fsi     O3 1713   2.118   0.591   1.570
  135fsi     O4 1714   2.244   0.433   1.432
  135fsi     F2 1715   2.122   0.357   1.622
  136fsi     F1 1716   1.143   1.605   1.101
  136fsi     S1 1717   1.029   1.635   0.998
  136fsi      N 1718   0.944   1.744   1.072
  136fsi     O1 1719   1.098   1.680   0.880
  136fsi     O2 1720   0.961   1.509   0.985
  136fsi     S2 1721   0.986   1.890   1.113
  136fsi     O3 1722   1.061   1.956   1.010
  136fsi     O4 1723   1.034   1.901   1.248
  136fsi     F2 1724   0.850   1.968   1.114
  137fsi     F1 1725   3.017   2.763   2.405
  137fsi     S1 1726   3.002   2.695   2.545
  137fsi      N 1727   2.866   2.617   2.528
  137fsi     O1 1728   3.118   2.611   2.553
  137fsi     O2 1729   2.994   2.808   2.634
  137fsi     S2 1730   2.845   2.469   2.479
  137fsi     O3 1731   2.956   2.413   2.407
  137fsi     O4 1732   2.713   2.454   2.423
  137fsi     F2 1733   2.838   2.385   2.611
  138fsi     F1 1734   0.817   2.801   2.755
  138fsi     S1 1735   0.779   2.745   2.613
  138fsi      N 1736   0.656   2.833   2.569
  138fsi     O1 1737   0.893   2.768   2.529
  138fsi     O2 1738   0.747   2.607   2.636
  138fsi     S2 1739   0.651   2.987   2.537
  138fsi     O3 1740   0.755   3.063   2.602
  138fsi     O4 1741   0.519   3.042   2.540
  138fsi     F2 1742   0.691   2.991   2.384
  139fsi     F1 1743   0.464   2.579   2.153
  139fsi     S1 1744   0.482   2.640   2.297
  139fsi      N 1745   0.419   2.782   2.285
  139fsi     O1 1746   0.407   2.553   2.382
  139fsi     O2 1747   0.625   2.647   2.311
  139fsi     S2 1748   0.266   2.817   2.290
  139fsi     O3 1749   0.180   2.716   2.232
  139fsi     O4 1750   0.241   2.953   2.253
  139fsi     F2 1751   0.232   2.812   2.443
  140fsi     F1 1752   1.631   2.673   2.847
  140fsi     S1 1753   1.519   2.698   2.954
  140fsi      N 1754   1.428   2.573   2.936
  140fsi     O1 1755   1.589   2.704   3.079
  140fsi     O2 1756   1.458   2.820   2.908
  140fsi     S2 1757   1.469   2.423   2.962
  140fsi     O3 1758   1.593   2.409   3.032
  140fsi     O4 1759   1.446   2.341   2.846
  140fsi     F2 1760   1.360   2.376   3.064
  141fsi     F1 1761   2.017   0.541   0.158
  141fsi     S1 1762   2.143   0.631   0.182
  141fsi      N 1763   2.096   0.772   0.130
  141fsi     O1 1764   2.162   0.625   0.324
  141fsi     O2 1765   2.243   0.569   0.100
  141fsi     S2 1766   2.013   0.883   0.203
  141fsi     O3 1767   1.963   0.844   0.332
  141fsi     O4 1768   1.921   0.951   0.115
  141fsi     F2 1769   2.122   0.991   0.236
  142fsi     F1 1770   2.148   0.519   2.371
  142fsi     S1 1771   2.068   0.428   2.470
  142fsi      N 1772   2.144   0.290   2.461
  142fsi     O1 1773   2.085   0.496   2.596
  142fsi     O2 1774   1.937   0.423   2.413
  142fsi     S2 1775   2.224   0.207   2.567
  142fsi     O3 1776   2.218   0.260   2.701
  142fsi     O4 1777   2.353   0.163   2.523
  142fsi     F2 1778   2.140   0.074   2.578
  143fsi     F1 1779   0.700   0.542   1.467
  143fsi     S1 1780   0.562   0.554   1.392
  143fsi      N 1781   0.504   0.688   1.449
  143fsi     O1 1782   0.598   0.551   1.253
  143fsi     O2 1783   0.484   0.446   1.445
  143fsi     S2 1784   0.453   0.811   1.368
  143fsi     O3 1785   0.519   0.831   1.243
  143fsi     O4 1786   0.430   0.925   1.452
  143fsi     F2 1787   0.307   0.769   1.329
  144fsi     F1 1788   1.141   2.000   0.402
  144fsi     S1 1789   1.129   1.862   0.331
  144fsi      N 1790   0.981   1.854   0.278
  144fsi     O1 1791   1.224   1.866   0.225
  144fsi     O2 1792   1.147   1.768   0.438
  144fsi     S2 1793   0.931   1.863   0.130
  144fsi     O3 1794   0.957   1.985   0.060
  144fsi     O4 1795   0.795   1.817   0.119
  144fsi     F2 1796   1.013   1.754   0.053
  145fsi     F1 1797   1.277   0.931   2.593
  145fsi     S1 1798   1.266   1.045   2.699
  145fsi      N 1799   1.413   1.098   2.699
  145fsi     O1 1800   1.165   1.134   2.647
  145fsi     O2 1801   1.223   0.975   2.816
  145fsi     S2 1802   1.479   1.172   2.578
  145fsi     O3 1803   1.411   1.295   2.551
  145fsi     O4 1804   1.512   1.088   2.467
  145fsi     F2 1805   1.617   1.217   2.636
  146fsi     F1 1806   2.160   1.785   3.177
  146fsi     S1 1807   2.159   1.700   3.044
  146fsi      N 1808   2.013   1.724   2.990
  146fsi     O1 1809   2.265   1.760   2.967
  146fsi     O2 1810   2.181   1.565   3.086
  146fsi     S2 1811   1.970   1.790   2.855
  146fsi     O3 1812   2.034   1.915   2.826
  146fsi     O4 1813   1.828   1.782   2.832
  146fsi     F2 1814   2.031   1.688   2.752
  147fsi     F1 1815   2.770   2.981   1.261
  147fsi     S1 1816   2.790   3.052   1.401
  147fsi      N 1817   2.643   3.086   1.443
  147fsi     O1 1818   2.854   2.952   1.482
  147fsi     O2 1819   2.866   3.169   1.368
  147fsi     S2 1820   2.535   2.990   1.504
  147fsi     O3 1821   2.561   2.850   1.486
  147fsi     O4 1822   2.401   3.035   1.475
  147fsi     F2 1823   2.549   3.012   1.659
  148fsi     F1 1824   1.112   0.822   2.285
  148fsi     S1 1825   1.041   0.934   2.370
  148fsi      N 1826   0.902   0.954   2.301
  148fsi     O1 1827   1.031   0.875   2.501
  148fsi     O2 1828   1.125   1.048   2.357
  148fsi     S2 1829   0.762   0.923   2.364
  148fsi     O3 1830   0.754   0.803   2.441
  148fsi     O4 1831   0.653   0.948   2.275
  148fsi     F2 1832   0.748   1.040   2.469
  149fsi     F1 1833   1.187   2.519   2.263
  149fsi     S1 1834   1.228   2.497   2.413
  149fsi      N 1835   1.269   2.642   2.457
  149fsi     O1 1836   1.106   2.449   2.473
  149fsi     O2 1837   1.340   2.407   2.404
  149fsi     S2 1838   1.301   2.687   2.604
  149fsi     O3 1839   1.194   2.660   2.696
  149fsi     O4 1840   1.361   2.818   2.610
  149fsi     F2 1841   1.418   2.591   2.645
  150fsi     F1 1842   1.021   1.429   2.047
  150fsi     S1 1843   1.099   1.335   2.145
  150fsi      N 1844   1.054   1.193   2.096
  150fsi     O1 1845   1.236   1.364   2.115
  150fsi     O2 1846   1.045   1.369   2.273
  150fsi     S2 1847   1.137   1.086   2.017
  150fsi     O3 1848   1.172   1.124   1.883
  150fsi     O4 1849   1.076   0.956   2.025
  150fsi     F2 1850   1.272   1.069   2.094
  151fsi     F1 1851   2.795   1.368   2.646
  151fsi     S1 1852   2.668   1.369   2.553
  151fsi      N 1853   2.564   1.453   2.634
  151fsi     O1 1854   2.715   1.430   2.432
  151fsi     O2 1855   2.627   1.232   2.551
  151fsi     S2 1856   2.499   1.590   2.596
  151fsi     O3 1857   2.584   1.676   2.518
  151fsi     O4 1858   2.431   1.646   2.708
  151fsi     F2 1859   2.384   1.546   2.499
  152fsi     F1 1860   1.760   0.903   2.388
  152fsi     S1 1861   1.694   0.777   2.455
  152fsi      N 1862   1.596   0.722   2.344
  152fsi     O1 1863   1.804   0.689   2.483
  152fsi     O2 1864   1.625   0.831   2.568
  152fsi     S2 1865   1.639   0.664   2.205
  152fsi     O3 1866   1.759   0.721   2.152
  152fsi     O4 1867   1.528   0.646   2.115
  152fsi     F2 1868   1.681   0.517   2.241
  153fsi     F1 1869   1.407   1.485   1.944
  153fsi     S1 1870   1.531   1.524   1.858
  153fsi      N 1871   1.620   1.603   1.961
  153fsi     O1 1872   1.585   1.398   1.815
  153fsi     O2 1873   1.472   1.609   1.758
  153fsi     S2 1874   1.701   1.549   2.083
  153fsi     O3 1875   1.674   1.413   2.118
  153fsi     O4 1876   1.708   1.645   2.190
  153fsi     F2 1877   1.847   1.549   2.027
  154fsi     F1 1878   0.246   1.670   2.491
  154fsi     S1 1879   0.403   1.678   2.484
  154fsi      N 1880   0.430   1.832   2.493
  154fsi     O1 1881   0.446   1.603   2.598
  154fsi     O2 1882   0.434   1.624   2.354
  154fsi     S2 1883   0.457   1.922   2.620
  154fsi     O3 1884   0.421   1.862   2.745
  154fsi     O4 1885   0.418   2.058   2.599
  154fsi     F2 1886   0.614   1.929   2.624
  155fsi     F1 1887   0.683   2.504   1.155
  155fsi     S1 1888   0.528   2.505   1.130
  155fsi      N 1889   0.513   2.602   1.008
  155fsi     O1 1890   0.494   2.368   1.105
  155fsi     O2 1891   0.473   2.560   1.250
  155fsi     S2 1892   0.506   2.583   0.852
  155fsi     O3 1893   0.558   2.461   0.800
  155fsi     O4 1894   0.541   2.704   0.782
  155fsi     F2 1895   0.352   2.569   0.825
  156fsi     F1 1896   2.837   1.676   1.047
  156fsi     S1 1897   2.726   1.617   1.142
  156fsi      N 1898   2.812   1.563   1.262
  156fsi     O1 1899   2.644   1.731   1.174
  156fsi     O2 1900   2.666   1.511   1.066
  156fsi     S2 1901   2.838   1.638   1.396
  156fsi     O3 1902   2.858   1.779   1.381
  156fsi     O4 1903   2.931   1.572   1.483
  156fsi     F2 1904   2.701   1.619   1.470
  157fsi     F1 1905   1.046   3.098   0.647
  157fsi     S1 1906   0.986   2.976   0.569
  157fsi      N 1907   0.907   3.050   0.455
  157fsi     O1 1908   1.101   2.903   0.525
  157fsi     O2 1909   0.902   2.914   0.668
  157fsi     S2 1910   0.964   3.118   0.326
  157fsi     O3 1911   1.100   3.163   0.338
  157fsi     O4 1912   0.871   3.212   0.269
  157fsi     F2 1913   0.969   3.002   0.221
  158fsi     F1 1914   0.501   0.619   1.963
  158fsi     S1 1915   0.520   0.601   2.117
  158fsi      N 1916   0.671   0.562   2.129
  158fsi     O1 1917   0.483   0.729   2.171
  158fsi     O2 1918   0.433   0.491   2.147
  158fsi     S2 1919   0.799   0.643   2.087
  158fsi     O3 1920   0.772   0.778   2.046
  158fsi     O4 1921   0.887   0.565   2.004
  158fsi     F2 1922   0.878   0.658   2.221
  159fsi     F1 1923   2.666   0.197   1.212
  159fsi     S1 1924   2.680   0.325   1.123
  159fsi      N 1925   2.779   0.417   1.204
  159fsi     O1 1926   2.730   0.272   0.999
  159fsi     O2 1927   2.547   0.378   1.115
  159fsi     S2 1928   2.928   0.461   1.176
  159fsi     O3 1929   2.977   0.436   1.043
  159fsi     O4 1930   3.019   0.435   1.283
  159fsi     F2 1931   2.915   0.618   1.181
  160fsi     F1 1932   2.007   1.937   0.778
  160fsi     S1 1933   1.866   1.911   0.843
  160fsi      N 1934   1.788   1.831   0.734
  160fsi     O1 1935   1.894   1.831   0.959
  160fsi     O2 1936   1.813   2.043   0.863
  160fsi     S2 1937   1.813   1.681   0.698
  160fsi     O3 1938   1.951   1.644   0.695
  160fsi     O4 1939   1.730   1.629   0.594
  160fsi     F2 1940   1.759   1.607   0.826
  161fsi     F1 1941   1.269   0.408   1.228
  161fsi     S1 1942   1.177   0.459   1.111
  161fsi      N 1943   1.180   0.615   1.126
  161fsi     O1 1944   1.237   0.410   0.990
  161fsi     O2 1945   1.046   0.409   1.144
  161fsi     S2 1946   1.301   0.712   1.142
  161fsi     O3 1947   1.427   0.650   1.172
  161fsi     O4 1948   1.257   0.822   1.224
  161fsi     F2 1949   1.319   0.778   1.002
  162fsi     F1 1950   1.394   1.946   0.486
  162fsi     S1 1951   1.489   1.824   0.509
  162fsi      N 1952   1.453   1.726   0.392
  162fsi     O1 1953   1.619   1.882   0.496
  162fsi     O2 1954   1.447   1.775   0.638
  162fsi     S2 1955   1.512   1.729   0.246
  162fsi     O3 1956   1.532   1.859   0.189
  162fsi     O4 1957   1.443   1.634   0.162
  162fsi     F2 1958   1.656   1.669   0.260
  163fsi     F1 1959   0.687   2.167   0.224
  163fsi     S1 1960   0.544   2.218   0.185
  163fsi      N 1961   0.460   2.200   0.316
  163fsi     O1 1962   0.563   2.352   0.138
  163fsi     O2 1963   0.506   2.121   0.087
  163fsi     S2 1964   0.466   2.285   0.447
  163fsi     O3 1965   0.598   2.301   0.501
  163fsi     O4 1966   0.367   2.243   0.543
  163fsi     F2 1967   0.420   2.429   0.405
  164fsi     F1 1968   0.332   1.463   2.831
  164fsi     S1 1969   0.346   1.313   2.785
  164fsi      N 1970   0.218   1.296   2.693
  164fsi     O1 1971   0.473   1.309   2.718
  164fsi     O2 1972   0.334   1.242   2.909
  164fsi     S2 1973   0.202   1.304   2.537
  164fsi     O3 1974   0.317   1.339   2.460
  164fsi     O4 1975   0.076   1.365   2.502
  164fsi     F2 1976   0.177   1.153   2.499
  165fsi     F1 1977   1.756   1.650   1.716
  165fsi     S1 1978   1.880   1.735   1.684
  165fsi      N 1979   1.900   1.710   1.531
  165fsi     O1 1980   1.845   1.870   1.719
  165fsi     O2 1981   1.982   1.676   1.765
  165fsi     S2 1982   1.797   1.734   1.414
  165fsi     O3 1983   1.660   1.702   1.445
  165fsi     O4 1984   1.847   1.686   1.289
  165fsi     F2 1985   1.797   1.890   1.400
  166fsi     F1 1986   2.795   0.825   1.695
  166fsi     S1 1987   2.726   0.907   1.810
  166fsi      N 1988   2.662   0.793   1.897
  166fsi     O1 1989   2.838   0.975   1.870
  166fsi     O2 1990   2.630   0.987   1.739
  166fsi     S2 1991   2.633   0.789   2.051
  166fsi     O3 1992   2.731   0.857   2.132
  166fsi     O4 1993   2.586   0.662   2.099
  166fsi     F2 1994   2.508   0.877   2.064
  167fsi     F1 1995   0.883   0.648   2.935
  167fsi     S1 1996   1.010   0.602   2.854
  167fsi      N 1997   1.121   0.594   2.964
  167fsi     O1 1998   0.972   0.475   2.798
  167fsi     O2 1999   1.032   0.710   2.762
  167fsi     S2 2000   1.165   0.472   3.053
  167fsi     O3 2001   1.071   0.363   3.060
  167fsi     O4 2002   1.224   0.515   3.177
  167fsi     F2 2003   1.287   0.410   2.975
  168fsi     F1 2004   1.098   2.872   1.440
  168fsi     S1 2005   1.109   3.024   1.476
  168fsi      N 2006   1.251   3.042   1.542
  168fsi     O1 2007   1.099   3.086   1.347
  168fsi     O2 2008   1.001   3.044   1.568
  168fsi     S2 2009   1.351   2.937   1.603
  168fsi     O3 2010   1.333   2.802   1.560
  168fsi     O4 2011   1.370   2.960   1.744
  168fsi     F2 2012   1.489   2.978   1.539
  169fsi     F1 2013   2.475   1.194   1.150
  169fsi     S1 2014   2.497   1.119   1.013
  169fsi      N 2015   2.364   1.035   0.996
  169fsi     O1 2016   2.519   1.224   0.918
  169fsi     O2 2017   2.608   1.035   1.045
  169fsi     S2 2018   2.228   1.075   0.929
  169fsi     O3 2019   2.140   1.145   1.017
  169fsi     O4 2020   2.166   0.970   0.854
  169fsi     F2 2021   2.265   1.178   0.818
  170fsi     F1 2022   2.460   1.082   0.123
  170fsi     S1 2023   2.504   0.936   0.157
  170fsi      N 2024   2.660   0.938   0.137
  170fsi     O1 2025   2.462   0.916   0.293
  170fsi     O2 2026   2.440   0.857   0.056
  170fsi     S2 2027   2.768   1.033   0.201
  170fsi     O3 2028   2.720   1.125   0.300
  170fsi     O4 2029   2.860   1.083   0.103
  170fsi     F2 2030   2.857   0.932   0.284
  171fsi     F1 2031   1.981   0.651   0.990
  171fsi     S1 2032   2.090   0.700   1.091
  171fsi      N 2033   2.060   0.852   1.104
  171fsi     O1 2034   2.063   0.631   1.214
  171fsi     O2 2035   2.214   0.672   1.025
  171fsi     S2 2036   1.931   0.922   1.157
  171fsi     O3 2037   1.862   0.845   1.257
  171fsi     O4 2038   1.854   0.984   1.053
  171fsi     F2 2039   1.992   1.039   1.240
  172fsi     F1 2040   2.381   2.231   1.366
  172fsi     S1 2041   2.340   2.378   1.403
  172fsi      N 2042   2.465   2.462   1.357
  172fsi     O1 2043   2.221   2.402   1.327
  172fsi     O2 2044   2.332   2.379   1.546
  172fsi     S2 2045   2.491   2.525   1.217
  172fsi     O3 2046   2.505   2.431   1.110
  172fsi     O4 2047   2.589   2.629   1.228
  172fsi     F2 2048   2.360   2.605   1.187
  173fsi     F1 2049   0.645   0.793   2.860
  173fsi     S1 2050   0.651   0.925   2.774
  173fsi      N 2051   0.565   0.884   2.648
  173fsi     O1 2052   0.591   1.023   2.859
  173fsi     O2 2053   0.791   0.940   2.744
  173fsi     S2 2054   0.424   0.932   2.601
  173fsi     O3 2055   0.327   0.958   2.703
  173fsi     O4 2056   0.378   0.857   2.487
  173fsi     F2 2057   0.455   1.072   2.537
  174fsi     F1 2058   0.668   3.112   1.345
  174fsi     S1 2059   0.636   3.033   1.477
  174fsi      N 2060   0.479   3.019   1.472
  174fsi     O1 2061   0.709   2.910   1.466
  174fsi     O2 2062   0.675   3.124   1.582
  174fsi     S2 2063   0.392   2.908   1.403
  174fsi     O3 2064   0.456   2.852   1.289
  174fsi     O4 2065   0.255   2.948   1.392
  174fsi     F2 2066   0.388   2.789   1.505
  175fsi     F1 2067   2.460   1.351   0.395
  175fsi     S1 2068   2.315   1.298   0.423
  175fsi      N 2069   2.225   1.392   0.336
  175fsi     O1 2070   2.318   1.162   0.380
  175fsi     O2 2071   2.301   1.322   0.564
  175fsi     S2 2072   2.206   1.389   0.179
  175fsi     O3 2073   2.326   1.353   0.107
  175fsi     O4 2074   2.133   1.501   0.130
  175fsi     F2 2075   2.109   1.268   0.156
  176fsi     F1 2076   2.062   2.200   0.890
  176fsi     S1 2077   2.133   2.207   1.029
  176fsi      N 2078   2.013   2.236   1.128
  176fsi     O1 2079   2.196   2.078   1.042
  176fsi     O2 2080   2.222   2.318   1.012
  176fsi     S2 2081   1.928   2.135   1.214
  176fsi     O3 2082   1.943   1.998   1.179
  176fsi     O4 2083   1.794   2.178   1.241
  176fsi     F2 2084   1.999   2.142   1.354
  177fsi     F1 2085   2.275   2.098   1.580
  177fsi     S1 2086   2.191   2.004   1.671
  177fsi      N 2087   2.274   1.993   1.804
  177fsi     O1 2088   2.065   2.068   1.687
  177fsi     O2 2089   2.194   1.877   1.604
  177fsi     S2 2090   2.296   2.103   1.913
  177fsi     O3 2091   2.338   2.229   1.859
  177fsi     O4 2092   2.366   2.052   2.027
  177fsi     F2 2093   2.152   2.128   1.967
  178fsi     F1 2094   1.669   1.883   2.048
  178fsi     S1 2095   1.519   1.926   2.060
  178fsi      N 2096   1.502   2.038   1.952
  178fsi     O1 2097   1.440   1.812   2.027
  178fsi     O2 2098   1.505   1.983   2.191
  178fsi     S2 2099   1.476   2.022   1.799
  178fsi     O3 2100   1.566   1.938   1.727
  178fsi     O4 2101   1.443   2.151   1.747
  178fsi     F2 2102   1.337   1.948   1.793
  179fsi     F1 2103   0.475   0.913   1.939
  179fsi     S1 2104   0.493   0.916   1.784
  179fsi      N 2105   0.648   0.936   1.764
  179fsi     O1 2106   0.442   0.790   1.737
  179fsi     O2 2107   0.418   1.031   1.743
  179fsi     S2 2108   0.756   0.828   1.729
  179fsi     O3 2109   0.720   0.692   1.760
  179fsi     O4 2110   0.891   0.872   1.752
  179fsi     F2 2111   0.744   0.828   1.575
  180fsi     F1 2112   0.712   0.515   2.439
  180fsi     S1 2113   0.840   0.426   2.450
  180fsi      N 2114   0.803   0.328   2.568
  180fsi     O1 2115   0.848   0.362   2.322
  180fsi     O2 2116   0.943   0.519   2.484
  180fsi     S2 2117   0.751   0.180   2.561
  180fsi     O3 2118   0.672   0.146   2.446
  180fsi     O4 2119   0.704   0.132   2.688
  180fsi     F2 2120   0.883   0.096   2.541
  181fsi     F1 2121   1.284   2.420   0.556
  181fsi     S1 2122   1.131   2.384   0.568
  181fsi      N 2123   1.070   2.430   0.430
  181fsi     O1 2124   1.129   2.242   0.590
  181fsi     O2 2125   1.084   2.468   0.675
  181fsi     S2 2126   1.006   2.345   0.314
  181fsi     O3 2127   1.079   2.229   0.272
  181fsi     O4 2128   0.949   2.424   0.208
  181fsi     F2 2129   0.879   2.284   0.385
  182fsi     F1 2130   2.357   1.824   0.564
  182fsi     S1 2131   2.325   1.678   0.523
  182fsi      N 2132   2.170   1.684   0.511
  182fsi     O1 2133   2.397   1.658   0.401
  182fsi     O2 2134   2.371   1.603   0.637
  182fsi     S2 2135   2.084   1.766   0.407
  182fsi     O3 2136   2.160   1.831   0.304
  182fsi     O4 2137   1.983   1.846   0.470
  182fsi     F2 2138   2.002   1.655   0.332
  183fsi     F1 2139   2.663   2.666   0.149
  183fsi     S1 2140   2.742   2.793   0.197
  183fsi      N 2141   2.676   2.826   0.336
  183fsi     O1 2142   2.879   2.751   0.204
  183fsi     O2 2143   2.707   2.892   0.099
  183fsi     S2 2144   2.678   2.739   0.468
  183fsi     O3 2145   2.725   2.604   0.454
  183fsi     O4 2146   2.558   2.763   0.541
  183fsi     F2 2147   2.788   2.810   0.555
  184fsi     F1 2148   2.799   0.783   2.436
  184fsi     S1 2149   2.746   0.919   2.494
  184fsi      N 2150   2.876   1.007   2.502
  184fsi     O1 2151   2.645   0.961   2.401
  184fsi     O2 2152   2.702   0.882   2.625
  184fsi     S2 2153   2.965   1.072   2.389
  184fsi     O3 2154   2.953   1.016   2.258
  184fsi     O4 2155   3.098   1.099   2.437
  184fsi     F2 2156   2.906   1.216   2.376
  185fsi     F1 2157   2.106   1.601   2.141
  185fsi     S1 2158   2.225   1.697   2.113
  185fsi      N 2159   2.330   1.603   2.047
  185fsi     O1 2160   2.171   1.803   2.033
  185fsi     O2 2161   2.278   1.729   2.242
  185fsi     S2 2162   2.365   1.584   1.897
  185fsi     O3 2163   2.302   1.676   1.808
  185fsi     O4 2164   2.380   1.447   1.860
  185fsi     F2 2165   2.513   1.633   1.897
  186fsi     F1 2166   1.784   2.694   0.051
  186fsi     S1 2167   1.770   2.838   0.114
  186fsi      N 2168   1.729   2.810   0.262
  186fsi     O1 2169   1.900   2.898   0.104
  186fsi     O2 2170   1.664   2.898   0.039
  186fsi     S2 2171   1.797   2.713   0.364
  186fsi     O3 2172   1.911   2.644   0.312
  186fsi     O4 2173   1.702   2.642   0.444
  186fsi     F2 2174   1.858   2.816   0.465
  187fsi     F1 2175   0.573   1.713   1.477
  187fsi     S1 2176   0.711   1.788   1.488
  187fsi      N 2177   0.814   1.669   1.497
  187fsi     O1 2178   0.717   1.865   1.367
  187fsi     O2 2179   0.698   1.859   1.612
  187fsi     S2 2180   0.859   1.572   1.382
  187fsi     O3 2181   0.776   1.575   1.265
  187fsi     O4 2182   0.894   1.442   1.433
  187fsi     F2 2183   0.997   1.630   1.338
  188fsi     F1 2184   1.769   1.418   1.379
  188fsi     S1 2185   1.762   1.263   1.364
  188fsi      N 2186   1.885   1.214   1.447
  188fsi     O1 2187   1.631   1.231   1.415
  188fsi     O2 2188   1.783   1.240   1.224
  188fsi     S2 2189   1.894   1.130   1.578
  188fsi     O3 2190   1.772   1.114   1.652
  188fsi     O4 2191   2.016   1.155   1.648
  188fsi     F2 2192   1.919   0.986   1.518
  189fsi     F1 2193   1.907   2.386   2.620
  189fsi     S1 2194   2.033   2.316   2.682
  189fsi      N 2195   2.059   2.196   2.586
  189fsi     O1 2196   2.137   2.416   2.675
  189fsi     O2 2197   1.988   2.276   2.812
  189fsi     S2 2198   2.113   2.204   2.439
  189fsi     O3 2199   2.099   2.336   2.384
  189fsi     O4 2200   2.078   2.091   2.359
  189fsi     F2 2201   2.268   2.193   2.456
  190fsi     F1 2202   2.595   0.620   2.703
  190fsi     S1 2203   2.548   0.512   2.600
  190fsi      N 2204   2.665   0.515   2.494
  190fsi     O1 2205   2.540   0.393   2.680
  190fsi     O2 2206   2.424   0.566   2.553
  190fsi     S2 2207   2.792   0.424   2.484
  190fsi     O3 2208   2.854   0.404   2.612
  190fsi     O4 2209   2.880   0.467   2.379
  190fsi     F2 2210   2.740   0.283   2.439
  191fsi     F1 2211   2.692   2.922   2.139
  191fsi     S1 2212   2.627   2.785   2.180
  191fsi      N 2213   2.549   2.817   2.313
  191fsi     O1 2214   2.545   2.749   2.068
  191fsi     O2 2215   2.740   2.702   2.213
  191fsi     S2 2216   2.402   2.870   2.332
  191fsi     O3 2217   2.329   2.897   2.212
  191fsi     O4 2218   2.386   2.959   2.442
  191fsi     F2 2219   2.330   2.741   2.387
  192fsi     F1 2220   1.274   2.529   1.322
  192fsi     S1 2221   1.294   2.376   1.298
  192fsi      N 2222   1.166   2.310   1.360
  192fsi     O1 2223   1.307   2.366   1.156
  192fsi     O2 2224   1.411   2.350   1.376
  192fsi     S2 2225   1.022   2.304   1.297
  192fsi     O3 2226   0.973   2.434   1.259
  192fsi     O4 2227   0.935   2.219   1.374
  192fsi     F2 2228   1.042   2.226   1.162
  193fsi     F1 2229   2.655   1.200   2.260
  193fsi     S1 2230   2.524   1.233   2.183
  193fsi      N 2231   2.415   1.168   2.275
  193fsi     O1 2232   2.524   1.377   2.182
  193fsi     O2 2233   2.544   1.164   2.059
  193fsi     S2 2234   2.293   1.240   2.344
  193fsi     O3 2235   2.252   1.361   2.282
  193fsi     O4 2236   2.309   1.243   2.487
  193fsi     F2 2237   2.175   1.142   2.316
  194fsi     F1 2238   0.715   2.211   1.661
  194fsi     S1 2239   0.647   2.335   1.731
  194fsi      N 2240   0.721   2.458   1.669
  194fsi     O1 2241   0.509   2.325   1.695
  194fsi     O2 2242   0.680   2.317   1.869
  194fsi     S2 2243   0.719   2.503   1.518
  194fsi     O3 2244   0.687   2.397   1.427
  194fsi     O4 2245   0.828   2.591   1.488
  194fsi     F2 2246   0.595   2.598   1.512
  195fsi     F1 2247   1.761   0.982   0.524
  195fsi     S1 2248   1.645   1.087   0.509
  195fsi      N 2249   1.720   1.218   0.472
  195fsi     O1 2250   1.562   1.036   0.404
  195fsi     O2 2251   1.585   1.090   0.640
  195fsi     S2 2252   1.742   1.289   0.333
  195fsi     O3 2253   1.706   1.210   0.218
  195fsi     O4 2254   1.865   1.362   0.328
  195fsi     F2 2255   1.632   1.400   0.335
  196fsi     F1 2256   2.451   0.114   1.668
  196fsi     S1 2257   2.518   0.227   1.754
  196fsi      N 2258   2.656   0.250   1.682
  196fsi     O1 2259   2.428   0.339   1.744
  196fsi     O2 2260   2.536   0.165   1.882
  196fsi     S2 2261   2.682   0.324   1.547
  196fsi     O3 2262   2.570   0.333   1.458
  196fsi     O4 2263   2.810   0.288   1.491
  196fsi     F2 2264   2.705   0.473   1.593
  197fsi     F1 2265   2.667   0.436   0.532
  197fsi     S1 2266   2.702   0.382   0.676
  197fsi      N 2267   2.636   0.239   0.676
  197fsi     O1 2268   2.845   0.386   0.681
  197fsi     O2 2269   2.629   0.469   0.764
  197fsi     S2 2270   2.700   0.098   0.648
  197fsi     O3 2271   2.839   0.096   0.614
  197fsi     O4 2272   2.613   0.012   0.571
  197fsi     F2 2273   2.696   0.032   0.791
  198fsi     F1 2274   1.968   1.774   2.303
  198fsi     S1 2275   1.989   1.732   2.453
  198fsi      N 2276   1.850   1.672   2.493
  198fsi     O1 2277   2.098   1.638   2.452
  198fsi     O2 2278   2.014   1.857   2.519
  198fsi     S2 2279   1.805   1.521   2.501
  198fsi     O3 2280   1.895   1.424   2.445
  198fsi     O4 2281   1.665   1.507   2.475
  198fsi     F2 2282   1.815   1.493   2.655
  199fsi     F1 2283   0.634   0.932   1.011
  199fsi     S1 2284   0.523   1.031   0.962
  199fsi      N 2285   0.607   1.147   0.901
  199fsi     O1 2286   0.452   0.956   0.862
  199fsi     O2 2287   0.451   1.067   1.080
  199fsi     S2 2288   0.686   1.143   0.767
  199fsi     O3 2289   0.715   1.011   0.719
  199fsi     O4 2290   0.790   1.241   0.756
  199fsi     F2 2291   0.579   1.197   0.664
  200fsi     F1 2292   2.488   2.457   2.121
  200fsi     S1 2293   2.353   2.448   2.201
  200fsi      N 2294   2.270   2.573   2.155
  200fsi     O1 2295   2.297   2.322   2.165
  200fsi     O2 2296   2.395   2.463   2.339
  200fsi     S2 2297   2.217   2.605   2.011
  200fsi     O3 2298   2.236   2.505   1.911
  200fsi     O4 2299   2.246   2.742   1.978
  200fsi     F2 2300   2.062   2.609   2.032
   3.24840   3.24840   3.24840
