
;
; GENERATED BY LigParGen Server
; Jorgensen Lab @ Yale University 
;
[ atomtypes ]
  opls_806  O806    15.9990     0.000    A    2.90000E-01   5.85760E-01
  opls_800  F800    18.9984     0.000    A    2.90000E-01   2.51040E-01
  opls_809  C809    12.0110     0.000    A    3.50000E-01   2.76144E-01
  opls_801  C801    12.0110     0.000    A    3.50000E-01   2.76144E-01
  opls_805  F805    18.9984     0.000    A    2.90000E-01   2.51040E-01
  opls_810  F810    18.9984     0.000    A    2.90000E-01   2.51040E-01
  opls_817  H817     1.0080     0.000    A    2.50000E-01   1.25520E-01
  opls_803  C803    12.0110     0.000    A    3.50000E-01   2.76144E-01
  opls_802  F802    18.9984     0.000    A    2.90000E-01   2.51040E-01
  opls_812  F812    18.9984     0.000    A    2.90000E-01   2.51040E-01
  opls_814  H814     1.0080     0.000    A    2.50000E-01   1.25520E-01
  opls_804  F804    18.9984     0.000    A    2.90000E-01   2.51040E-01
  opls_815  H815     1.0080     0.000    A    2.50000E-01   1.25520E-01
  opls_813  F813    18.9984     0.000    A    2.90000E-01   2.51040E-01
  opls_808  C808    12.0110     0.000    A    3.50000E-01   2.76144E-01
  opls_807  C807    12.0110     0.000    A    3.50000E-01   2.76144E-01
  opls_816  H816     1.0080     0.000    A    2.50000E-01   1.25520E-01
  opls_811  F811    18.9984     0.000    A    2.90000E-01   2.51040E-01
[ moleculetype ]
; Name               nrexcl
UNL                   3
[ atoms ]
;   nr       type  resnr residue  atom   cgnr     charge       mass  
     1   opls_800      1    UNL   F00      1    -0.1356    18.9984 
     2   opls_801      1    UNL   C01      1     0.2354    12.0110 
     3   opls_802      1    UNL   F02      1    -0.1356    18.9984 
     4   opls_803      1    UNL   C03      1     0.3614    12.0110 
     5   opls_804      1    UNL   F04      1    -0.1564    18.9984 
     6   opls_805      1    UNL   F05      1    -0.1564    18.9984 
     7   opls_806      1    UNL   O06      1    -0.3534    15.9990 
     8   opls_807      1    UNL   C07      1    -0.0914    12.0110 
     9   opls_808      1    UNL   C08      1     0.2570    12.0110 
    10   opls_809      1    UNL   C09      1     0.1898    12.0110 
    11   opls_810      1    UNL   F0A      1    -0.1428    18.9984 
    12   opls_811      1    UNL   F0B      1    -0.1428    18.9984 
    13   opls_812      1    UNL   F0C      1    -0.1306    18.9984 
    14   opls_813      1    UNL   F0D      1    -0.1306    18.9984 
    15   opls_814      1    UNL   H0E      1     0.1430     1.0080 
    16   opls_815      1    UNL   H0F      1     0.1322     1.0080 
    17   opls_816      1    UNL   H0G      1     0.1322     1.0080 
    18   opls_817      1    UNL   H0H      1     0.1249     1.0080 
[ bonds ]
    2     1     1      0.1360 307105.600
    3     2     1      0.1360 307105.600
    4     2     1      0.1529 224262.400
    5     4     1      0.1360 307105.600
    6     4     1      0.1360 307105.600
    7     4     1      0.1410 267776.000
    8     7     1      0.1410 267776.000
    9     8     1      0.1529 224262.400
   10     9     1      0.1529 224262.400
   11    10     1      0.1360 307105.600
   12    10     1      0.1360 307105.600
   13     9     1      0.1360 307105.600
   14     9     1      0.1360 307105.600
   15     2     1      0.1090 284512.000
   16     8     1      0.1090 284512.000
   17     8     1      0.1090 284512.000
   18    10     1      0.1090 284512.000

[ angles ]
;  ai    aj    ak funct            c0            c1            c2            c3 
    1     2     3     1    109.100    644.336
    1     2     4     1    109.500    418.400
    2     4     5     1    109.500    418.400
    2     4     6     1    109.500    418.400
    2     4     7     1    109.500    418.400
    4     7     8     1    109.500    502.080
    7     8     9     1    109.500    418.400
    8     9    10     1    112.700    488.273
    9    10    11     1    109.500    418.400
    9    10    12     1    109.500    418.400
    8     9    13     1    109.500    418.400
    8     9    14     1    109.500    418.400
    1     2    15     1    107.000    334.720
    7     8    16     1    109.500    292.880
    7     8    17     1    109.500    292.880
    9    10    18     1    110.700    313.800
   13     9    14     1    109.100    644.336
    5     4     6     1    109.100    644.336
   10     9    14     1    109.500    418.400
    5     4     7     1    109.900    585.760
   10     9    13     1    109.500    418.400
    3     2    15     1    107.000    334.720
    6     4     7     1    109.900    585.760
   12    10    18     1    107.000    334.720
   16     8    17     1    107.800    276.144
   11    10    18     1    107.000    334.720
    4     2    15     1    110.700    313.800
    3     2     4     1    109.500    418.400
    9     8    16     1    110.700    313.800
    9     8    17     1    110.700    313.800
   11    10    12     1    109.100    644.336

[ dihedrals ]
; IMPROPER DIHEDRAL ANGLES 
;  ai    aj    ak    al funct            c0            c1            c2            c3            c4            c5

[ dihedrals ]
; PROPER DIHEDRAL ANGLES
;  ai    aj    ak    al funct            c0            c1            c2            c3            c4            c5
   10    9    8    7        3       2.874   0.582   2.092  -5.548  -0.000   0.000
    9    8    7    4        3       1.715   2.845   1.046  -5.607  -0.000   0.000
    8    7    4    2        3       1.715   2.845   1.046  -5.607  -0.000   0.000
    8    7    4    6        3      21.439   0.000  -21.439  -0.000  -0.000   0.000
    8    7    4    5        3      21.439   0.000  -21.439  -0.000  -0.000   0.000
   12   10    9    8        3       0.000   0.000   0.000  -0.000  -0.000   0.000
   11   10    9    8        3       0.000   0.000   0.000  -0.000  -0.000   0.000
    5    4    2    3        3      -4.707   6.799   0.000  -2.092  -0.000   0.000
    6    4    2    3        3      -4.707   6.799   0.000  -2.092  -0.000   0.000
   13    9   10   12        3      -4.707   6.799   0.000  -2.092  -0.000   0.000
    6    4    2    1        3      -4.707   6.799   0.000  -2.092  -0.000   0.000
   14    9   10   11        3      -4.707   6.799   0.000  -2.092  -0.000   0.000
   13    9   10   11        3      -4.707   6.799   0.000  -2.092  -0.000   0.000
    5    4    2    1        3      -4.707   6.799   0.000  -2.092  -0.000   0.000
   14    9   10   12        3      -4.707   6.799   0.000  -2.092  -0.000   0.000
   13    9    8    7        3       1.130   3.389   0.000  -4.519  -0.000   0.000
   14    9    8    7        3       1.130   3.389   0.000  -4.519  -0.000   0.000
   18   10    9    8        3       0.628   1.883   0.000  -2.510  -0.000   0.000
   15    2    4    5        3       0.753   2.259   0.000  -3.012  -0.000   0.000
   18   10    9   14        3       0.753   2.259   0.000  -3.012  -0.000   0.000
   18   10    9   13        3       0.753   2.259   0.000  -3.012  -0.000   0.000
   15    2    4    6        3       0.753   2.259   0.000  -3.012  -0.000   0.000
   15    2    4    7        3       0.979   2.937   0.000  -3.916  -0.000   0.000
   17    8    9   10        3       0.628   1.883   0.000  -2.510  -0.000   0.000
   16    8    9   10        3       0.628   1.883   0.000  -2.510  -0.000   0.000
   17    8    9   14        3       0.753   2.259   0.000  -3.012  -0.000   0.000
   17    8    9   13        3       0.753   2.259   0.000  -3.012  -0.000   0.000
   16    8    9   14        3       0.753   2.259   0.000  -3.012  -0.000   0.000
   16    8    9   13        3       0.753   2.259   0.000  -3.012  -0.000   0.000
   16    8    7    4        3       1.590   4.770   0.000  -6.360  -0.000   0.000
   17    8    7    4        3       1.590   4.770   0.000  -6.360  -0.000   0.000
    7    4    2    1        3       1.130   3.389   0.000  -4.519  -0.000   0.000
    7    4    2    3        3       1.130   3.389   0.000  -4.519  -0.000   0.000

[ pairs ]
     1     5    1
     1     6    1
     3     5    1
     1     7    1
     3     6    1
     3     7    1
     2     8    1
     5     8    1
     4     9    1
     6     8    1
     7    10    1
     8    11    1
     8    12    1
     7    13    1
     5    15    1
     4    16    1
     7    14    1
     6    15    1
     4    17    1
     7    15    1
    11    13    1
    12    13    1
    11    14    1
    12    14    1
    10    16    1
     8    18    1
    10    17    1
    13    16    1
    14    16    1
    13    17    1
    14    17    1
    13    18    1
    14    18    1
