! created by fftool; mix = g

[ defaults ]
; nbfunc   comb-rule   gen-pairs   fudgeLJ fudgeQQ
  1        3           yes         0.5     0.5

[ atomtypes ]
; name  at.nr     mass   charge  ptype  sigma        epsilon
Li          3   6.9410   1.0000      A  2.12600e-01  7.64800e-02
N4          7  14.0070   0.1200      A  3.25000e-01  7.11280e-01
C1          6  12.0110  -0.1700      A  3.50000e-01  2.76140e-01
C2          6  12.0110   0.0100      A  3.50000e-01  2.76140e-01
H1          1   1.0080   0.1300      A  2.50000e-01  1.25520e-01
HC          1   1.0080   0.0600      A  2.50000e-01  1.25520e-01
CT          6  12.0110  -0.1800      A  3.50000e-01  2.76140e-01
FSI         9  18.9980  -0.1300      A  3.11800e-01  2.55400e-01
SBT        16  32.0660   1.0200      A  3.55000e-01  1.04600e+00
NBT         7  14.0000  -0.6600      A  3.25000e-01  7.11280e-01
OBT         8  15.9990  -0.5300      A  3.15000e-01  8.37360e-01

[ moleculetype ]
; name       nrexcl
Li+               3

[ atoms ]
;  nr   type  resnr  residu  atom   cgnr    charge
    1   Li        1  Li      Li        1    1.000000

[ bonds ]
;  ai    aj   func    b0        kb

[ constraints ]
;  ai    aj   func    b0

[ pairs ]
;   ai   aj   func

[ angles ]
;  ai    aj    ak   func    th0        cth

[ dihedrals ]
;  ai    aj    ak    al   func    coefficients

[ moleculetype ]
; name       nrexcl
c3c1pyrr+         3

[ atoms ]
;  nr   type  resnr  residu  atom   cgnr    charge
    1   N4        1  c3c     N         1    0.120000
    2   C1        1  c3c     C1        2   -0.170000
    3   C1        1  c3c     C2        3   -0.170000
    4   C2        1  c3c     C3        4    0.010000
    5   C2        1  c3c     C4        5    0.010000
    6   C1        1  c3c     C5        6   -0.170000
    7   C1        1  c3c     C6        7   -0.170000
    8   H1        1  c3c     H1        8    0.130000
    9   H1        1  c3c     H2        9    0.130000
   10   H1        1  c3c     H3       10    0.130000
   11   H1        1  c3c     H4       11    0.130000
   12   HC        1  c3c     H5       12    0.060000
   13   HC        1  c3c     H6       13    0.060000
   14   HC        1  c3c     H7       14    0.060000
   15   HC        1  c3c     H8       15    0.060000
   16   H1        1  c3c     H9       16    0.130000
   17   H1        1  c3c     H10      17    0.130000
   18   H1        1  c3c     H11      18    0.130000
   19   H1        1  c3c     H12      19    0.130000
   20   H1        1  c3c     H13      20    0.130000
   21   C2        1  c3c     C7       21    0.010000
   22   HC        1  c3c     H14      22    0.060000
   23   HC        1  c3c     H15      23    0.060000
   24   CT        1  c3c     C8       24   -0.180000
   25   HC        1  c3c     H16      25    0.060000
   26   HC        1  c3c     H17      26    0.060000
   27   HC        1  c3c     H18      27    0.060000

[ bonds ]
;  ai    aj   func    b0        kb
    2     1      1    0.14480   319660.0
    3     1      1    0.14480   319660.0
    4     2      1    0.15290   224200.0
    5     3      1    0.15290   224200.0
    6     1      1    0.14480   319660.0
    7     1      1    0.14480   319660.0
   21     7      1    0.15290   224200.0
   24    21      1    0.15290   224200.0
    5     4      1    0.15290   224200.0

[ constraints ]
;  ai    aj   func    b0
    8     2      1    0.10900
    9     2      1    0.10900
   10     3      1    0.10900
   11     3      1    0.10900
   12     4      1    0.10900
   13     4      1    0.10900
   14     5      1    0.10900
   15     5      1    0.10900
   16     6      1    0.10900
   17     6      1    0.10900
   18     6      1    0.10900
   19     7      1    0.10900
   20     7      1    0.10900
   22    21      1    0.10900
   23    21      1    0.10900
   25    24      1    0.10900
   26    24      1    0.10900
   27    24      1    0.10900

[ pairs ]
;   ai   aj   func
    1    12      1
    1    13      1
    1    14      1
    1    15      1
    1    22      1
    1    23      1
    1    24      1
    2    10      1
    2    11      1
    2    14      1
    2    15      1
    2    16      1
    2    17      1
    2    18      1
    2    19      1
    2    20      1
    2    21      1
    3     8      1
    3     9      1
    3    12      1
    3    13      1
    3    16      1
    3    17      1
    3    18      1
    3    19      1
    3    20      1
    3    21      1
    4     6      1
    4     7      1
    4    10      1
    4    11      1
    5     6      1
    5     7      1
    5     8      1
    5     9      1
    6     8      1
    6     9      1
    6    10      1
    6    11      1
    6    19      1
    6    20      1
    6    21      1
    7     8      1
    7     9      1
    7    10      1
    7    11      1
    7    16      1
    7    17      1
    7    18      1
    7    25      1
    7    26      1
    7    27      1
    8    12      1
    8    13      1
    9    12      1
    9    13      1
   10    14      1
   10    15      1
   11    14      1
   11    15      1
   12    14      1
   12    15      1
   13    14      1
   13    15      1
   19    22      1
   19    23      1
   19    24      1
   20    22      1
   20    23      1
   20    24      1
   22    25      1
   22    26      1
   22    27      1
   23    25      1
   23    26      1
   23    27      1

[ angles ]
;  ai    aj    ak   func    th0        cth
    2     1     3      1    107.200    433.500
    2     1     6      1    107.200    433.500
    2     1     7      1    107.200    433.500
    3     1     6      1    107.200    433.500
    3     1     7      1    107.200    433.500
    6     1     7      1    107.200    433.500
    1     2     4      1    109.500    470.300
    1     2     8      1    109.500    292.900
    1     2     9      1    109.500    292.900
    4     2     8      1    110.700    313.800
    4     2     9      1    110.700    313.800
    8     2     9      1    107.800    276.100
    1     3     5      1    109.500    470.300
    1     3    10      1    109.500    292.900
    1     3    11      1    109.500    292.900
    5     3    10      1    110.700    313.800
    5     3    11      1    110.700    313.800
   10     3    11      1    107.800    276.100
    2     4    12      1    110.700    313.800
    2     4    13      1    110.700    313.800
    2     4     5      1    112.700    488.300
   12     4    13      1    107.800    276.100
   12     4     5      1    110.700    313.800
   13     4     5      1    110.700    313.800
    3     5    14      1    110.700    313.800
    3     5    15      1    110.700    313.800
    3     5     4      1    112.700    488.300
   14     5    15      1    107.800    276.100
   14     5     4      1    110.700    313.800
   15     5     4      1    110.700    313.800
    1     6    16      1    109.500    292.900
    1     6    17      1    109.500    292.900
    1     6    18      1    109.500    292.900
   16     6    17      1    107.800    276.100
   16     6    18      1    107.800    276.100
   17     6    18      1    107.800    276.100
    1     7    19      1    109.500    292.900
    1     7    20      1    109.500    292.900
    1     7    21      1    109.500    470.300
   19     7    20      1    107.800    276.100
   19     7    21      1    110.700    313.800
   20     7    21      1    110.700    313.800
    7    21    22      1    110.700    313.800
    7    21    23      1    110.700    313.800
    7    21    24      1    112.700    488.300
   22    21    23      1    107.800    276.100
   22    21    24      1    110.700    313.800
   23    21    24      1    110.700    313.800
   21    24    25      1    110.700    313.800
   21    24    26      1    110.700    313.800
   21    24    27      1    110.700    313.800
   25    24    26      1    107.800    276.100
   25    24    27      1    107.800    276.100
   26    24    27      1    107.800    276.100

[ dihedrals ]
;  ai    aj    ak    al   func    coefficients
    4     2     1     3      5    1.74050  -0.53560   2.90790   0.00000
    4     2     1     6      5    1.74050  -0.53560   2.90790   0.00000
    4     2     1     7      5    1.74050  -0.53560   2.90790   0.00000
    8     2     1     3      5    0.00000   0.00000   2.34300   0.00000
    8     2     1     6      5    0.00000   0.00000   2.34300   0.00000
    8     2     1     7      5    0.00000   0.00000   2.34300   0.00000
    9     2     1     3      5    0.00000   0.00000   2.34300   0.00000
    9     2     1     6      5    0.00000   0.00000   2.34300   0.00000
    9     2     1     7      5    0.00000   0.00000   2.34300   0.00000
    5     3     1     2      5    1.74050  -0.53560   2.90790   0.00000
    5     3     1     6      5    1.74050  -0.53560   2.90790   0.00000
    5     3     1     7      5    1.74050  -0.53560   2.90790   0.00000
   10     3     1     2      5    0.00000   0.00000   2.34300   0.00000
   10     3     1     6      5    0.00000   0.00000   2.34300   0.00000
   10     3     1     7      5    0.00000   0.00000   2.34300   0.00000
   11     3     1     2      5    0.00000   0.00000   2.34300   0.00000
   11     3     1     6      5    0.00000   0.00000   2.34300   0.00000
   11     3     1     7      5    0.00000   0.00000   2.34300   0.00000
   12     4     2     1      5   -4.23840  -2.96650   1.97900   0.00000
   12     4     2     8      5    0.00000   0.00000   1.25520   0.00000
   12     4     2     9      5    0.00000   0.00000   1.25520   0.00000
   13     4     2     1      5   -4.23840  -2.96650   1.97900   0.00000
   13     4     2     8      5    0.00000   0.00000   1.25520   0.00000
   13     4     2     9      5    0.00000   0.00000   1.25520   0.00000
    5     4     2     1      5   10.00810  -2.82000   2.30120   0.00000
    5     4     2     8      5    0.00000   0.00000   1.25520   0.00000
    5     4     2     9      5    0.00000   0.00000   1.25520   0.00000
   14     5     3     1      5   -4.23840  -2.96650   1.97900   0.00000
   14     5     3    10      5    0.00000   0.00000   1.25520   0.00000
   14     5     3    11      5    0.00000   0.00000   1.25520   0.00000
   15     5     3     1      5   -4.23840  -2.96650   1.97900   0.00000
   15     5     3    10      5    0.00000   0.00000   1.25520   0.00000
   15     5     3    11      5    0.00000   0.00000   1.25520   0.00000
    4     5     3     1      5   10.00810  -2.82000   2.30120   0.00000
    4     5     3    10      5    0.00000   0.00000   1.25520   0.00000
    4     5     3    11      5    0.00000   0.00000   1.25520   0.00000
   16     6     1     2      5    0.00000   0.00000   2.34300   0.00000
   16     6     1     3      5    0.00000   0.00000   2.34300   0.00000
   16     6     1     7      5    0.00000   0.00000   2.34300   0.00000
   17     6     1     2      5    0.00000   0.00000   2.34300   0.00000
   17     6     1     3      5    0.00000   0.00000   2.34300   0.00000
   17     6     1     7      5    0.00000   0.00000   2.34300   0.00000
   18     6     1     2      5    0.00000   0.00000   2.34300   0.00000
   18     6     1     3      5    0.00000   0.00000   2.34300   0.00000
   18     6     1     7      5    0.00000   0.00000   2.34300   0.00000
   19     7     1     2      5    0.00000   0.00000   2.34300   0.00000
   19     7     1     3      5    0.00000   0.00000   2.34300   0.00000
   19     7     1     6      5    0.00000   0.00000   2.34300   0.00000
   20     7     1     2      5    0.00000   0.00000   2.34300   0.00000
   20     7     1     3      5    0.00000   0.00000   2.34300   0.00000
   20     7     1     6      5    0.00000   0.00000   2.34300   0.00000
   21     7     1     2      5    1.74050  -0.53560   2.90790   0.00000
   21     7     1     3      5    1.74050  -0.53560   2.90790   0.00000
   21     7     1     6      5    1.74050  -0.53560   2.90790   0.00000
   22    21     7     1      5   -4.23840  -2.96650   1.97900   0.00000
   22    21     7    19      5    0.00000   0.00000   1.25520   0.00000
   22    21     7    20      5    0.00000   0.00000   1.25520   0.00000
   23    21     7     1      5   -4.23840  -2.96650   1.97900   0.00000
   23    21     7    19      5    0.00000   0.00000   1.25520   0.00000
   23    21     7    20      5    0.00000   0.00000   1.25520   0.00000
   24    21     7     1      5   10.00810  -2.82000   2.30120   0.00000
   24    21     7    19      5    0.00000   0.00000   1.25520   0.00000
   24    21     7    20      5    0.00000   0.00000   1.25520   0.00000
   25    24    21     7      5    0.00000   0.00000   1.25520   0.00000
   25    24    21    22      5    0.00000   0.00000   1.25520   0.00000
   25    24    21    23      5    0.00000   0.00000   1.25520   0.00000
   26    24    21     7      5    0.00000   0.00000   1.25520   0.00000
   26    24    21    22      5    0.00000   0.00000   1.25520   0.00000
   26    24    21    23      5    0.00000   0.00000   1.25520   0.00000
   27    24    21     7      5    0.00000   0.00000   1.25520   0.00000
   27    24    21    22      5    0.00000   0.00000   1.25520   0.00000
   27    24    21    23      5    0.00000   0.00000   1.25520   0.00000
    3     5     4     2      5    5.43920  -0.20920   0.83680   0.00000
    3     5     4    12      5    0.00000   0.00000   1.25520   0.00000
    3     5     4    13      5    0.00000   0.00000   1.25520   0.00000
   14     5     4     2      5    0.00000   0.00000   1.25520   0.00000
   14     5     4    12      5    0.00000   0.00000   1.25520   0.00000
   14     5     4    13      5    0.00000   0.00000   1.25520   0.00000
   15     5     4     2      5    0.00000   0.00000   1.25520   0.00000
   15     5     4    12      5    0.00000   0.00000   1.25520   0.00000
   15     5     4    13      5    0.00000   0.00000   1.25520   0.00000

[ moleculetype ]
; name       nrexcl
fsi-              3

[ atoms ]
;  nr   type  resnr  residu  atom   cgnr    charge
    1   FSI       1  fsi     F1        1   -0.130000
    2   SBT       1  fsi     S1        2    1.020000
    3   NBT       1  fsi     N         3   -0.660000
    4   OBT       1  fsi     O1        4   -0.530000
    5   OBT       1  fsi     O2        5   -0.530000
    6   SBT       1  fsi     S2        6    1.020000
    7   OBT       1  fsi     O3        7   -0.530000
    8   OBT       1  fsi     O4        8   -0.530000
    9   FSI       1  fsi     F2        9   -0.130000

[ bonds ]
;  ai    aj   func    b0        kb
    2     1      1    0.15750   187900.0
    3     2      1    0.15700   313700.0
    4     2      1    0.14370   533100.0
    5     2      1    0.14370   533100.0
    6     3      1    0.15700   313700.0
    7     6      1    0.14370   533100.0
    8     6      1    0.14370   533100.0
    9     6      1    0.15750   187900.0

[ constraints ]
;  ai    aj   func    b0

[ pairs ]
;   ai   aj   func
    1     6      1
    2     7      1
    2     8      1
    2     9      1
    4     6      1
    5     6      1

[ angles ]
;  ai    aj    ak   func    th0        cth
    1     2     3      1    103.000    902.000
    1     2     4      1    104.100   1077.000
    1     2     5      1    104.100   1077.000
    3     2     4      1    113.600    789.000
    3     2     5      1    113.600    789.000
    4     2     5      1    118.500    969.000
    2     3     6      1    125.600    671.000
    3     6     7      1    113.600    789.000
    3     6     8      1    113.600    789.000
    3     6     9      1    103.000    902.000
    7     6     8      1    118.500    969.000
    7     6     9      1    104.100   1077.000
    8     6     9      1    104.100   1077.000

[ dihedrals ]
;  ai    aj    ak    al   func    coefficients
    6     3     2     1      5   11.44500 -15.18600  -3.21200   0.00000
    6     3     2     4      5    0.00000   0.00000  -0.01500   0.00000
    6     3     2     5      5    0.00000   0.00000  -0.01500   0.00000
    7     6     3     2      5    0.00000   0.00000  -0.01500   0.00000
    8     6     3     2      5    0.00000   0.00000  -0.01500   0.00000
    9     6     3     2      5   11.44500 -15.18600  -3.21200   0.00000

[ system ]
simbox

[ molecules ]
Li+                 50
c3c1pyrr+           50
fsi-               100
