created by fftool
 2300
    1Li      Li    1   1.449   1.735   1.224
    2Li      Li    2   1.942   1.348   0.472
    3Li      Li    3   1.977   2.734   1.269
    4Li      Li    4   0.926   2.615   2.292
    5Li      Li    5   1.117   2.052   0.531
    6Li      Li    6   1.814   0.561   1.822
    7Li      Li    7   2.498   1.991   0.794
    8Li      Li    8   0.587   0.974   2.799
    9Li      Li    9   0.608   2.509   2.936
   10Li      Li   10   2.499   2.060   1.162
   11Li      Li   11   0.547   2.668   1.442
   12Li      Li   12   1.306   1.447   1.729
   13Li      Li   13   1.808   2.936   1.923
   14Li      Li   14   2.844   1.185   2.682
   15Li      Li   15   0.566   2.245   2.040
   16Li      Li   16   0.457   2.055   2.936
   17Li      Li   17   1.225   0.386   2.173
   18Li      Li   18   1.329   2.824   2.760
   19Li      Li   19   2.074   1.714   2.636
   20Li      Li   20   1.378   2.300   2.348
   21Li      Li   21   2.276   0.161   1.023
   22Li      Li   22   1.289   0.901   1.588
   23Li      Li   23   2.711   1.941   0.776
   24Li      Li   24   2.241   2.001   0.904
   25Li      Li   25   1.802   1.369   1.301
   26Li      Li   26   0.992   0.199   0.252
   27Li      Li   27   0.465   0.736   0.638
   28Li      Li   28   1.385   0.513   2.341
   29Li      Li   29   1.801   0.661   0.622
   30Li      Li   30   1.914   1.983   2.747
   31Li      Li   31   0.320   2.936   1.408
   32Li      Li   32   0.199   1.337   0.669
   33Li      Li   33   1.390   2.452   0.820
   34Li      Li   34   0.150   1.294   1.965
   35Li      Li   35   2.599   2.819   2.730
   36Li      Li   36   0.501   2.874   2.917
   37Li      Li   37   2.062   0.531   1.471
   38Li      Li   38   2.445   2.163   0.666
   39Li      Li   39   1.318   0.313   2.455
   40Li      Li   40   2.136   0.459   1.124
   41Li      Li   41   0.150   1.067   0.488
   42Li      Li   42   0.298   2.936   0.419
   43Li      Li   43   2.421   2.917   2.382
   44Li      Li   44   2.234   0.875   0.824
   45Li      Li   45   0.315   0.583   1.194
   46Li      Li   46   1.537   1.169   1.961
   47Li      Li   47   1.541   0.341   0.679
   48Li      Li   48   0.464   0.753   2.299
   49Li      Li   49   2.542   0.330   2.532
   50Li      Li   50   2.323   2.065   1.864
   51c3c      N   51   1.022   1.969   2.657
   51c3c     C1   52   0.941   1.861   2.716
   51c3c     C2   53   1.150   1.978   2.729
   51c3c     C3   54   1.018   1.796   2.831
   51c3c     C4   55   1.155   1.872   2.839
   51c3c     C5   56   1.047   1.940   2.515
   51c3c     C6   57   0.949   2.096   2.669
   51c3c     H1   58   0.919   1.786   2.639
   51c3c     H2   59   0.847   1.902   2.753
   51c3c     H3   60   1.232   1.962   2.659
   51c3c     H4   61   1.160   2.077   2.773
   51c3c     H5   62   1.034   1.690   2.811
   51c3c     H6   63   0.962   1.805   2.924
   51c3c     H7   64   1.238   1.804   2.824
   51c3c     H8   65   1.167   1.919   2.937
   51c3c     H9   66   0.952   1.933   2.462
   51c3c    H10   67   1.107   2.020   2.472
   51c3c    H11   68   1.100   1.845   2.506
   51c3c    H12   69   1.009   2.176   2.626
   51c3c    H13   70   0.854   2.089   2.616
   51c3c     C7   71   0.923   2.126   2.817
   51c3c    H14   72   1.018   2.134   2.870
   51c3c    H15   73   0.863   2.047   2.860
   51c3c     C8   74   0.848   2.259   2.829
   51c3c    H16   75   0.753   2.252   2.776
   51c3c    H17   76   0.908   2.339   2.786
   51c3c    H18   77   0.829   2.281   2.934
   52c3c      N   78   1.442   2.124   1.222
   52c3c     C1   79   1.370   2.213   1.314
   52c3c     C2   80   1.459   2.191   1.092
   52c3c     C3   81   1.338   2.344   1.243
   52c3c     C4   82   1.396   2.330   1.098
   52c3c     C5   83   1.575   2.092   1.278
   52c3c     C6   84   1.366   2.000   1.203
   52c3c     H1   85   1.433   2.233   1.401
   52c3c     H2   86   1.278   2.165   1.346
   52c3c     H3   87   1.565   2.200   1.069
   52c3c     H4   88   1.410   2.132   1.014
   52c3c     H5   89   1.384   2.428   1.295
   52c3c     H6   90   1.230   2.361   1.241
   52c3c     H7   91   1.470   2.407   1.078
   52c3c     H8   92   1.317   2.339   1.024
   52c3c     H9   93   1.563   2.042   1.374
   52c3c    H10   94   1.628   2.026   1.209
   52c3c    H11   95   1.632   2.183   1.291
   52c3c    H12   96   1.419   1.934   1.135
   52c3c    H13   97   1.353   1.950   1.299
   52c3c     C7   98   1.228   2.033   1.145
   52c3c    H14   99   1.240   2.083   1.049
   52c3c    H15  100   1.175   2.099   1.214
   52c3c     C8  101   1.148   1.904   1.126
   52c3c    H16  102   1.136   1.854   1.222
   52c3c    H17  103   1.202   1.838   1.058
   52c3c    H18  104   1.050   1.928   1.084
   53c3c      N  105   1.731   1.281   2.589
   53c3c     C1  106   1.688   1.167   2.671
   53c3c     C2  107   1.853   1.246   2.514
   53c3c     C3  108   1.785   1.050   2.650
   53c3c     C4  109   1.893   1.102   2.548
   53c3c     C5  110   1.624   1.317   2.494
   53c3c     C6  111   1.759   1.396   2.677
   53c3c     H1  112   1.588   1.136   2.641
   53c3c     H2  113   1.688   1.195   2.776
   53c3c     H3  114   1.834   1.255   2.408
   53c3c     H4  115   1.934   1.314   2.543
   53c3c     H5  116   1.732   0.963   2.610
   53c3c     H6  117   1.832   1.022   2.744
   53c3c     H7  118   1.893   1.041   2.458
   53c3c     H8  119   1.992   1.099   2.592
   53c3c     H9  120   1.534   1.343   2.549
   53c3c    H10  121   1.656   1.402   2.434
   53c3c    H11  122   1.603   1.232   2.429
   53c3c    H12  123   1.791   1.481   2.616
   53c3c    H13  124   1.669   1.423   2.732
   53c3c     C7  125   1.870   1.360   2.775
   53c3c    H14  126   1.960   1.333   2.720
   53c3c    H15  127   1.838   1.275   2.836
   53c3c     C8  128   1.899   1.479   2.866
   53c3c    H16  129   1.809   1.505   2.921
   53c3c    H17  130   1.931   1.564   2.806
   53c3c    H18  131   1.978   1.453   2.936
   54c3c      N  132   2.128   2.404   1.053
   54c3c     C1  133   2.098   2.302   1.156
   54c3c     C2  134   2.080   2.356   0.923
   54c3c     C3  135   2.028   2.183   1.091
   54c3c     C4  136   2.016   2.218   0.938
   54c3c     C5  137   2.060   2.530   1.087
   54c3c     C6  138   2.273   2.426   1.047
   54c3c     H1  139   2.033   2.346   1.232
   54c3c     H2  140   2.191   2.269   1.202
   54c3c     H3  141   2.007   2.426   0.883
   54c3c     H4  142   2.164   2.349   0.853
   54c3c     H5  143   1.929   2.168   1.135
   54c3c     H6  144   2.086   2.092   1.106
   54c3c     H7  145   1.912   2.220   0.907
   54c3c     H8  146   2.069   2.144   0.878
   54c3c     H9  147   2.095   2.565   1.184
   54c3c    H10  148   2.082   2.604   1.011
   54c3c    H11  149   1.952   2.513   1.092
   54c3c    H12  150   2.295   2.501   0.971
   54c3c    H13  151   2.309   2.461   1.144
   54c3c     C7  152   2.344   2.295   1.012
   54c3c    H14  153   2.309   2.260   0.915
   54c3c    H15  154   2.322   2.220   1.088
   54c3c     C8  155   2.495   2.319   1.006
   54c3c    H16  156   2.530   2.354   1.103
   54c3c    H17  157   2.517   2.394   0.930
   54c3c    H18  158   2.545   2.226   0.980
   55c3c      N  159   0.522   2.693   0.439
   55c3c     C1  160   0.413   2.627   0.366
   55c3c     C2  161   0.564   2.813   0.365
   55c3c     C3  162   0.380   2.706   0.240
   55c3c     C4  163   0.479   2.828   0.239
   55c3c     C5  164   0.476   2.731   0.573
   55c3c     C6  165   0.636   2.601   0.451
   55c3c     H1  166   0.324   2.622   0.430
   55c3c     H2  167   0.443   2.526   0.339
   55c3c     H3  168   0.550   2.901   0.428
   55c3c     H4  169   0.669   2.805   0.338
   55c3c     H5  170   0.276   2.740   0.241
   55c3c     H6  171   0.394   2.644   0.151
   55c3c     H7  172   0.424   2.922   0.240
   55c3c     H8  173   0.542   2.826   0.150
   55c3c     H9  174   0.445   2.642   0.628
   55c3c    H10  175   0.557   2.780   0.627
   55c3c    H11  176   0.392   2.800   0.565
   55c3c    H12  177   0.717   2.650   0.504
   55c3c    H13  178   0.605   2.512   0.505
   55c3c     C7  179   0.684   2.561   0.311
   55c3c    H14  180   0.715   2.650   0.256
   55c3c    H15  181   0.603   2.512   0.257
   55c3c     C8  182   0.803   2.465   0.323
   55c3c    H16  183   0.772   2.376   0.378
   55c3c    H17  184   0.884   2.514   0.377
   55c3c    H18  185   0.837   2.437   0.224
   56c3c      N  186   1.532   2.408   1.701
   56c3c     C1  187   1.634   2.351   1.612
   56c3c     C2  188   1.572   2.388   1.842
   56c3c     C3  189   1.747   2.291   1.696
   56c3c     C4  190   1.706   2.315   1.846
   56c3c     C5  191   1.518   2.552   1.675
   56c3c     C6  192   1.403   2.341   1.677
   56c3c     H1  193   1.675   2.430   1.548
   56c3c     H2  194   1.589   2.273   1.550
   56c3c     H3  195   1.582   2.484   1.891
   56c3c     H4  196   1.497   2.328   1.893
   56c3c     H5  197   1.842   2.339   1.674
   56c3c     H6  198   1.758   2.184   1.675
   56c3c     H7  199   1.781   2.375   1.897
   56c3c     H8  200   1.697   2.220   1.899
   56c3c     H9  201   1.488   2.567   1.571
   56c3c    H10  202   1.442   2.594   1.741
   56c3c    H11  203   1.613   2.602   1.693
   56c3c    H12  204   1.327   2.383   1.743
   56c3c    H13  205   1.373   2.356   1.574
   56c3c     C7  206   1.417   2.191   1.705
   56c3c    H14  207   1.447   2.176   1.809
   56c3c    H15  208   1.493   2.149   1.639
   56c3c     C8  209   1.283   2.122   1.680
   56c3c    H16  210   1.254   2.137   1.576
   56c3c    H17  211   1.208   2.164   1.746
   56c3c    H18  212   1.294   2.015   1.700
   57c3c      N  213   2.202   1.743   1.235
   57c3c     C1  214   2.349   1.737   1.235
   57c3c     C2  215   2.156   1.829   1.345
   57c3c     C3  216   2.404   1.822   1.349
   57c3c     C4  217   2.277   1.883   1.421
   57c3c     C5  218   2.155   1.798   1.107
   57c3c     C6  219   2.148   1.607   1.253
   57c3c     H1  220   2.387   1.775   1.140
   57c3c     H2  221   2.382   1.634   1.248
   57c3c     H3  222   2.099   1.912   1.304
   57c3c     H4  223   2.093   1.771   1.412
   57c3c     H5  224   2.468   1.902   1.311
   57c3c     H6  225   2.462   1.762   1.419
   57c3c     H7  226   2.279   1.992   1.418
   57c3c     H8  227   2.274   1.851   1.526
   57c3c     H9  228   2.190   1.734   1.025
   57c3c    H10  229   2.047   1.802   1.106
   57c3c    H11  230   2.196   1.898   1.093
   57c3c    H12  231   2.039   1.611   1.252
   57c3c    H13  232   2.182   1.543   1.171
   57c3c     C7  233   2.196   1.550   1.386
   57c3c    H14  234   2.162   1.614   1.467
   57c3c    H15  235   2.305   1.546   1.386
   57c3c     C8  236   2.140   1.409   1.404
   57c3c    H16  237   2.174   1.345   1.323
   57c3c    H17  238   2.031   1.413   1.404
   57c3c    H18  239   2.174   1.368   1.499
   58c3c      N  240   0.952   0.366   1.894
   58c3c     C1  241   1.037   0.449   1.807
   58c3c     C2  242   1.015   0.235   1.914
   58c3c     C3  243   1.162   0.370   1.768
   58c3c     C4  244   1.147   0.230   1.838
   58c3c     C5  245   0.935   0.433   2.024
   58c3c     C6  246   0.820   0.348   1.831
   58c3c     H1  247   1.067   0.539   1.861
   58c3c     H2  248   0.981   0.476   1.718
   58c3c     H3  249   1.034   0.219   2.020
   58c3c     H4  250   0.949   0.157   1.878
   58c3c     H5  251   1.252   0.421   1.801
   58c3c     H6  252   1.167   0.359   1.660
   58c3c     H7  253   1.230   0.212   1.906
   58c3c     H8  254   1.146   0.149   1.764
   58c3c     H9  255   0.888   0.530   2.010
   58c3c    H10  256   0.872   0.371   2.089
   58c3c    H11  257   1.033   0.446   2.071
   58c3c    H12  258   0.757   0.287   1.896
   58c3c    H13  259   0.773   0.445   1.817
   58c3c     C7  260   0.837   0.279   1.696
   58c3c    H14  261   0.884   0.181   1.711
   58c3c    H15  262   0.900   0.340   1.632
   58c3c     C8  263   0.700   0.260   1.631
   58c3c    H16  264   0.653   0.357   1.616
   58c3c    H17  265   0.637   0.199   1.695
   58c3c    H18  266   0.712   0.211   1.534
   59c3c      N  267   1.395   0.709   0.513
   59c3c     C1  268   1.523   0.750   0.453
   59c3c     C2  269   1.323   0.829   0.560
   59c3c     C3  270   1.538   0.902   0.460
   59c3c     C4  271   1.407   0.953   0.530
   59c3c     C5  272   1.314   0.640   0.412
   59c3c     C6  273   1.420   0.619   0.626
   59c3c     H1  274   1.526   0.718   0.349
   59c3c     H2  275   1.605   0.703   0.507
   59c3c     H3  276   1.227   0.836   0.509
   59c3c     H4  277   1.306   0.821   0.667
   59c3c     H5  278   1.547   0.944   0.360
   59c3c     H6  279   1.626   0.929   0.518
   59c3c     H7  280   1.352   1.022   0.465
   59c3c     H8  281   1.431   1.007   0.623
   59c3c     H9  282   1.367   0.551   0.377
   59c3c    H10  283   1.219   0.610   0.457
   59c3c    H11  284   1.295   0.706   0.328
   59c3c    H12  285   1.325   0.589   0.671
   59c3c    H13  286   1.474   0.531   0.591
   59c3c     C7  287   1.505   0.692   0.731
   59c3c    H14  288   1.452   0.780   0.766
   59c3c    H15  289   1.600   0.721   0.687
   59c3c     C8  290   1.531   0.598   0.849
   59c3c    H16  291   1.584   0.509   0.814
   59c3c    H17  292   1.436   0.568   0.894
   59c3c    H18  293   1.591   0.650   0.924
   60c3c      N  294   0.426   2.281   0.687
   60c3c     C1  295   0.357   2.172   0.758
   60c3c     C2  296   0.365   2.409   0.723
   60c3c     C3  297   0.245   2.230   0.845
   60c3c     C4  298   0.250   2.386   0.822
   60c3c     C5  299   0.568   2.281   0.725
   60c3c     C6  300   0.414   2.260   0.542
   60c3c     H1  301   0.428   2.119   0.821
   60c3c     H2  302   0.314   2.103   0.686
   60c3c     H3  303   0.440   2.474   0.769
   60c3c     H4  304   0.326   2.458   0.633
   60c3c     H5  305   0.261   2.206   0.950
   60c3c     H6  306   0.148   2.190   0.815
   60c3c     H7  307   0.269   2.438   0.916
   60c3c     H8  308   0.156   2.422   0.781
   60c3c     H9  309   0.613   2.186   0.698
   60c3c    H10  310   0.619   2.362   0.673
   60c3c    H11  311   0.577   2.297   0.833
   60c3c    H12  312   0.465   2.340   0.489
   60c3c    H13  313   0.460   2.164   0.515
   60c3c     C7  314   0.266   2.259   0.502
   60c3c    H14  315   0.221   2.354   0.529
   60c3c    H15  316   0.215   2.178   0.555
   60c3c     C8  317   0.254   2.237   0.351
   60c3c    H16  318   0.300   2.142   0.324
   60c3c    H17  319   0.306   2.318   0.299
   60c3c    H18  320   0.149   2.237   0.323
   61c3c      N  321   0.998   0.355   0.693
   61c3c     C1  322   1.074   0.230   0.676
   61c3c     C2  323   1.067   0.441   0.790
   61c3c     C3  324   1.198   0.233   0.766
   61c3c     C4  325   1.193   0.372   0.840
   61c3c     C5  326   0.988   0.424   0.564
   61c3c     C6  327   0.863   0.323   0.742
   61c3c     H1  328   1.105   0.220   0.572
   61c3c     H2  329   1.012   0.145   0.704
   61c3c     H3  330   1.093   0.535   0.743
   61c3c     H4  331   1.000   0.461   0.875
   61c3c     H5  332   1.289   0.225   0.706
   61c3c     H6  333   1.197   0.151   0.837
   61c3c     H7  334   1.282   0.431   0.817
   61c3c     H8  335   1.189   0.357   0.948
   61c3c     H9  336   0.938   0.360   0.492
   61c3c    H10  337   0.932   0.516   0.577
   61c3c    H11  338   1.089   0.447   0.528
   61c3c    H12  339   0.807   0.416   0.755
   61c3c    H13  340   0.812   0.259   0.670
   61c3c     C7  341   0.873   0.251   0.877
   61c3c    H14  342   0.924   0.315   0.949
   61c3c    H15  343   0.929   0.159   0.864
   61c3c     C8  344   0.732   0.219   0.928
   61c3c    H16  345   0.682   0.155   0.856
   61c3c    H17  346   0.676   0.311   0.940
   61c3c    H18  347   0.739   0.167   1.023
   62c3c      N  348   0.851   2.797   0.936
   62c3c     C1  349   0.822   2.653   0.936
   62c3c     C2  350   0.726   2.873   0.936
   62c3c     C3  351   0.670   2.632   0.936
   62c3c     C4  352   0.607   2.776   0.936
   62c3c     C5  353   0.929   2.831   1.056
   62c3c     C6  354   0.929   2.831   0.816
   62c3c     H1  355   0.864   2.607   1.026
   62c3c     H2  356   0.865   2.607   0.848
   62c3c     H3  357   0.721   2.936   1.025
   62c3c     H4  358   0.721   2.936   0.847
   62c3c     H5  359   0.639   2.577   1.025
   62c3c     H6  360   0.639   2.576   0.848
   62c3c     H7  361   0.545   2.792   1.024
   62c3c     H8  362   0.545   2.791   0.848
   62c3c     H9  363   1.023   2.775   1.056
   62c3c    H10  364   0.951   2.938   1.056
   62c3c    H11  365   0.872   2.806   1.145
   62c3c    H12  366   0.952   2.938   0.816
   62c3c    H13  367   1.023   2.774   0.816
   62c3c     C7  368   0.849   2.795   0.691
   62c3c    H14  369   0.755   2.852   0.691
   62c3c    H15  370   0.826   2.689   0.691
   62c3c     C8  371   0.929   2.830   0.566
   62c3c    H16  372   1.023   2.774   0.566
   62c3c    H17  373   0.952   2.937   0.566
   62c3c    H18  374   0.872   2.805   0.477
   63c3c      N  375   2.244   2.641   0.477
   63c3c     C1  376   2.213   2.719   0.598
   63c3c     C2  377   2.334   2.719   0.391
   63c3c     C3  378   2.284   2.854   0.592
   63c3c     C4  379   2.364   2.854   0.456
   63c3c     C5  380   2.309   2.515   0.516
   63c3c     C6  381   2.119   2.612   0.405
   63c3c     H1  382   2.246   2.664   0.687
   63c3c     H2  383   2.105   2.736   0.604
   63c3c     H3  384   2.427   2.664   0.377
   63c3c     H4  385   2.286   2.736   0.294
   63c3c     H5  386   2.352   2.865   0.677
   63c3c     H6  387   2.213   2.936   0.595
   63c3c     H7  388   2.471   2.865   0.474
   63c3c     H8  389   2.331   2.936   0.393
   63c3c     H9  390   2.243   2.458   0.580
   63c3c    H10  391   2.333   2.458   0.426
   63c3c    H11  392   2.402   2.537   0.570
   63c3c    H12  393   2.142   2.554   0.315
   63c3c    H13  394   2.053   2.554   0.469
   63c3c     C7  395   2.051   2.742   0.365
   63c3c    H14  396   2.118   2.800   0.301
   63c3c    H15  397   2.028   2.800   0.454
   63c3c     C8  398   1.922   2.711   0.289
   63c3c    H16  399   1.855   2.654   0.353
   63c3c    H17  400   1.945   2.654   0.200
   63c3c    H18  401   1.873   2.805   0.261
   64c3c      N  402   0.318   2.704   2.163
   64c3c     C1  403   0.465   2.719   2.162
   64c3c     C2  404   0.283   2.561   2.164
   64c3c     C3  405   0.530   2.581   2.161
   64c3c     C4  406   0.412   2.477   2.162
   64c3c     C5  407   0.264   2.768   2.284
   64c3c     C6  408   0.261   2.767   2.044
   64c3c     H1  409   0.496   2.774   2.250
   64c3c     H2  410   0.495   2.773   2.072
   64c3c     H3  411   0.226   2.538   2.253
   64c3c     H4  412   0.224   2.537   2.075
   64c3c     H5  413   0.594   2.568   2.249
   64c3c     H6  414   0.592   2.568   2.072
   64c3c     H7  415   0.417   2.413   2.251
   64c3c     H8  416   0.415   2.413   2.074
   64c3c     H9  417   0.289   2.874   2.283
   64c3c    H10  418   0.155   2.757   2.285
   64c3c    H11  419   0.306   2.720   2.372
   64c3c    H12  420   0.153   2.756   2.045
   64c3c    H13  421   0.287   2.873   2.043
   64c3c     C7  422   0.318   2.701   1.918
   64c3c    H14  423   0.292   2.595   1.919
   64c3c    H15  424   0.426   2.712   1.917
   64c3c     C8  425   0.258   2.767   1.794
   64c3c    H16  426   0.284   2.873   1.793
   64c3c    H17  427   0.150   2.756   1.795
   64c3c    H18  428   0.299   2.720   1.704
   65c3c      N  429   0.887   2.215   2.218
   65c3c     C1  430   0.983   2.155   2.312
   65c3c     C2  431   0.942   2.340   2.165
   65c3c     C3  432   1.107   2.244   2.323
   65c3c     C4  433   1.080   2.365   2.226
   65c3c     C5  434   0.863   2.121   2.107
   65c3c     C6  435   0.761   2.242   2.287
   65c3c     H1  436   1.012   2.056   2.277
   65c3c     H2  437   0.936   2.146   2.410
   65c3c     H3  438   0.952   2.333   2.056
   65c3c     H4  439   0.876   2.423   2.190
   65c3c     H5  440   1.196   2.190   2.293
   65c3c     H6  441   1.121   2.279   2.425
   65c3c     H7  442   1.157   2.371   2.148
   65c3c     H8  443   1.081   2.460   2.281
   65c3c     H9  444   0.822   2.028   2.146
   65c3c    H10  445   0.792   2.165   2.037
   65c3c    H11  446   0.957   2.101   2.055
   65c3c    H12  447   0.690   2.286   2.217
   65c3c    H13  448   0.720   2.149   2.326
   65c3c     C7  449   0.785   2.340   2.402
   65c3c    H14  450   0.826   2.433   2.363
   65c3c    H15  451   0.856   2.296   2.472
   65c3c     C8  452   0.654   2.368   2.474
   65c3c    H16  453   0.613   2.275   2.513
   65c3c    H17  454   0.583   2.412   2.404
   65c3c    H18  455   0.672   2.438   2.556
   66c3c      N  456   0.619   1.245   1.912
   66c3c     C1  457   0.476   1.275   1.894
   66c3c     C2  458   0.640   1.187   2.046
   66c3c     C3  459   0.399   1.236   2.020
   66c3c     C4  460   0.506   1.179   2.120
   66c3c     C5  461   0.662   1.148   1.810
   66c3c     C6  462   0.697   1.368   1.900
   66c3c     H1  463   0.438   1.219   1.809
   66c3c     H2  464   0.464   1.382   1.875
   66c3c     H3  465   0.682   1.087   2.036
   66c3c     H4  466   0.708   1.250   2.103
   66c3c     H5  467   0.323   1.161   1.997
   66c3c     H6  468   0.349   1.323   2.063
   66c3c     H7  469   0.483   1.075   2.146
   66c3c     H8  470   0.509   1.237   2.211
   66c3c     H9  471   0.647   1.191   1.711
   66c3c    H10  472   0.768   1.126   1.824
   66c3c    H11  473   0.604   1.056   1.820
   66c3c    H12  474   0.803   1.346   1.913
   66c3c    H13  475   0.682   1.411   1.801
   66c3c     C7  476   0.653   1.469   2.006
   66c3c    H14  477   0.668   1.426   2.105
   66c3c    H15  478   0.547   1.491   1.992
   66c3c     C8  479   0.734   1.597   1.992
   66c3c    H16  480   0.719   1.640   1.893
   66c3c    H17  481   0.840   1.574   2.006
   66c3c    H18  482   0.702   1.669   2.068
   67c3c      N  483   2.779   0.994   0.908
   67c3c     C1  484   2.708   0.878   0.964
   67c3c     C2  485   2.681   1.093   0.861
   67c3c     C3  486   2.557   0.900   0.954
   67c3c     C4  487   2.539   1.041   0.886
   67c3c     C5  488   2.864   1.055   1.012
   67c3c     C6  489   2.863   0.951   0.796
   67c3c     H1  490   2.736   0.865   1.069
   67c3c     H2  491   2.736   0.788   0.909
   67c3c     H3  492   2.695   1.187   0.915
   67c3c     H4  493   2.695   1.110   0.754
   67c3c     H5  494   2.511   0.898   1.053
   67c3c     H6  495   2.511   0.822   0.893
   67c3c     H7  496   2.484   1.109   0.952
   67c3c     H8  497   2.484   1.032   0.793
   67c3c     H9  498   2.936   0.982   1.047
   67c3c    H10  499   2.916   1.141   0.971
   67c3c    H11  500   2.801   1.087   1.096
   67c3c    H12  501   2.915   1.037   0.754
   67c3c    H13  502   2.936   0.878   0.831
   67c3c     C7  503   2.775   0.888   0.688
   67c3c    H14  504   2.703   0.961   0.652
   67c3c    H15  505   2.723   0.802   0.729
   67c3c     C8  506   2.863   0.843   0.571
   67c3c    H16  507   2.935   0.770   0.605
   67c3c    H17  508   2.915   0.929   0.529
   67c3c    H18  509   2.800   0.798   0.493
   68c3c      N  510   2.391   1.845   2.286
   68c3c     C1  511   2.271   1.765   2.316
   68c3c     C2  512   2.360   1.988   2.298
   68c3c     C3  513   2.155   1.859   2.350
   68c3c     C4  514   2.213   2.005   2.338
   68c3c     C5  515   2.498   1.810   2.381
   68c3c     C6  516   2.436   1.816   2.149
   68c3c     H1  517   2.291   1.700   2.402
   68c3c     H2  518   2.245   1.704   2.230
   68c3c     H3  519   2.423   2.033   2.375
   68c3c     H4  520   2.378   2.037   2.203
   68c3c     H5  521   2.118   1.840   2.451
   68c3c     H6  522   2.073   1.844   2.280
   68c3c     H7  523   2.205   2.057   2.433
   68c3c     H8  524   2.159   2.062   2.263
   68c3c     H9  525   2.522   1.704   2.372
   68c3c    H10  526   2.587   1.869   2.359
   68c3c    H11  527   2.465   1.831   2.483
   68c3c    H12  528   2.525   1.875   2.127
   68c3c    H13  529   2.460   1.710   2.140
   68c3c     C7  530   2.325   1.852   2.051
   68c3c    H14  531   2.302   1.958   2.059
   68c3c    H15  532   2.236   1.793   2.073
   68c3c     C8  533   2.372   1.822   1.908
   68c3c    H16  534   2.395   1.716   1.899
   68c3c    H17  535   2.461   1.881   1.886
   68c3c    H18  536   2.293   1.848   1.838
   69c3c      N  537   1.682   1.260   0.801
   69c3c     C1  538   1.544   1.297   0.836
   69c3c     C2  539   1.772   1.293   0.912
   69c3c     C3  540   1.542   1.357   0.977
   69c3c     C4  541   1.691   1.355   1.026
   69c3c     C5  542   1.689   1.115   0.774
   69c3c     C6  543   1.723   1.334   0.680
   69c3c     H1  544   1.481   1.208   0.834
   69c3c     H2  545   1.506   1.370   0.765
   69c3c     H3  546   1.822   1.203   0.947
   69c3c     H4  547   1.847   1.365   0.878
   69c3c     H5  548   1.479   1.299   1.043
   69c3c     H6  549   1.504   1.459   0.974
   69c3c     H7  550   1.701   1.295   1.117
   69c3c     H8  551   1.727   1.456   1.048
   69c3c     H9  552   1.622   1.091   0.691
   69c3c    H10  553   1.791   1.088   0.747
   69c3c    H11  554   1.658   1.061   0.863
   69c3c    H12  555   1.825   1.306   0.654
   69c3c    H13  556   1.656   1.309   0.598
   69c3c     C7  557   1.716   1.484   0.708
   69c3c    H14  558   1.783   1.509   0.791
   69c3c    H15  559   1.614   1.512   0.735
   69c3c     C8  560   1.759   1.561   0.583
   69c3c    H16  561   1.692   1.537   0.501
   69c3c    H17  562   1.861   1.534   0.557
   69c3c    H18  563   1.754   1.668   0.603
   70c3c      N  564   1.600   0.321   2.072
   70c3c     C1  565   1.523   0.346   1.949
   70c3c     C2  566   1.638   0.449   2.134
   70c3c     C3  567   1.510   0.497   1.928
   70c3c     C4  568   1.586   0.564   2.049
   70c3c     C5  569   1.517   0.244   2.167
   70c3c     C6  570   1.721   0.243   2.040
   70c3c     H1  571   1.424   0.302   1.959
   70c3c     H2  572   1.575   0.302   1.865
   70c3c     H3  573   1.596   0.455   2.234
   70c3c     H4  574   1.747   0.455   2.140
   70c3c     H5  575   1.405   0.527   1.927
   70c3c     H6  576   1.555   0.527   1.833
   70c3c     H7  577   1.518   0.627   2.107
   70c3c     H8  578   1.668   0.627   2.014
   70c3c     H9  579   1.488   0.149   2.121
   70c3c    H10  580   1.574   0.225   2.258
   70c3c    H11  581   1.427   0.301   2.191
   70c3c    H12  582   1.777   0.224   2.131
   70c3c    H13  583   1.692   0.149   1.994
   70c3c     C7  584   1.807   0.323   1.942
   70c3c    H14  585   1.836   0.418   1.987
   70c3c    H15  586   1.750   0.342   1.851
   70c3c     C8  587   1.933   0.243   1.908
   70c3c    H16  588   1.904   0.148   1.862
   70c3c    H17  589   1.989   0.224   1.999
   70c3c    H18  590   1.994   0.300   1.838
   71c3c      N  591   2.252   1.263   0.430
   71c3c     C1  592   2.192   1.377   0.357
   71c3c     C2  593   2.384   1.233   0.373
   71c3c     C3  594   2.288   1.424   0.248
   71c3c     C4  595   2.414   1.330   0.258
   71c3c     C5  596   2.266   1.298   0.572
   71c3c     C6  597   2.165   1.145   0.417
   71c3c     H1  598   2.173   1.458   0.427
   71c3c     H2  599   2.098   1.345   0.312
   71c3c     H3  600   2.461   1.244   0.450
   71c3c     H4  601   2.385   1.131   0.335
   71c3c     H5  602   2.316   1.528   0.264
   71c3c     H6  603   2.242   1.416   0.150
   71c3c     H7  604   2.504   1.388   0.279
   71c3c     H8  605   2.430   1.276   0.165
   71c3c     H9  606   2.168   1.320   0.614
   71c3c    H10  607   2.311   1.214   0.625
   71c3c    H11  608   2.331   1.385   0.582
   71c3c    H12  609   2.210   1.061   0.470
   71c3c    H13  610   2.067   1.167   0.459
   71c3c     C7  611   2.150   1.109   0.269
   71c3c    H14  612   2.248   1.087   0.227
   71c3c    H15  613   2.106   1.193   0.215
   71c3c     C8  614   2.060   0.986   0.255
   71c3c    H16  615   1.962   1.008   0.297
   71c3c    H17  616   2.104   0.902   0.309
   71c3c    H18  617   2.049   0.960   0.150
   72c3c      N  618   1.571   2.784   1.160
   72c3c     C1  619   1.516   2.874   1.057
   72c3c     C2  620   1.549   2.644   1.119
   72c3c     C3  621   1.456   2.791   0.943
   72c3c     C4  622   1.477   2.641   0.984
   72c3c     C5  623   1.715   2.808   1.175
   72c3c     C6  624   1.503   2.809   1.288
   72c3c     H1  625   1.596   2.937   1.018
   72c3c     H2  626   1.439   2.937   1.101
   72c3c     H3  627   1.645   2.593   1.110
   72c3c     H4  628   1.488   2.593   1.194
   72c3c     H5  629   1.506   2.813   0.849
   72c3c     H6  630   1.350   2.813   0.932
   72c3c     H7  631   1.538   2.589   0.910
   72c3c     H8  632   1.382   2.589   0.992
   72c3c     H9  633   1.731   2.912   1.206
   72c3c    H10  634   1.755   2.741   1.252
   72c3c    H11  635   1.765   2.790   1.081
   72c3c    H12  636   1.543   2.742   1.364
   72c3c    H13  637   1.519   2.912   1.318
   72c3c     C7  638   1.353   2.783   1.272
   72c3c    H14  639   1.337   2.679   1.242
   72c3c    H15  640   1.312   2.850   1.196
   72c3c     C8  641   1.282   2.809   1.405
   72c3c    H16  642   1.298   2.912   1.435
   72c3c    H17  643   1.322   2.742   1.481
   72c3c    H18  644   1.175   2.790   1.393
   73c3c      N  645   0.338   2.030   1.355
   73c3c     C1  646   0.228   2.125   1.378
   73c3c     C2  647   0.461   2.104   1.323
   73c3c     C3  648   0.280   2.268   1.361
   73c3c     C4  649   0.432   2.254   1.324
   73c3c     C5  650   0.360   1.949   1.476
   73c3c     C6  651   0.304   1.941   1.243
   73c3c     H1  652   0.190   2.112   1.479
   73c3c     H2  653   0.148   2.106   1.306
   73c3c     H3  654   0.538   2.081   1.397
   73c3c     H4  655   0.496   2.075   1.224
   73c3c     H5  656   0.267   2.325   1.453
   73c3c     H6  657   0.225   2.319   1.281
   73c3c     H7  658   0.494   2.304   1.399
   73c3c     H8  659   0.453   2.299   1.227
   73c3c     H9  660   0.269   1.894   1.500
   73c3c    H10  661   0.441   1.879   1.459
   73c3c    H11  662   0.385   2.015   1.559
   73c3c    H12  663   0.385   1.871   1.226
   73c3c    H13  664   0.213   1.886   1.266
   73c3c     C7  665   0.281   2.025   1.117
   73c3c    H14  666   0.372   2.080   1.093
   73c3c    H15  667   0.200   2.095   1.134
   73c3c     C8  668   0.245   1.933   1.000
   73c3c    H16  669   0.154   1.878   1.024
   73c3c    H17  670   0.327   1.862   0.983
   73c3c    H18  671   0.230   1.992   0.910
   74c3c      N  672   2.404   0.381   0.374
   74c3c     C1  673   2.410   0.236   0.400
   74c3c     C2  674   2.410   0.454   0.501
   74c3c     C3  675   2.421   0.212   0.550
   74c3c     C4  676   2.421   0.355   0.617
   74c3c     C5  677   2.518   0.420   0.289
   74c3c     C6  678   2.278   0.413   0.305
   74c3c     H1  679   2.498   0.194   0.350
   74c3c     H2  680   2.320   0.188   0.362
   74c3c     H3  681   2.497   0.520   0.501
   74c3c     H4  682   2.320   0.514   0.513
   74c3c     H5  683   2.513   0.159   0.575
   74c3c     H6  684   2.336   0.153   0.586
   74c3c     H7  685   2.512   0.371   0.673
   74c3c     H8  686   2.336   0.366   0.685
   74c3c     H9  687   2.513   0.366   0.195
   74c3c    H10  688   2.513   0.528   0.269
   74c3c    H11  689   2.611   0.397   0.340
   74c3c    H12  690   2.274   0.520   0.285
   74c3c    H13  691   2.274   0.359   0.210
   74c3c     C7  692   2.160   0.372   0.392
   74c3c    H14  693   2.164   0.426   0.487
   74c3c    H15  694   2.164   0.265   0.412
   74c3c     C8  695   2.029   0.405   0.320
   74c3c    H16  696   2.025   0.351   0.226
   74c3c    H17  697   2.024   0.512   0.301
   74c3c    H18  698   1.945   0.376   0.383
   75c3c      N  699   0.625   0.719   1.385
   75c3c     C1  700   0.738   0.810   1.359
   75c3c     C2  701   0.649   0.644   1.509
   75c3c     C3  702   0.841   0.795   1.471
   75c3c     C4  703   0.783   0.687   1.569
   75c3c     C5  704   0.501   0.798   1.398
   75c3c     C6  705   0.611   0.625   1.272
   75c3c     H1  706   0.702   0.913   1.357
   75c3c     H2  707   0.784   0.785   1.264
   75c3c     H3  708   0.569   0.665   1.580
   75c3c     H4  709   0.651   0.538   1.487
   75c3c     H5  710   0.856   0.890   1.523
   75c3c     H6  711   0.937   0.763   1.430
   75c3c     H7  712   0.769   0.728   1.669
   75c3c     H8  713   0.850   0.601   1.576
   75c3c     H9  714   0.483   0.853   1.306
   75c3c    H10  715   0.417   0.730   1.417
   75c3c    H11  716   0.511   0.867   1.481
   75c3c    H12  717   0.527   0.558   1.291
   75c3c    H13  718   0.593   0.681   1.180
   75c3c     C7  719   0.740   0.544   1.258
   75c3c    H14  720   0.758   0.488   1.350
   75c3c    H15  721   0.824   0.611   1.240
   75c3c     C8  722   0.726   0.446   1.142
   75c3c    H16  723   0.708   0.502   1.049
   75c3c    H17  724   0.642   0.379   1.160
   75c3c    H18  725   0.817   0.388   1.132
   76c3c      N  726   1.326   0.700   2.775
   76c3c     C1  727   1.318   0.685   2.629
   76c3c     C2  728   1.385   0.831   2.807
   76c3c     C3  729   1.373   0.810   2.561
   76c3c     C4  730   1.417   0.906   2.678
   76c3c     C5  731   1.191   0.691   2.833
   76c3c     C6  732   1.411   0.593   2.830
   76c3c     H1  733   1.214   0.670   2.599
   76c3c     H2  734   1.377   0.598   2.598
   76c3c     H3  735   1.314   0.889   2.866
   76c3c     H4  736   1.476   0.817   2.865
   76c3c     H5  737   1.297   0.857   2.499
   76c3c     H6  738   1.458   0.786   2.497
   76c3c     H7  739   1.362   1.000   2.674
   76c3c     H8  740   1.523   0.928   2.672
   76c3c     H9  741   1.148   0.594   2.809
   76c3c    H10  742   1.198   0.702   2.941
   76c3c    H11  743   1.129   0.770   2.792
   76c3c    H12  744   1.417   0.604   2.939
   76c3c    H13  745   1.368   0.496   2.806
   76c3c     C7  746   1.551   0.603   2.770
   76c3c    H14  747   1.595   0.700   2.794
   76c3c    H15  748   1.545   0.591   2.662
   76c3c     C8  749   1.639   0.492   2.828
   76c3c    H16  750   1.596   0.395   2.804
   76c3c    H17  751   1.645   0.503   2.937
   76c3c    H18  752   1.739   0.499   2.785
   77c3c      N  753   1.102   1.128   2.441
   77c3c     C1  754   1.099   1.033   2.329
   77c3c     C2  755   1.057   1.061   2.564
   77c3c     C3  756   1.049   0.897   2.379
   77c3c     C4  757   1.021   0.915   2.532
   77c3c     C5  758   1.240   1.176   2.460
   77c3c     C6  759   1.014   1.242   2.412
   77c3c     H1  760   1.199   1.021   2.287
   77c3c     H2  761   1.031   1.070   2.252
   77c3c     H3  762   1.136   1.063   2.638
   77c3c     H4  763   0.969   1.112   2.603
   77c3c     H5  764   1.124   0.820   2.362
   77c3c     H6  765   0.957   0.868   2.326
   77c3c     H7  766   1.083   0.847   2.591
   77c3c     H8  767   0.917   0.895   2.556
   77c3c     H9  768   1.274   1.226   2.369
   77c3c    H10  769   1.243   1.246   2.543
   77c3c    H11  770   1.306   1.092   2.482
   77c3c    H12  771   1.017   1.312   2.495
   77c3c    H13  772   1.047   1.291   2.321
   77c3c     C7  773   0.871   1.191   2.393
   77c3c    H14  774   0.837   1.142   2.484
   77c3c    H15  775   0.868   1.121   2.309
   77c3c     C8  776   0.779   1.310   2.362
   77c3c    H16  777   0.812   1.360   2.272
   77c3c    H17  778   0.782   1.380   2.446
   77c3c    H18  779   0.677   1.274   2.349
   78c3c      N  780   2.505   1.111   2.502
   78c3c     C1  781   2.473   1.254   2.516
   78c3c     C2  782   2.387   1.039   2.450
   78c3c     C3  783   2.328   1.279   2.472
   78c3c     C4  784   2.273   1.138   2.428
   78c3c     C5  785   2.617   1.095   2.409
   78c3c     C6  786   2.541   1.056   2.633
   78c3c     H1  787   2.540   1.313   2.454
   78c3c     H2  788   2.484   1.284   2.621
   78c3c     H3  789   2.413   0.992   2.355
   78c3c     H4  790   2.357   0.963   2.521
   78c3c     H5  791   2.325   1.349   2.389
   78c3c     H6  792   2.269   1.320   2.553
   78c3c     H7  793   2.242   1.139   2.324
   78c3c     H8  794   2.186   1.110   2.489
   78c3c     H9  795   2.704   1.148   2.448
   78c3c    H10  796   2.641   0.989   2.398
   78c3c    H11  797   2.590   1.136   2.312
   78c3c    H12  798   2.565   0.950   2.623
   78c3c    H13  799   2.628   1.109   2.672
   78c3c     C7  800   2.424   1.072   2.730
   78c3c    H14  801   2.337   1.019   2.692
   78c3c    H15  802   2.400   1.178   2.741
   78c3c     C8  803   2.462   1.015   2.867
   78c3c    H16  804   2.549   1.068   2.906
   78c3c    H17  805   2.486   0.909   2.856
   78c3c    H18  806   2.379   1.027   2.936
   79c3c      N  807   1.941   0.840   1.695
   79c3c     C1  808   1.819   0.777   1.641
   79c3c     C2  809   1.908   0.908   1.821
   79c3c     C3  810   1.702   0.804   1.735
   79c3c     C4  811   1.760   0.889   1.853
   79c3c     C5  812   2.043   0.738   1.719
   79c3c     C6  813   1.992   0.939   1.598
   79c3c     H1  814   1.835   0.670   1.632
   79c3c     H2  815   1.797   0.819   1.542
   79c3c     H3  816   1.968   0.865   1.902
   79c3c     H4  817   1.931   1.015   1.812
   79c3c     H5  818   1.660   0.710   1.772
   79c3c     H6  819   1.622   0.858   1.683
   79c3c     H7  820   1.747   0.838   1.948
   79c3c     H8  821   1.709   0.986   1.860
   79c3c     H9  822   2.067   0.688   1.625
   79c3c    H10  823   2.133   0.785   1.759
   79c3c    H11  824   2.005   0.665   1.791
   79c3c    H12  825   2.082   0.986   1.638
   79c3c    H13  826   2.016   0.889   1.505
   79c3c     C7  827   1.886   1.046   1.573
   79c3c    H14  828   1.862   1.096   1.667
   79c3c    H15  829   1.796   0.999   1.533
   79c3c     C8  830   1.939   1.148   1.473
   79c3c    H16  831   1.963   1.098   1.379
   79c3c    H17  832   2.029   1.195   1.513
   79c3c    H18  833   1.863   1.225   1.455
   80c3c      N  834   2.546   0.324   1.660
   80c3c     C1  835   2.670   0.371   1.596
   80c3c     C2  836   2.465   0.250   1.562
   80c3c     C3  837   2.672   0.327   1.450
   80c3c     C4  838   2.538   0.248   1.428
   80c3c     C5  839   2.580   0.235   1.773
   80c3c     C6  840   2.470   0.439   1.710
   80c3c     H1  841   2.756   0.328   1.648
   80c3c     H2  842   2.675   0.480   1.602
   80c3c     H3  843   2.450   0.148   1.597
   80c3c     H4  844   2.369   0.299   1.551
   80c3c     H5  845   2.758   0.264   1.430
   80c3c     H6  846   2.677   0.414   1.384
   80c3c     H7  847   2.558   0.146   1.396
   80c3c     H8  848   2.477   0.296   1.350
   80c3c     H9  849   2.640   0.290   1.846
   80c3c    H10  850   2.488   0.200   1.820
   80c3c    H11  851   2.636   0.149   1.736
   80c3c    H12  852   2.378   0.405   1.758
   80c3c    H13  853   2.530   0.494   1.783
   80c3c     C7  854   2.435   0.532   1.594
   80c3c    H14  855   2.375   0.477   1.521
   80c3c    H15  856   2.527   0.567   1.546
   80c3c     C8  857   2.356   0.652   1.646
   80c3c    H16  858   2.416   0.706   1.718
   80c3c    H17  859   2.264   0.617   1.693
   80c3c    H18  860   2.331   0.717   1.562
   81c3c      N  861   0.488   1.406   2.745
   81c3c     C1  862   0.446   1.436   2.882
   81c3c     C2  863   0.411   1.489   2.651
   81c3c     C3  864   0.336   1.542   2.881
   81c3c     C4  865   0.313   1.577   2.729
   81c3c     C5  866   0.632   1.436   2.729
   81c3c     C6  867   0.465   1.264   2.715
   81c3c     H1  868   0.532   1.473   2.940
   81c3c     H2  869   0.408   1.345   2.929
   81c3c     H3  870   0.479   1.553   2.593
   81c3c     H4  871   0.355   1.425   2.583
   81c3c     H5  872   0.368   1.631   2.937
   81c3c     H6  873   0.245   1.504   2.926
   81c3c     H7  874   0.333   1.683   2.711
   81c3c     H8  875   0.210   1.556   2.700
   81c3c     H9  876   0.689   1.375   2.799
   81c3c    H10  877   0.663   1.415   2.627
   81c3c    H11  878   0.649   1.542   2.751
   81c3c    H12  879   0.496   1.243   2.613
   81c3c    H13  880   0.522   1.203   2.784
   81c3c     C7  881   0.316   1.233   2.731
   81c3c    H14  882   0.258   1.294   2.661
   81c3c    H15  883   0.285   1.255   2.833
   81c3c     C8  884   0.291   1.085   2.700
   81c3c    H16  885   0.349   1.024   2.770
   81c3c    H17  886   0.322   1.064   2.598
   81c3c    H18  887   0.185   1.063   2.711
   82c3c      N  888   2.781   2.142   2.382
   82c3c     C1  889   2.871   2.258   2.392
   82c3c     C2  890   2.641   2.188   2.394
   82c3c     C3  891   2.789   2.385   2.411
   82c3c     C4  892   2.638   2.339   2.412
   82c3c     C5  893   2.801   2.076   2.252
   82c3c     C6  894   2.810   2.047   2.490
   82c3c     H1  895   2.930   2.266   2.301
   82c3c     H2  896   2.938   2.245   2.478
   82c3c     H3  897   2.587   2.161   2.303
   82c3c     H4  898   2.595   2.139   2.479
   82c3c     H5  899   2.807   2.456   2.330
   82c3c     H6  900   2.815   2.434   2.505
   82c3c     H7  901   2.583   2.387   2.331
   82c3c     H8  902   2.590   2.366   2.506
   82c3c     H9  903   2.904   2.043   2.244
   82c3c    H10  904   2.734   1.990   2.245
   82c3c    H11  905   2.779   2.147   2.172
   82c3c    H12  906   2.744   1.961   2.483
   82c3c    H13  907   2.914   2.013   2.482
   82c3c     C7  908   2.790   2.116   2.626
   82c3c    H14  909   2.687   2.149   2.634
   82c3c    H15  910   2.857   2.201   2.633
   82c3c     C8  911   2.821   2.017   2.738
   82c3c    H16  912   2.924   1.983   2.730
   82c3c    H17  913   2.754   1.931   2.730
   82c3c    H18  914   2.806   2.066   2.835
   83c3c      N  915   0.612   1.607   1.001
   83c3c     C1  916   0.727   1.518   0.981
   83c3c     C2  917   0.652   1.746   0.973
   83c3c     C3  918   0.848   1.599   0.937
   83c3c     C4  919   0.799   1.749   0.932
   83c3c     C5  920   0.503   1.568   0.911
   83c3c     C6  921   0.567   1.597   1.141
   83c3c     H1  922   0.702   1.444   0.904
   83c3c     H2  923   0.750   1.466   1.074
   83c3c     H3  924   0.591   1.785   0.892
   83c3c     H4  925   0.638   1.807   1.062
   83c3c     H5  926   0.883   1.567   0.839
   83c3c     H6  927   0.930   1.588   1.008
   83c3c     H7  928   0.810   1.790   0.831
   83c3c     H8  929   0.857   1.811   1.000
   83c3c     H9  930   0.473   1.466   0.932
   83c3c    H10  931   0.417   1.635   0.927
   83c3c    H11  932   0.536   1.576   0.808
   83c3c    H12  933   0.481   1.663   1.156
   83c3c    H13  934   0.537   1.494   1.162
   83c3c     C7  935   0.680   1.638   1.235
   83c3c    H14  936   0.710   1.740   1.214
   83c3c    H15  937   0.765   1.571   1.220
   83c3c     C8  938   0.633   1.627   1.380
   83c3c    H16  939   0.603   1.524   1.401
   83c3c    H17  940   0.548   1.693   1.395
   83c3c    H18  941   0.714   1.656   1.447
   84c3c      N  942   0.832   2.734   1.814
   84c3c     C1  943   0.899   2.855   1.864
   84c3c     C2  944   0.930   2.626   1.799
   84c3c     C3  945   1.048   2.827   1.883
   84c3c     C4  946   1.068   2.677   1.840
   84c3c     C5  947   0.728   2.693   1.910
   84c3c     C6  948   0.770   2.763   1.684
   84c3c     H1  949   0.855   2.885   1.959
   84c3c     H2  950   0.886   2.936   1.792
   84c3c     H3  951   0.902   2.542   1.863
   84c3c     H4  952   0.933   2.594   1.695
   84c3c     H5  953   1.077   2.842   1.987
   84c3c     H6  954   1.108   2.894   1.820
   84c3c     H7  955   1.108   2.619   1.923
   84c3c     H8  956   1.138   2.670   1.757
   84c3c     H9  957   0.655   2.773   1.921
   84c3c    H10  958   0.678   2.603   1.873
   84c3c    H11  959   0.774   2.672   2.007
   84c3c    H12  960   0.720   2.673   1.647
   84c3c    H13  961   0.696   2.843   1.695
   84c3c     C7  962   0.877   2.806   1.584
   84c3c    H14  963   0.950   2.725   1.573
   84c3c    H15  964   0.927   2.895   1.621
   84c3c     C8  965   0.813   2.835   1.449
   84c3c    H16  966   0.740   2.915   1.460
   84c3c    H17  967   0.763   2.745   1.412
   84c3c    H18  968   0.890   2.865   1.378
   85c3c      N  969   1.700   2.348   0.350
   85c3c     C1  970   1.597   2.287   0.435
   85c3c     C2  971   1.738   2.254   0.244
   85c3c     C3  972   1.566   2.146   0.385
   85c3c     C4  973   1.658   2.125   0.260
   85c3c     C5  974   1.646   2.471   0.289
   85c3c     C6  975   1.817   2.382   0.431
   85c3c     H1  976   1.506   2.348   0.432
   85c3c     H2  977   1.633   2.282   0.538
   85c3c     H3  978   1.718   2.298   0.147
   85c3c     H4  979   1.845   2.232   0.253
   85c3c     H5  980   1.460   2.138   0.357
   85c3c     H6  981   1.586   2.072   0.462
   85c3c     H7  982   1.599   2.105   0.170
   85c3c     H8  983   1.725   2.039   0.275
   85c3c     H9  984   1.618   2.541   0.367
   85c3c    H10  985   1.723   2.516   0.226
   85c3c    H11  986   1.559   2.446   0.228
   85c3c    H12  987   1.894   2.427   0.368
   85c3c    H13  988   1.789   2.452   0.510
   85c3c     C7  989   1.873   2.254   0.495
   85c3c    H14  990   1.902   2.184   0.417
   85c3c    H15  991   1.797   2.209   0.558
   85c3c     C8  992   1.996   2.289   0.580
   85c3c    H16  993   1.967   2.359   0.658
   85c3c    H17  994   2.072   2.334   0.517
   85c3c    H18  995   2.035   2.198   0.625
   86c3c      N  996   2.708   1.488   0.626
   86c3c     C1  997   2.634   1.520   0.749
   86c3c     C2  998   2.837   1.426   0.661
   86c3c     C3  999   2.717   1.478   0.871
   86c3c     C4 1000   2.850   1.416   0.813
   86c3c     C5 1001   2.630   1.394   0.544
   86c3c     C6 1002   2.732   1.611   0.549
   86c3c     H1 1003   2.539   1.466   0.749
   86c3c     H2 1004   2.615   1.627   0.753
   86c3c     H3 1005   2.843   1.326   0.617
   86c3c     H4 1006   2.918   1.487   0.622
   86c3c     H5 1007   2.663   1.404   0.930
   86c3c     H6 1008   2.738   1.564   0.934
   86c3c     H7 1009   2.861   1.313   0.844
   86c3c     H8 1010   2.936   1.472   0.848
   86c3c     H9 1011   2.534   1.440   0.518
   86c3c    H10 1012   2.685   1.371   0.453
   86c3c    H11 1013   2.612   1.303   0.600
   86c3c    H12 1014   2.787   1.588   0.458
   86c3c    H13 1015   2.637   1.657   0.524
   86c3c     C7 1016   2.814   1.709   0.634
   86c3c    H14 1017   2.909   1.663   0.660
   86c3c    H15 1018   2.759   1.732   0.725
   86c3c     C8 1019   2.839   1.837   0.555
   86c3c    H16 1020   2.743   1.883   0.529
   86c3c    H17 1021   2.894   1.814   0.464
   86c3c    H18 1022   2.897   1.906   0.615
   87c3c      N 1023   0.316   1.906   2.210
   87c3c     C1 1024   0.297   2.038   2.271
   87c3c     C2 1025   0.460   1.877   2.197
   87c3c     C3 1026   0.434   2.100   2.301
   87c3c     C4 1027   0.540   1.995   2.253
   87c3c     C5 1028   0.253   1.803   2.294
   87c3c     C6 1029   0.254   1.905   2.076
   87c3c     H1 1030   0.241   2.027   2.364
   87c3c     H2 1031   0.242   2.102   2.203
   87c3c     H3 1032   0.484   1.787   2.253
   87c3c     H4 1033   0.485   1.862   2.092
   87c3c     H5 1034   0.445   2.120   2.408
   87c3c     H6 1035   0.446   2.194   2.248
   87c3c     H7 1036   0.603   1.963   2.336
   87c3c     H8 1037   0.604   2.037   2.176
   87c3c     H9 1038   0.146   1.824   2.303
   87c3c    H10 1039   0.267   1.705   2.248
   87c3c    H11 1040   0.299   1.804   2.393
   87c3c    H12 1041   0.268   1.806   2.030
   87c3c    H13 1042   0.148   1.926   2.085
   87c3c     C7 1043   0.320   2.011   1.988
   87c3c    H14 1044   0.427   1.990   1.979
   87c3c    H15 1045   0.306   2.109   2.034
   87c3c     C8 1046   0.256   2.010   1.850
   87c3c    H16 1047   0.149   2.031   1.859
   87c3c    H17 1048   0.270   1.912   1.804
   87c3c    H18 1049   0.303   2.086   1.787
   88c3c      N 1050   2.086   2.450   2.337
   88c3c     C1 1051   1.955   2.517   2.333
   88c3c     C2 1052   2.190   2.543   2.290
   88c3c     C3 1053   1.972   2.660   2.282
   88c3c     C4 1054   2.126   2.677   2.254
   88c3c     C5 1055   2.116   2.408   2.475
   88c3c     C6 1056   2.084   2.332   2.249
   88c3c     H1 1057   1.913   2.519   2.433
   88c3c     H2 1058   1.889   2.462   2.266
   88c3c     H3 1059   2.264   2.558   2.369
   88c3c     H4 1060   2.240   2.501   2.202
   88c3c     H5 1061   1.939   2.732   2.357
   88c3c     H6 1062   1.914   2.675   2.191
   88c3c     H7 1063   2.168   2.757   2.315
   88c3c     H8 1064   2.144   2.701   2.149
   88c3c     H9 1065   2.040   2.339   2.509
   88c3c    H10 1066   2.214   2.359   2.477
   88c3c    H11 1067   2.118   2.496   2.539
   88c3c    H12 1068   2.181   2.282   2.252
   88c3c    H13 1069   2.007   2.263   2.284
   88c3c     C7 1070   2.053   2.375   2.106
   88c3c    H14 1071   2.130   2.444   2.071
   88c3c    H15 1072   1.956   2.424   2.103
   88c3c     C8 1073   2.050   2.252   2.015
   88c3c    H16 1074   1.973   2.183   2.050
   88c3c    H17 1075   2.147   2.203   2.018
   88c3c    H18 1076   2.028   2.283   1.913
   89c3c      N 1077   0.915   1.649   0.422
   89c3c     C1 1078   0.785   1.631   0.356
   89c3c     C2 1079   0.988   1.760   0.358
   89c3c     C3 1080   0.770   1.733   0.243
   89c3c     C4 1081   0.903   1.818   0.245
   89c3c     C5 1082   0.893   1.681   0.564
   89c3c     C6 1083   0.994   1.526   0.411
   89c3c     H1 1084   0.705   1.645   0.428
   89c3c     H2 1085   0.779   1.530   0.314
   89c3c     H3 1086   1.008   1.838   0.432
   89c3c     H4 1087   1.082   1.723   0.318
   89c3c     H5 1088   0.684   1.797   0.260
   89c3c     H6 1089   0.757   1.683   0.147
   89c3c     H7 1090   0.882   1.923   0.262
   89c3c     H8 1091   0.955   1.809   0.149
   89c3c     H9 1092   0.840   1.599   0.612
   89c3c    H10 1093   0.990   1.694   0.613
   89c3c    H11 1094   0.835   1.772   0.573
   89c3c    H12 1095   1.090   1.539   0.460
   89c3c    H13 1096   0.940   1.444   0.458
   89c3c     C7 1097   1.016   1.493   0.263
   89c3c    H14 1098   1.070   1.575   0.215
   89c3c    H15 1099   0.920   1.480   0.213
   89c3c     C8 1100   1.099   1.365   0.251
   89c3c    H16 1101   1.045   1.283   0.298
   89c3c    H17 1102   1.195   1.378   0.300
   89c3c    H18 1103   1.115   1.342   0.146
   90c3c      N 1104   2.755   0.877   1.707
   90c3c     C1 1105   2.622   0.813   1.712
   90c3c     C2 1106   2.743   1.018   1.745
   90c3c     C3 1107   2.518   0.916   1.756
   90c3c     C4 1108   2.597   1.051   1.778
   90c3c     C5 1109   2.846   0.808   1.799
   90c3c     C6 1110   2.808   0.868   1.570
   90c3c     H1 1111   2.624   0.731   1.783
   90c3c     H2 1112   2.596   0.775   1.613
   90c3c     H3 1113   2.805   1.037   1.833
   90c3c     H4 1114   2.777   1.082   1.663
   90c3c     H5 1115   2.469   0.885   1.848
   90c3c     H6 1116   2.441   0.929   1.679
   90c3c     H7 1117   2.587   1.085   1.881
   90c3c     H8 1118   2.559   1.129   1.712
   90c3c     H9 1119   2.855   0.703   1.771
   90c3c    H10 1120   2.944   0.855   1.796
   90c3c    H11 1121   2.806   0.815   1.901
   90c3c    H12 1122   2.907   0.915   1.566
   90c3c    H13 1123   2.817   0.763   1.541
   90c3c     C7 1124   2.714   0.940   1.473
   90c3c    H14 1125   2.705   1.044   1.502
   90c3c    H15 1126   2.616   0.893   1.477
   90c3c     C8 1127   2.770   0.930   1.331
   90c3c    H16 1128   2.778   0.826   1.302
   90c3c    H17 1129   2.868   0.977   1.327
   90c3c    H18 1130   2.702   0.981   1.262
   91c3c      N 1131   1.024   1.234   1.620
   91c3c     C1 1132   1.094   1.306   1.513
   91c3c     C2 1133   0.879   1.251   1.604
   91c3c     C3 1134   0.992   1.373   1.421
   91c3c     C4 1135   0.851   1.337   1.481
   91c3c     C5 1136   1.058   1.091   1.614
   91c3c     C6 1137   1.065   1.288   1.751
   91c3c     H1 1138   1.154   1.236   1.455
   91c3c     H2 1139   1.159   1.382   1.557
   91c3c     H3 1140   0.832   1.153   1.591
   91c3c     H4 1141   0.837   1.299   1.692
   91c3c     H5 1142   1.002   1.336   1.319
   91c3c     H6 1143   1.007   1.481   1.420
   91c3c     H7 1144   0.791   1.283   1.408
   91c3c     H8 1145   0.796   1.427   1.509
   91c3c     H9 1146   1.165   1.078   1.626
   91c3c    H10 1147   1.005   1.038   1.693
   91c3c    H11 1148   1.027   1.051   1.517
   91c3c    H12 1149   1.013   1.235   1.831
   91c3c    H13 1150   1.172   1.276   1.763
   91c3c     C7 1151   1.029   1.436   1.758
   91c3c    H14 1152   0.922   1.449   1.746
   91c3c    H15 1153   1.082   1.490   1.679
   91c3c     C8 1154   1.072   1.493   1.894
   91c3c    H16 1155   1.179   1.480   1.906
   91c3c    H17 1156   1.020   1.439   1.973
   91c3c    H18 1157   1.047   1.599   1.899
   92c3c      N 1158   0.312   0.686   1.948
   92c3c     C1 1159   0.458   0.673   1.964
   92c3c     C2 1160   0.284   0.779   1.837
   92c3c     C3 1161   0.529   0.759   1.860
   92c3c     C4 1162   0.415   0.829   1.777
   92c3c     C5 1163   0.254   0.555   1.918
   92c3c     C6 1164   0.254   0.739   2.072
   92c3c     H1 1165   0.486   0.568   1.951
   92c3c     H2 1166   0.486   0.705   2.064
   92c3c     H3 1167   0.227   0.727   1.760
   92c3c     H4 1168   0.227   0.864   1.874
   92c3c     H5 1169   0.592   0.698   1.796
   92c3c     H6 1170   0.592   0.833   1.909
   92c3c     H7 1171   0.423   0.802   1.672
   92c3c     H8 1172   0.423   0.937   1.785
   92c3c     H9 1173   0.274   0.486   2.000
   92c3c    H10 1174   0.146   0.565   1.906
   92c3c    H11 1175   0.297   0.516   1.826
   92c3c    H12 1176   0.146   0.750   2.060
   92c3c    H13 1177   0.275   0.671   2.154
   92c3c     C7 1178   0.314   0.876   2.103
   92c3c    H14 1179   0.294   0.945   2.020
   92c3c    H15 1180   0.422   0.866   2.115
   92c3c     C8 1181   0.253   0.931   2.232
   92c3c    H16 1182   0.274   0.863   2.314
   92c3c    H17 1183   0.146   0.942   2.219
   92c3c    H18 1184   0.297   1.029   2.254
   93c3c      N 1185   2.723   2.137   1.671
   93c3c     C1 1186   2.846   2.212   1.640
   93c3c     C2 1187   2.643   2.211   1.769
   93c3c     C3 1188   2.848   2.341   1.722
   93c3c     C4 1189   2.715   2.341   1.806
   93c3c     C5 1190   2.645   2.119   1.548
   93c3c     C6 1191   2.758   2.005   1.726
   93c3c     H1 1192   2.848   2.236   1.534
   93c3c     H2 1193   2.933   2.151   1.666
   93c3c     H3 1194   2.546   2.235   1.727
   93c3c     H4 1195   2.630   2.150   1.859
   93c3c     H5 1196   2.852   2.428   1.656
   93c3c     H6 1197   2.935   2.345   1.787
   93c3c     H7 1198   2.654   2.428   1.782
   93c3c     H8 1199   2.737   2.344   1.913
   93c3c     H9 1200   2.704   2.063   1.475
   93c3c    H10 1201   2.553   2.063   1.570
   93c3c    H11 1202   2.618   2.216   1.507
   93c3c    H12 1203   2.667   1.949   1.748
   93c3c    H13 1204   2.818   1.950   1.653
   93c3c     C7 1205   2.840   2.024   1.854
   93c3c    H14 1206   2.781   2.079   1.927
   93c3c    H15 1207   2.931   2.079   1.832
   93c3c     C8 1208   2.877   1.887   1.911
   93c3c    H16 1209   2.936   1.831   1.838
   93c3c    H17 1210   2.786   1.831   1.934
   93c3c    H18 1211   2.935   1.900   2.003
   94c3c      N 1212   1.975   0.457   0.827
   94c3c     C1 1213   1.908   0.408   0.705
   94c3c     C2 1214   2.075   0.359   0.871
   94c3c     C3 1215   1.965   0.272   0.667
   94c3c     C4 1216   2.074   0.239   0.776
   94c3c     C5 1217   2.042   0.585   0.798
   94c3c     C6 1218   1.876   0.478   0.933
   94c3c     H1 1219   1.925   0.479   0.624
   94c3c     H2 1220   1.801   0.399   0.724
   94c3c     H3 1221   2.174   0.404   0.871
   94c3c     H4 1222   2.050   0.325   0.972
   94c3c     H5 1223   2.009   0.275   0.568
   94c3c     H6 1224   1.887   0.196   0.667
   94c3c     H7 1225   2.172   0.226   0.729
   94c3c     H8 1226   2.050   0.147   0.829
   94c3c     H9 1227   1.969   0.658   0.765
   94c3c    H10 1228   2.092   0.621   0.888
   94c3c    H11 1229   2.116   0.570   0.719
   94c3c    H12 1230   1.925   0.514   1.023
   94c3c    H13 1231   1.802   0.551   0.900
   94c3c     C7 1232   1.806   0.345   0.964
   94c3c    H14 1233   1.880   0.272   0.996
   94c3c    H15 1234   1.756   0.309   0.874
   94c3c     C8 1235   1.702   0.366   1.074
   94c3c    H16 1236   1.629   0.439   1.041
   94c3c    H17 1237   1.752   0.402   1.164
   94c3c    H18 1238   1.653   0.271   1.096
   95c3c      N 1239   1.677   2.102   2.456
   95c3c     C1 1240   1.705   2.077   2.313
   95c3c     C2 1241   1.786   2.046   2.537
   95c3c     C3 1242   1.837   2.002   2.299
   95c3c     C4 1243   1.891   1.982   2.446
   95c3c     C5 1244   1.668   2.247   2.479
   95c3c     C6 1245   1.551   2.037   2.493
   95c3c     H1 1246   1.711   2.172   2.260
   95c3c     H2 1247   1.625   2.017   2.271
   95c3c     H3 1248   1.833   2.126   2.595
   95c3c     H4 1249   1.747   1.971   2.605
   95c3c     H5 1250   1.908   2.059   2.240
   95c3c     H6 1251   1.822   1.906   2.250
   95c3c     H7 1252   1.988   2.030   2.458
   95c3c     H8 1253   1.902   1.876   2.469
   95c3c     H9 1254   1.587   2.288   2.419
   95c3c    H10 1255   1.647   2.265   2.584
   95c3c    H11 1256   1.762   2.295   2.451
   95c3c    H12 1257   1.530   2.056   2.599
   95c3c    H13 1258   1.470   2.079   2.433
   95c3c     C7 1259   1.561   1.887   2.469
   95c3c    H14 1260   1.642   1.846   2.530
   95c3c    H15 1261   1.581   1.868   2.364
   95c3c     C8 1262   1.429   1.820   2.508
   95c3c    H16 1263   1.348   1.861   2.448
   95c3c    H17 1264   1.408   1.839   2.614
   95c3c    H18 1265   1.436   1.713   2.491
   96c3c      N 1266   0.573   0.355   2.256
   96c3c     C1 1267   0.554   0.231   2.333
   96c3c     C2 1268   0.454   0.439   2.269
   96c3c     C3 1269   0.416   0.233   2.399
   96c3c     C4 1270   0.351   0.369   2.357
   96c3c     C5 1271   0.690   0.427   2.308
   96c3c     C6 1272   0.595   0.322   2.115
   96c3c     H1 1273   0.631   0.223   2.409
   96c3c     H2 1274   0.561   0.145   2.266
   96c3c     H3 1275   0.481   0.535   2.314
   96c3c     H4 1276   0.411   0.457   2.170
   96c3c     H5 1277   0.426   0.226   2.508
   96c3c     H6 1278   0.356   0.149   2.365
   96c3c     H7 1279   0.328   0.430   2.445
   96c3c     H8 1280   0.258   0.352   2.303
   96c3c     H9 1281   0.779   0.364   2.299
   96c3c    H10 1282   0.705   0.519   2.251
   96c3c    H11 1283   0.674   0.451   2.413
   96c3c    H12 1284   0.610   0.414   2.058
   96c3c    H13 1285   0.684   0.259   2.105
   96c3c     C7 1286   0.474   0.247   2.060
   96c3c    H14 1287   0.385   0.309   2.069
   96c3c    H15 1288   0.459   0.155   2.117
   96c3c     C8 1289   0.496   0.213   1.913
   96c3c    H16 1290   0.585   0.150   1.903
   96c3c    H17 1291   0.511   0.304   1.856
   96c3c    H18 1292   0.410   0.159   1.874
   97c3c      N 1293   1.653   1.701   1.733
   97c3c     C1 1294   1.682   1.821   1.654
   97c3c     C2 1295   1.639   1.585   1.642
   97c3c     C3 1296   1.688   1.786   1.506
   97c3c     C4 1297   1.660   1.631   1.498
   97c3c     C5 1298   1.763   1.676   1.827
   97c3c     C6 1299   1.527   1.719   1.807
   97c3c     H1 1300   1.778   1.863   1.686
   97c3c     H2 1301   1.603   1.895   1.671
   97c3c     H3 1302   1.714   1.510   1.667
   97c3c     H4 1303   1.539   1.543   1.653
   97c3c     H5 1304   1.786   1.809   1.464
   97c3c     H6 1305   1.613   1.842   1.450
   97c3c     H7 1306   1.744   1.579   1.452
   97c3c     H8 1307   1.571   1.611   1.438
   97c3c     H9 1308   1.773   1.761   1.894
   97c3c    H10 1309   1.741   1.586   1.885
   97c3c    H11 1310   1.855   1.661   1.772
   97c3c    H12 1311   1.506   1.630   1.865
   97c3c    H13 1312   1.537   1.805   1.874
   97c3c     C7 1313   1.413   1.745   1.709
   97c3c    H14 1314   1.403   1.660   1.642
   97c3c    H15 1315   1.434   1.835   1.651
   97c3c     C8 1316   1.283   1.765   1.786
   97c3c    H16 1317   1.293   1.850   1.854
   97c3c    H17 1318   1.261   1.675   1.845
   97c3c    H18 1319   1.201   1.783   1.717
   98c3c      N 1320   0.811   0.877   0.380
   98c3c     C1 1321   0.851   0.967   0.489
   98c3c     C2 1322   0.847   0.938   0.251
   98c3c     C3 1323   0.915   1.093   0.431
   98c3c     C4 1324   0.913   1.073   0.275
   98c3c     C5 1325   0.881   0.748   0.395
   98c3c     C6 1326   0.666   0.855   0.385
   98c3c     H1 1327   0.922   0.916   0.554
   98c3c     H2 1328   0.762   0.995   0.547
   98c3c     H3 1329   0.916   0.872   0.198
   98c3c     H4 1330   0.757   0.951   0.191
   98c3c     H5 1331   1.018   1.104   0.467
   98c3c     H6 1332   0.859   1.182   0.459
   98c3c     H7 1333   1.014   1.075   0.234
   98c3c     H8 1334   0.856   1.153   0.227
   98c3c     H9 1335   0.854   0.703   0.490
   98c3c    H10 1336   0.852   0.682   0.314
   98c3c    H11 1337   0.989   0.765   0.391
   98c3c    H12 1338   0.637   0.788   0.304
   98c3c    H13 1339   0.639   0.810   0.480
   98c3c     C7 1340   0.593   0.988   0.369
   98c3c    H14 1341   0.620   1.033   0.273
   98c3c    H15 1342   0.622   1.055   0.450
   98c3c     C8 1343   0.442   0.965   0.374
   98c3c    H16 1344   0.415   0.920   0.470
   98c3c    H17 1345   0.413   0.898   0.293
   98c3c    H18 1346   0.390   1.060   0.363
   99c3c      N 1347   2.093   0.621   2.225
   99c3c     C1 1348   2.233   0.664   2.210
   99c3c     C2 1349   2.021   0.718   2.308
   99c3c     C3 1350   2.255   0.794   2.286
   99c3c     C4 1351   2.116   0.830   2.350
   99c3c     C5 1352   2.030   0.613   2.092
   99c3c     C6 1353   2.089   0.489   2.289
   99c3c     H1 1354   2.256   0.679   2.105
   99c3c     H2 1355   2.299   0.587   2.250
   99c3c     H3 1356   1.938   0.761   2.251
   99c3c     H4 1357   1.982   0.668   2.397
   99c3c     H5 1358   2.288   0.873   2.219
   99c3c     H6 1359   2.331   0.782   2.363
   99c3c     H7 1360   2.080   0.927   2.314
   99c3c     H8 1361   2.124   0.835   2.459
   99c3c     H9 1362   2.084   0.541   2.030
   99c3c    H10 1363   1.926   0.581   2.103
   99c3c    H11 1364   2.033   0.711   2.045
   99c3c    H12 1365   1.985   0.457   2.300
   99c3c    H13 1366   2.143   0.417   2.227
   99c3c     C7 1367   2.154   0.497   2.427
   99c3c    H14 1368   2.101   0.569   2.489
   99c3c    H15 1369   2.258   0.528   2.416
   99c3c     C8 1370   2.150   0.359   2.494
   99c3c    H16 1371   2.204   0.287   2.432
   99c3c    H17 1372   2.046   0.327   2.505
   99c3c    H18 1373   2.197   0.365   2.592
  100c3c      N 1374   0.889   0.353   2.676
  100c3c     C1 1375   0.990   0.447   2.728
  100c3c     C2 1376   0.908   0.221   2.739
  100c3c     C3 1377   1.079   0.375   2.829
  100c3c     C4 1378   1.025   0.228   2.836
  100c3c     C5 1379   0.754   0.403   2.707
  100c3c     C6 1380   0.904   0.340   2.530
  100c3c     H1 1381   0.940   0.531   2.776
  100c3c     H2 1382   1.051   0.484   2.645
  100c3c     H3 1383   0.817   0.194   2.793
  100c3c     H4 1384   0.928   0.147   2.662
  100c3c     H5 1385   1.073   0.423   2.926
  100c3c     H6 1386   1.183   0.377   2.796
  100c3c     H7 1387   0.993   0.203   2.937
  100c3c     H8 1388   1.103   0.157   2.807
  100c3c     H9 1389   0.740   0.501   2.661
  100c3c    H10 1390   0.680   0.334   2.669
  100c3c    H11 1391   0.743   0.413   2.815
  100c3c    H12 1392   0.829   0.271   2.492
  100c3c    H13 1393   0.890   0.438   2.483
  100c3c     C7 1394   1.044   0.288   2.497
  100c3c    H14 1395   1.058   0.190   2.544
  100c3c    H15 1396   1.119   0.357   2.536
  100c3c     C8 1397   1.059   0.275   2.346
  100c3c    H16 1398   1.046   0.372   2.299
  100c3c    H17 1399   0.985   0.205   2.308
  100c3c    H18 1400   1.159   0.237   2.323
  101fsi     F1 1401   1.036   1.175   2.057
  101fsi     S1 1402   1.125   1.051   2.019
  101fsi      N 1403   1.050   0.935   2.079
  101fsi     O1 1404   1.129   1.052   1.875
  101fsi     O2 1405   1.252   1.078   2.082
  101fsi     S2 1406   0.946   0.864   1.998
  101fsi     O3 1407   0.897   0.968   1.911
  101fsi     O4 1408   0.853   0.819   2.099
  101fsi     F2 1409   1.028   0.750   1.927
  102fsi     F1 1410   2.396   2.688   0.915
  102fsi     S1 1411   2.280   2.770   0.983
  102fsi      N 1412   2.256   2.696   1.111
  102fsi     O1 1413   2.335   2.903   0.999
  102fsi     O2 1414   2.171   2.763   0.888
  102fsi     S2 1415   2.332   2.733   1.234
  102fsi     O3 1416   2.456   2.783   1.181
  102fsi     O4 1417   2.341   2.608   1.305
  102fsi     F2 1418   2.239   2.842   1.301
  103fsi     F1 1419   2.573   1.446   1.930
  103fsi     S1 1420   2.687   1.470   1.823
  103fsi      N 1421   2.615   1.542   1.713
  103fsi     O1 1422   2.785   1.549   1.893
  103fsi     O2 1423   2.731   1.337   1.789
  103fsi     S2 1424   2.609   1.692   1.714
  103fsi     O3 1425   2.611   1.723   1.855
  103fsi     O4 1426   2.484   1.718   1.647
  103fsi     F2 1427   2.738   1.734   1.634
  104fsi     F1 1428   1.629   0.854   0.994
  104fsi     S1 1429   1.537   0.811   1.114
  104fsi      N 1430   1.573   0.910   1.221
  104fsi     O1 1431   1.403   0.824   1.062
  104fsi     O2 1432   1.578   0.675   1.142
  104fsi     S2 1433   1.497   1.039   1.232
  104fsi     O3 1434   1.458   1.064   1.095
  104fsi     O4 1435   1.596   1.129   1.286
  104fsi     F2 1436   1.378   1.003   1.329
  105fsi     F1 1437   2.834   1.579   2.106
  105fsi     S1 1438   2.714   1.580   2.208
  105fsi      N 1439   2.762   1.490   2.318
  105fsi     O1 1440   2.701   1.718   2.245
  105fsi     O2 1441   2.603   1.528   2.132
  105fsi     S2 1442   2.839   1.546   2.433
  105fsi     O3 1443   2.906   1.660   2.374
  105fsi     O4 1444   2.925   1.437   2.471
  105fsi     F2 1445   2.726   1.582   2.537
  106fsi     F1 1446   2.335   0.770   2.936
  106fsi     S1 1447   2.247   0.724   2.813
  106fsi      N 1448   2.108   0.758   2.857
  106fsi     O1 1449   2.297   0.803   2.703
  106fsi     O2 1450   2.274   0.583   2.802
  106fsi     S2 1451   2.050   0.893   2.826
  106fsi     O3 1452   2.167   0.978   2.825
  106fsi     O4 1453   1.960   0.915   2.936
  106fsi     F2 1454   1.982   0.871   2.686
  107fsi     F1 1455   1.214   1.302   0.775
  107fsi     S1 1456   1.140   1.440   0.759
  107fsi      N 1457   1.253   1.537   0.741
  107fsi     O1 1458   1.057   1.422   0.643
  107fsi     O2 1459   1.067   1.455   0.883
  107fsi     S2 1460   1.304   1.568   0.603
  107fsi     O3 1461   1.279   1.445   0.532
  107fsi     O4 1462   1.443   1.598   0.627
  107fsi     F2 1463   1.215   1.691   0.559
  108fsi     F1 1464   0.473   0.174   2.743
  108fsi     S1 1465   0.361   0.244   2.828
  108fsi      N 1466   0.427   0.372   2.870
  108fsi     O1 1467   0.252   0.260   2.736
  108fsi     O2 1468   0.336   0.151   2.936
  108fsi     S2 1469   0.414   0.495   2.784
  108fsi     O3 1470   0.403   0.439   2.652
  108fsi     O4 1471   0.537   0.565   2.811
  108fsi     F2 1472   0.284   0.564   2.839
  109fsi     F1 1473   2.280   1.929   0.465
  109fsi     S1 1474   2.220   1.912   0.609
  109fsi      N 1475   2.241   1.766   0.638
  109fsi     O1 1476   2.298   2.001   0.692
  109fsi     O2 1477   2.082   1.951   0.594
  109fsi     S2 1478   2.367   1.720   0.704
  109fsi     O3 1479   2.464   1.818   0.659
  109fsi     O4 1480   2.385   1.587   0.650
  109fsi     F2 1481   2.332   1.726   0.857
  110fsi     F1 1482   2.139   2.122   1.757
  110fsi     S1 1483   2.204   2.107   1.614
  110fsi      N 1484   2.099   2.032   1.538
  110fsi     O1 1485   2.225   2.243   1.570
  110fsi     O2 1486   2.325   2.033   1.638
  110fsi     S2 1487   1.992   2.107   1.463
  110fsi     O3 1488   1.978   2.227   1.542
  110fsi     O4 1489   1.881   2.016   1.468
  110fsi     F2 1490   2.057   2.127   1.321
  111fsi     F1 1491   2.319   0.839   1.256
  111fsi     S1 1492   2.279   0.688   1.269
  111fsi      N 1493   2.246   0.649   1.128
  111fsi     O1 1494   2.397   0.624   1.323
  111fsi     O2 1495   2.166   0.689   1.359
  111fsi     S2 1496   2.354   0.595   1.038
  111fsi     O3 1497   2.472   0.660   1.089
  111fsi     O4 1498   2.310   0.639   0.908
  111fsi     F2 1499   2.347   0.440   1.063
  112fsi     F1 1500   1.810   0.923   2.157
  112fsi     S1 1501   1.723   1.053   2.174
  112fsi      N 1502   1.587   1.008   2.128
  112fsi     O1 1503   1.732   1.083   2.315
  112fsi     O2 1504   1.787   1.149   2.088
  112fsi     S2 1505   1.490   0.950   2.226
  112fsi     O3 1506   1.576   0.888   2.323
  112fsi     O4 1507   1.413   0.859   2.144
  112fsi     F2 1508   1.411   1.077   2.277
  113fsi     F1 1509   1.345   0.972   0.822
  113fsi     S1 1510   1.207   0.966   0.897
  113fsi      N 1511   1.133   1.084   0.843
  113fsi     O1 1512   1.152   0.838   0.859
  113fsi     O2 1513   1.242   0.976   1.037
  113fsi     S2 1514   1.048   1.070   0.720
  113fsi     O3 1515   1.115   0.964   0.648
  113fsi     O4 1516   1.057   1.201   0.660
  113fsi     F2 1517   0.907   1.032   0.779
  114fsi     F1 1518   0.164   1.712   0.219
  114fsi     S1 1519   0.213   1.719   0.369
  114fsi      N 1520   0.162   1.591   0.427
  114fsi     O1 1521   0.357   1.728   0.359
  114fsi     O2 1522   0.150   1.839   0.420
  114fsi     S2 1523   0.247   1.468   0.424
  114fsi     O3 1524   0.326   1.487   0.304
  114fsi     O4 1525   0.150   1.362   0.417
  114fsi     F2 1526   0.328   1.477   0.559
  115fsi     F1 1527   0.398   0.804   0.912
  115fsi     S1 1528   0.258   0.877   0.911
  115fsi      N 1529   0.294   1.021   0.890
  115fsi     O1 1530   0.188   0.816   0.800
  115fsi     O2 1531   0.201   0.847   1.041
  115fsi     S2 1532   0.305   1.076   0.752
  115fsi     O3 1533   0.347   0.961   0.675
  115fsi     O4 1534   0.405   1.179   0.766
  115fsi     F2 1535   0.160   1.128   0.722
  116fsi     F1 1536   1.840   1.670   1.178
  116fsi     S1 1537   1.775   1.811   1.154
  116fsi      N 1538   1.749   1.811   1.006
  116fsi     O1 1539   1.656   1.809   1.235
  116fsi     O2 1540   1.875   1.905   1.198
  116fsi     S2 1541   1.619   1.760   0.952
  116fsi     O3 1542   1.582   1.661   1.049
  116fsi     O4 1543   1.657   1.709   0.822
  116fsi     F2 1544   1.529   1.889   0.950
  117fsi     F1 1545   0.152   1.518   2.226
  117fsi     S1 1546   0.231   1.396   2.288
  117fsi      N 1547   0.373   1.428   2.255
  117fsi     O1 1548   0.199   1.402   2.429
  117fsi     O2 1549   0.177   1.281   2.220
  117fsi     S2 1550   0.457   1.509   2.349
  117fsi     O3 1551   0.359   1.593   2.414
  117fsi     O4 1552   0.548   1.577   2.261
  117fsi     F2 1553   0.522   1.399   2.442
  118fsi     F1 1554   1.520   2.799   1.721
  118fsi     S1 1555   1.642   2.854   1.804
  118fsi      N 1556   1.721   2.730   1.835
  118fsi     O1 1557   1.707   2.946   1.713
  118fsi     O2 1558   1.581   2.918   1.918
  118fsi     S2 1559   1.827   2.684   1.741
  118fsi     O3 1560   1.779   2.729   1.613
  118fsi     O4 1561   1.826   2.541   1.760
  118fsi     F2 1562   1.956   2.757   1.793
  119fsi     F1 1563   2.501   1.469   1.095
  119fsi     S1 1564   2.435   1.332   1.052
  119fsi      N 1565   2.512   1.231   1.133
  119fsi     O1 1566   2.297   1.346   1.090
  119fsi     O2 1567   2.458   1.326   0.910
  119fsi     S2 1568   2.464   1.191   1.269
  119fsi     O3 1569   2.398   1.311   1.315
  119fsi     O4 1570   2.587   1.159   1.337
  119fsi     F2 1571   2.369   1.069   1.239
  120fsi     F1 1572   0.754   2.467   1.718
  120fsi     S1 1573   0.725   2.325   1.778
  120fsi      N 1574   0.724   2.236   1.658
  120fsi     O1 1575   0.835   2.302   1.869
  120fsi     O2 1576   0.597   2.339   1.843
  120fsi     S2 1577   0.851   2.172   1.611
  120fsi     O3 1578   0.952   2.267   1.652
  120fsi     O4 1579   0.831   2.161   1.468
  120fsi     F2 1580   0.853   2.035   1.689
  121fsi     F1 1581   2.173   0.985   1.180
  121fsi     S1 1582   2.208   0.955   1.030
  121fsi      N 1583   2.075   0.924   0.969
  121fsi     O1 1584   2.269   1.077   0.983
  121fsi     O2 1585   2.299   0.842   1.037
  121fsi     S2 1586   1.992   1.034   0.910
  121fsi     O3 1587   2.030   1.148   0.989
  121fsi     O4 1588   1.857   0.986   0.931
  121fsi     F2 1589   2.040   1.037   0.760
  122fsi     F1 1590   2.111   1.300   2.402
  122fsi     S1 1591   2.070   1.414   2.302
  122fsi      N 1592   2.194   1.498   2.294
  122fsi     O1 1593   2.038   1.344   2.180
  122fsi     O2 1594   1.958   1.479   2.365
  122fsi     S2 1595   2.299   1.469   2.191
  122fsi     O3 1596   2.286   1.326   2.173
  122fsi     O4 1597   2.421   1.512   2.256
  122fsi     F2 1598   2.254   1.556   2.068
  123fsi     F1 1599   0.722   1.771   2.507
  123fsi     S1 1600   0.802   1.711   2.385
  123fsi      N 1601   0.943   1.709   2.435
  123fsi     O1 1602   0.743   1.581   2.365
  123fsi     O2 1603   0.777   1.805   2.278
  123fsi     S2 1604   0.996   1.588   2.506
  123fsi     O3 1605   0.878   1.535   2.569
  123fsi     O4 1606   1.094   1.644   2.595
  123fsi     F2 1607   1.054   1.501   2.388
  124fsi     F1 1608   1.116   2.711   2.795
  124fsi     S1 1609   1.047   2.573   2.828
  124fsi      N 1610   0.907   2.614   2.867
  124fsi     O1 1611   1.056   2.498   2.705
  124fsi     O2 1612   1.126   2.520   2.936
  124fsi     S2 1613   0.800   2.623   2.762
  124fsi     O3 1614   0.875   2.658   2.644
  124fsi     O4 1615   0.714   2.726   2.814
  124fsi     F2 1616   0.739   2.478   2.762
  125fsi     F1 1617   1.753   1.744   0.396
  125fsi     S1 1618   1.691   1.700   0.259
  125fsi      N 1619   1.623   1.570   0.293
  125fsi     O1 1620   1.601   1.808   0.225
  125fsi     O2 1621   1.804   1.687   0.171
  125fsi     S2 1622   1.480   1.570   0.338
  125fsi     O3 1623   1.468   1.698   0.405
  125fsi     O4 1624   1.475   1.455   0.425
  125fsi     F2 1625   1.400   1.556   0.204
  126fsi     F1 1626   2.132   1.972   1.921
  126fsi     S1 1627   2.010   1.882   1.876
  126fsi      N 1628   1.902   1.922   1.972
  126fsi     O1 1629   1.987   1.921   1.739
  126fsi     O2 1630   2.059   1.747   1.892
  126fsi     S2 1631   1.809   2.035   1.937
  126fsi     O3 1632   1.892   2.120   1.855
  126fsi     O4 1633   1.775   2.088   2.067
  126fsi     F2 1634   1.691   1.962   1.862
  127fsi     F1 1635   1.564   1.941   2.783
  127fsi     S1 1636   1.652   1.832   2.855
  127fsi      N 1637   1.551   1.754   2.934
  127fsi     O1 1638   1.714   1.760   2.747
  127fsi     O2 1639   1.743   1.910   2.936
  127fsi     S2 1640   1.485   1.634   2.871
  127fsi     O3 1641   1.483   1.668   2.731
  127fsi     O4 1642   1.356   1.632   2.936
  127fsi     F2 1643   1.581   1.516   2.911
  128fsi     F1 1644   1.120   1.324   2.772
  128fsi     S1 1645   1.234   1.399   2.851
  128fsi      N 1646   1.297   1.289   2.931
  128fsi     O1 1647   1.318   1.454   2.747
  128fsi     O2 1648   1.164   1.498   2.929
  128fsi     S2 1649   1.411   1.210   2.873
  128fsi     O3 1650   1.384   1.214   2.731
  128fsi     O4 1651   1.395   1.081   2.936
  128fsi     F2 1652   1.538   1.292   2.919
  129fsi     F1 1653   0.274   0.384   1.109
  129fsi     S1 1654   0.390   0.396   1.003
  129fsi      N 1655   0.319   0.378   0.873
  129fsi     O1 1656   0.444   0.528   1.025
  129fsi     O2 1657   0.480   0.289   1.038
  129fsi     S2 1658   0.264   0.497   0.800
  129fsi     O3 1659   0.232   0.588   0.908
  129fsi     O4 1660   0.150   0.442   0.731
  129fsi     F2 1661   0.384   0.541   0.708
  130fsi     F1 1662   2.854   0.322   2.327
  130fsi     S1 1663   2.735   0.343   2.226
  130fsi      N 1664   2.757   0.482   2.175
  130fsi     O1 1665   2.754   0.239   2.127
  130fsi     O2 1666   2.617   0.327   2.307
  130fsi     S2 1667   2.842   0.505   2.053
  130fsi     O3 1668   2.936   0.395   2.059
  130fsi     O4 1669   2.898   0.636   2.078
  130fsi     F2 1670   2.738   0.498   1.935
  131fsi     F1 1671   0.635   1.446   0.171
  131fsi     S1 1672   0.602   1.307   0.239
  131fsi      N 1673   0.670   1.317   0.372
  131fsi     O1 1674   0.458   1.305   0.245
  131fsi     O2 1675   0.659   1.210   0.148
  131fsi     S2 1676   0.597   1.373   0.490
  131fsi     O3 1677   0.505   1.466   0.429
  131fsi     O4 1678   0.703   1.432   0.568
  131fsi     F2 1679   0.530   1.245   0.554
  132fsi     F1 1680   2.396   2.432   2.586
  132fsi     S1 1681   2.401   2.585   2.620
  132fsi      N 1682   2.259   2.615   2.659
  132fsi     O1 1683   2.496   2.594   2.727
  132fsi     O2 1684   2.443   2.648   2.497
  132fsi     S2 1685   2.217   2.602   2.803
  132fsi     O3 1686   2.303   2.497   2.851
  132fsi     O4 1687   2.077   2.566   2.791
  132fsi     F2 1688   2.245   2.745   2.862
  133fsi     F1 1689   1.672   1.380   1.852
  133fsi     S1 1690   1.727   1.252   1.778
  133fsi      N 1691   1.603   1.173   1.751
  133fsi     O1 1692   1.793   1.305   1.661
  133fsi     O2 1693   1.817   1.192   1.875
  133fsi     S2 1694   1.528   1.193   1.622
  133fsi     O3 1695   1.555   1.332   1.592
  133fsi     O4 1696   1.392   1.163   1.660
  133fsi     F2 1697   1.595   1.089   1.525
  134fsi     F1 1698   2.508   1.347   1.744
  134fsi     S1 1699   2.405   1.378   1.630
  134fsi      N 1700   2.434   1.271   1.528
  134fsi     O1 1701   2.276   1.365   1.694
  134fsi     O2 1702   2.438   1.512   1.587
  134fsi     S2 1703   2.363   1.139   1.535
  134fsi     O3 1704   2.337   1.125   1.676
  134fsi     O4 1705   2.460   1.048   1.479
  134fsi     F2 1706   2.236   1.164   1.445
  135fsi     F1 1707   2.664   1.077   2.111
  135fsi     S1 1708   2.685   1.232   2.099
  135fsi      N 1709   2.746   1.269   2.231
  135fsi     O1 1710   2.773   1.247   1.985
  135fsi     O2 1711   2.552   1.284   2.077
  135fsi     S2 1712   2.895   1.267   2.247
  135fsi     O3 1713   2.936   1.164   2.155
  135fsi     O4 1714   2.910   1.234   2.387
  135fsi     F2 1715   2.937   1.413   2.208
  136fsi     F1 1716   0.663   1.987   1.565
  136fsi     S1 1717   0.612   1.887   1.675
  136fsi      N 1718   0.733   1.866   1.762
  136fsi     O1 1719   0.503   1.957   1.739
  136fsi     O2 1720   0.571   1.771   1.600
  136fsi     S2 1721   0.757   1.956   1.879
  136fsi     O3 1722   0.697   2.080   1.837
  136fsi     O4 1723   0.901   1.957   1.889
  136fsi     F2 1724   0.682   1.882   1.996
  137fsi     F1 1725   1.503   2.270   0.870
  137fsi     S1 1726   1.660   2.284   0.871
  137fsi      N 1727   1.707   2.143   0.889
  137fsi     O1 1728   1.690   2.342   0.742
  137fsi     O2 1729   1.687   2.372   0.982
  137fsi     S2 1730   1.732   2.056   0.769
  137fsi     O3 1731   1.638   2.108   0.673
  137fsi     O4 1732   1.702   1.924   0.819
  137fsi     F2 1733   1.884   2.083   0.737
  138fsi     F1 1734   2.216   2.224   2.815
  138fsi     S1 1735   2.338   2.131   2.777
  138fsi      N 1736   2.292   1.996   2.822
  138fsi     O1 1737   2.350   2.146   2.634
  138fsi     O2 1738   2.448   2.186   2.852
  138fsi     S2 1739   2.216   1.907   2.728
  138fsi     O3 1740   2.147   2.001   2.644
  138fsi     O4 1741   2.132   1.830   2.817
  138fsi     F2 1742   2.331   1.825   2.657
  139fsi     F1 1743   0.271   1.706   0.581
  139fsi     S1 1744   0.322   1.847   0.626
  139fsi      N 1745   0.451   1.816   0.696
  139fsi     O1 1746   0.336   1.921   0.503
  139fsi     O2 1747   0.217   1.896   0.713
  139fsi     S2 1748   0.579   1.814   0.618
  139fsi     O3 1749   0.536   1.773   0.487
  139fsi     O4 1750   0.658   1.717   0.691
  139fsi     F2 1751   0.630   1.963   0.629
  140fsi     F1 1752   1.271   1.482   2.337
  140fsi     S1 1753   1.237   1.505   2.185
  140fsi      N 1754   1.369   1.485   2.117
  140fsi     O1 1755   1.138   1.405   2.156
  140fsi     O2 1756   1.186   1.641   2.181
  140fsi     S2 1757   1.409   1.349   2.069
  140fsi     O3 1758   1.342   1.262   2.163
  140fsi     O4 1759   1.552   1.353   2.080
  140fsi     F2 1760   1.352   1.345   1.922
  141fsi     F1 1761   1.387   0.357   1.404
  141fsi     S1 1762   1.253   0.280   1.371
  141fsi      N 1763   1.149   0.362   1.440
  141fsi     O1 1764   1.246   0.282   1.227
  141fsi     O2 1765   1.275   0.149   1.427
  141fsi     S2 1766   1.081   0.474   1.368
  141fsi     O3 1767   1.183   0.518   1.276
  141fsi     O4 1768   1.050   0.566   1.474
  141fsi     F2 1769   0.957   0.404   1.301
  142fsi     F1 1770   2.066   1.766   0.360
  142fsi     S1 1771   1.983   1.900   0.360
  142fsi      N 1772   2.089   2.005   0.370
  142fsi     O1 1773   1.912   1.897   0.234
  142fsi     O2 1774   1.899   1.889   0.476
  142fsi     S2 1775   2.150   2.062   0.245
  142fsi     O3 1776   2.141   1.952   0.152
  142fsi     O4 1777   2.283   2.096   0.287
  142fsi     F2 1778   2.056   2.185   0.213
  143fsi     F1 1779   1.933   0.984   1.137
  143fsi     S1 1780   1.783   0.959   1.178
  143fsi      N 1781   1.767   0.811   1.160
  143fsi     O1 1782   1.775   1.005   1.314
  143fsi     O2 1783   1.707   1.039   1.084
  143fsi     S2 1784   1.796   0.719   1.274
  143fsi     O3 1785   1.897   0.790   1.348
  143fsi     O4 1786   1.841   0.599   1.207
  143fsi     F2 1787   1.656   0.707   1.346
  144fsi     F1 1788   1.735   2.503   2.713
  144fsi     S1 1789   1.698   2.378   2.800
  144fsi      N 1790   1.795   2.273   2.754
  144fsi     O1 1791   1.718   2.423   2.936
  144fsi     O2 1792   1.560   2.352   2.767
  144fsi     S2 1793   1.928   2.259   2.821
  144fsi     O3 1794   1.955   2.394   2.865
  144fsi     O4 1795   2.012   2.211   2.714
  144fsi     F2 1796   1.899   2.155   2.936
  145fsi     F1 1797   1.138   0.806   1.745
  145fsi     S1 1798   1.260   0.713   1.780
  145fsi      N 1799   1.378   0.803   1.764
  145fsi     O1 1800   1.234   0.671   1.916
  145fsi     O2 1801   1.251   0.606   1.683
  145fsi     S2 1802   1.428   0.883   1.880
  145fsi     O3 1803   1.307   0.906   1.957
  145fsi     O4 1804   1.483   1.001   1.817
  145fsi     F2 1805   1.533   0.787   1.947
  146fsi     F1 1806   1.107   2.091   0.763
  146fsi     S1 1807   1.109   1.935   0.741
  146fsi      N 1808   1.245   1.911   0.682
  146fsi     O1 1809   1.090   1.880   0.873
  146fsi     O2 1810   0.999   1.911   0.651
  146fsi     S2 1811   1.361   1.882   0.772
  146fsi     O3 1812   1.327   1.955   0.892
  146fsi     O4 1813   1.472   1.936   0.697
  146fsi     F2 1814   1.358   1.725   0.785
  147fsi     F1 1815   2.717   2.452   0.999
  147fsi     S1 1816   2.799   2.516   1.117
  147fsi      N 1817   2.699   2.520   1.229
  147fsi     O1 1818   2.909   2.425   1.137
  147fsi     O2 1819   2.838   2.646   1.067
  147fsi     S2 1820   2.688   2.403   1.323
  147fsi     O3 1821   2.725   2.292   1.239
  147fsi     O4 1822   2.549   2.408   1.361
  147fsi     F2 1823   2.790   2.439   1.437
  148fsi     F1 1824   2.474   2.802   1.525
  148fsi     S1 1825   2.403   2.671   1.577
  148fsi      N 1826   2.445   2.665   1.721
  148fsi     O1 1827   2.263   2.696   1.556
  148fsi     O2 1828   2.457   2.566   1.494
  148fsi     S2 1829   2.362   2.732   1.826
  148fsi     O3 1830   2.303   2.842   1.754
  148fsi     O4 1831   2.461   2.769   1.925
  148fsi     F2 1832   2.262   2.618   1.870
  149fsi     F1 1833   0.535   1.993   0.400
  149fsi     S1 1834   0.623   2.117   0.363
  149fsi      N 1835   0.687   2.154   0.494
  149fsi     O1 1836   0.715   2.067   0.263
  149fsi     O2 1837   0.529   2.214   0.312
  149fsi     S2 1838   0.818   2.093   0.533
  149fsi     O3 1839   0.814   1.964   0.468
  149fsi     O4 1840   0.810   2.089   0.677
  149fsi     F2 1841   0.923   2.194   0.474
  150fsi     F1 1842   0.275   1.287   1.628
  150fsi     S1 1843   0.273   1.130   1.640
  150fsi      N 1844   0.189   1.088   1.523
  150fsi     O1 1845   0.413   1.093   1.630
  150fsi     O2 1846   0.214   1.105   1.769
  150fsi     S2 1847   0.254   1.061   1.390
  150fsi     O3 1848   0.368   1.149   1.391
  150fsi     O4 1849   0.149   1.096   1.296
  150fsi     F2 1850   0.288   0.907   1.398
  151fsi     F1 1851   1.370   1.540   1.129
  151fsi     S1 1852   1.239   1.526   1.042
  151fsi      N 1853   1.263   1.398   0.967
  151fsi     O1 1854   1.132   1.520   1.138
  151fsi     O2 1855   1.239   1.645   0.960
  151fsi     S2 1856   1.217   1.268   1.025
  151fsi     O3 1857   1.226   1.292   1.167
  151fsi     O4 1858   1.313   1.174   0.972
  151fsi     F2 1859   1.070   1.253   0.969
  152fsi     F1 1860   1.426   1.936   2.131
  152fsi     S1 1861   1.423   2.080   2.066
  152fsi      N 1862   1.325   2.065   1.954
  152fsi     O1 1863   1.380   2.165   2.174
  152fsi     O2 1864   1.560   2.102   2.025
  152fsi     S2 1865   1.180   2.092   1.978
  152fsi     O3 1866   1.163   2.056   2.117
  152fsi     O4 1867   1.115   2.003   1.883
  152fsi     F2 1868   1.166   2.245   1.946
  153fsi     F1 1869   0.312   2.716   1.485
  153fsi     S1 1870   0.273   2.564   1.474
  153fsi      N 1871   0.405   2.495   1.462
  153fsi     O1 1872   0.202   2.538   1.597
  153fsi     O2 1873   0.190   2.557   1.356
  153fsi     S2 1874   0.478   2.450   1.586
  153fsi     O3 1875   0.435   2.546   1.684
  153fsi     O4 1876   0.616   2.460   1.546
  153fsi     F2 1877   0.424   2.304   1.607
  154fsi     F1 1878   2.714   1.501   1.501
  154fsi     S1 1879   2.754   1.348   1.503
  154fsi      N 1880   2.746   1.309   1.359
  154fsi     O1 1881   2.888   1.348   1.558
  154fsi     O2 1882   2.655   1.287   1.589
  154fsi     S2 1883   2.866   1.322   1.270
  154fsi     O3 1884   2.936   1.433   1.329
  154fsi     O4 1885   2.807   1.348   1.141
  154fsi     F2 1886   2.936   1.182   1.285
  155fsi     F1 1887   2.123   1.788   0.822
  155fsi     S1 1888   2.031   1.676   0.761
  155fsi      N 1889   2.128   1.567   0.727
  155fsi     O1 1890   1.939   1.645   0.867
  155fsi     O2 1891   1.970   1.740   0.647
  155fsi     S2 1892   2.160   1.461   0.828
  155fsi     O3 1893   2.143   1.531   0.953
  155fsi     O4 1894   2.296   1.426   0.795
  155fsi     F2 1895   2.052   1.350   0.799
  156fsi     F1 1896   2.556   1.670   0.997
  156fsi     S1 1897   2.635   1.764   1.096
  156fsi      N 1898   2.581   1.724   1.230
  156fsi     O1 1899   2.773   1.730   1.074
  156fsi     O2 1900   2.599   1.897   1.054
  156fsi     S2 1901   2.648   1.615   1.308
  156fsi     O3 1902   2.701   1.530   1.204
  156fsi     O4 1903   2.538   1.559   1.383
  156fsi     F2 1904   2.755   1.692   1.394
  157fsi     F1 1905   2.324   1.634   2.766
  157fsi     S1 1906   2.266   1.511   2.687
  157fsi      N 1907   2.339   1.395   2.749
  157fsi     O1 1908   2.124   1.515   2.714
  157fsi     O2 1909   2.301   1.538   2.550
  157fsi     S2 1910   2.280   1.324   2.867
  157fsi     O3 1911   2.206   1.429   2.933
  157fsi     O4 1912   2.397   1.277   2.937
  157fsi     F2 1913   2.191   1.212   2.802
  158fsi     F1 1914   1.812   2.838   2.539
  158fsi     S1 1915   1.929   2.768   2.618
  158fsi      N 1916   1.927   2.838   2.750
  158fsi     O1 1917   1.891   2.629   2.622
  158fsi     O2 1918   2.046   2.795   2.537
  158fsi     S2 1919   1.843   2.785   2.862
  158fsi     O3 1920   1.734   2.722   2.792
  158fsi     O4 1921   1.809   2.904   2.936
  158fsi     F2 1922   1.941   2.686   2.936
  159fsi     F1 1923   1.689   0.241   0.544
  159fsi     S1 1924   1.642   0.372   0.469
  159fsi      N 1925   1.715   0.364   0.339
  159fsi     O1 1926   1.499   0.357   0.459
  159fsi     O2 1927   1.684   0.479   0.556
  159fsi     S2 1928   1.652   0.294   0.222
  159fsi     O3 1929   1.570   0.194   0.285
  159fsi     O4 1930   1.767   0.244   0.150
  159fsi     F2 1931   1.573   0.410   0.150
  160fsi     F1 1932   2.747   2.639   2.774
  160fsi     S1 1933   2.808   2.509   2.839
  160fsi      N 1934   2.695   2.457   2.922
  160fsi     O1 1935   2.843   2.427   2.726
  160fsi     O2 1936   2.921   2.558   2.914
  160fsi     S2 1937   2.596   2.360   2.863
  160fsi     O3 1938   2.595   2.398   2.724
  160fsi     O4 1939   2.476   2.390   2.936
  160fsi     F2 1940   2.661   2.220   2.894
  161fsi     F1 1941   2.939   0.692   1.372
  161fsi     S1 1942   2.842   0.569   1.386
  161fsi      N 1943   2.706   0.631   1.376
  161fsi     O1 1944   2.877   0.484   1.274
  161fsi     O2 1945   2.874   0.513   1.515
  161fsi     S2 1946   2.640   0.647   1.243
  161fsi     O3 1947   2.752   0.663   1.153
  161fsi     O4 1948   2.559   0.765   1.262
  161fsi     F2 1949   2.559   0.513   1.227
  162fsi     F1 1950   1.165   1.661   1.499
  162fsi     S1 1951   1.297   1.659   1.413
  162fsi      N 1952   1.366   1.534   1.461
  162fsi     O1 1953   1.251   1.654   1.277
  162fsi     O2 1954   1.364   1.781   1.449
  162fsi     S2 1955   1.340   1.403   1.391
  162fsi     O3 1956   1.204   1.419   1.345
  162fsi     O4 1957   1.358   1.307   1.498
  162fsi     F2 1958   1.449   1.400   1.279
  163fsi     F1 1959   1.791   0.150   2.478
  163fsi     S1 1960   1.722   0.292   2.472
  163fsi      N 1961   1.576   0.258   2.475
  163fsi     O1 1962   1.771   0.360   2.589
  163fsi     O2 1963   1.768   0.348   2.347
  163fsi     S2 1964   1.504   0.247   2.607
  163fsi     O3 1965   1.609   0.203   2.696
  163fsi     O4 1966   1.401   0.150   2.579
  163fsi     F2 1967   1.453   0.394   2.631
  164fsi     F1 1968   0.792   2.278   0.788
  164fsi     S1 1969   0.810   2.261   0.944
  164fsi      N 1970   0.689   2.181   0.983
  164fsi     O1 1971   0.935   2.190   0.957
  164fsi     O2 1972   0.813   2.396   0.994
  164fsi     S2 1973   0.693   2.032   0.982
  164fsi     O3 1974   0.789   2.004   0.878
  164fsi     O4 1975   0.557   1.996   0.952
  164fsi     F2 1976   0.741   1.997   1.128
  165fsi     F1 1977   0.168   1.280   1.049
  165fsi     S1 1978   0.318   1.271   1.094
  165fsi      N 1979   0.339   1.399   1.170
  165fsi     O1 1980   0.324   1.151   1.175
  165fsi     O2 1981   0.391   1.262   0.970
  165fsi     S2 1982   0.313   1.403   1.317
  165fsi     O3 1983   0.209   1.304   1.334
  165fsi     O4 1984   0.272   1.540   1.338
  165fsi     F2 1985   0.453   1.365   1.379
  166fsi     F1 1986   0.863   0.753   1.060
  166fsi     S1 1987   0.918   0.703   0.921
  166fsi      N 1988   0.824   0.592   0.886
  166fsi     O1 1989   0.909   0.819   0.835
  166fsi     O2 1990   1.053   0.661   0.949
  166fsi     S2 1991   0.699   0.621   0.807
  166fsi     O3 1992   0.668   0.756   0.847
  166fsi     O4 1993   0.608   0.520   0.854
  166fsi     F2 1994   0.747   0.604   0.658
  167fsi     F1 1995   1.871   0.826   2.502
  167fsi     S1 1996   1.794   0.718   2.587
  167fsi      N 1997   1.662   0.707   2.516
  167fsi     O1 1998   1.878   0.601   2.578
  167fsi     O2 1999   1.786   0.776   2.719
  167fsi     S2 2000   1.645   0.607   2.405
  167fsi     O3 2001   1.778   0.599   2.350
  167fsi     O4 2002   1.547   0.670   2.320
  167fsi     F2 2003   1.596   0.478   2.481
  168fsi     F1 2004   1.520   2.459   2.292
  168fsi     S1 2005   1.515   2.455   2.134
  168fsi      N 2006   1.369   2.471   2.104
  168fsi     O1 2007   1.597   2.567   2.094
  168fsi     O2 2008   1.570   2.326   2.101
  168fsi     S2 2009   1.311   2.608   2.086
  168fsi     O3 2010   1.394   2.689   2.170
  168fsi     O4 2011   1.175   2.590   2.131
  168fsi     F2 2012   1.327   2.633   1.931
  169fsi     F1 2013   2.538   0.212   0.927
  169fsi     S1 2014   2.681   0.244   0.870
  169fsi      N 2015   2.669   0.387   0.827
  169fsi     O1 2016   2.770   0.221   0.981
  169fsi     O2 2017   2.697   0.150   0.761
  169fsi     S2 2018   2.703   0.497   0.924
  169fsi     O3 2019   2.669   0.438   1.051
  169fsi     O4 2020   2.616   0.604   0.881
  169fsi     F2 2021   2.856   0.521   0.899
  170fsi     F1 2022   1.359   0.995   0.238
  170fsi     S1 2023   1.361   1.148   0.276
  170fsi      N 2024   1.485   1.161   0.359
  170fsi     O1 2025   1.367   1.215   0.148
  170fsi     O2 2026   1.238   1.168   0.348
  170fsi     S2 2027   1.616   1.193   0.294
  170fsi     O3 2028   1.602   1.134   0.163
  170fsi     O4 2029   1.711   1.128   0.381
  170fsi     F2 2030   1.620   1.350   0.296
  171fsi     F1 2031   1.421   2.345   2.559
  171fsi     S1 2032   1.310   2.252   2.620
  171fsi      N 2033   1.377   2.194   2.740
  171fsi     O1 2034   1.201   2.343   2.650
  171fsi     O2 2035   1.281   2.158   2.515
  171fsi     S2 2036   1.368   2.263   2.873
  171fsi     O3 2037   1.357   2.402   2.835
  171fsi     O4 2038   1.492   2.226   2.937
  171fsi     F2 2039   1.238   2.201   2.937
  172fsi     F1 2040   2.779   0.979   2.580
  172fsi     S1 2041   2.796   0.823   2.564
  172fsi      N 2042   2.744   0.797   2.426
  172fsi     O1 2043   2.937   0.801   2.581
  172fsi     O2 2044   2.714   0.768   2.670
  172fsi     S2 2045   2.838   0.802   2.309
  172fsi     O3 2046   2.937   0.898   2.352
  172fsi     O4 2047   2.752   0.845   2.201
  172fsi     F2 2048   2.889   0.653   2.299
  173fsi     F1 2049   1.476   2.551   2.503
  173fsi     S1 2050   1.613   2.619   2.466
  173fsi      N 2051   1.573   2.720   2.362
  173fsi     O1 2052   1.659   2.675   2.590
  173fsi     O2 2053   1.694   2.510   2.416
  173fsi     S2 2054   1.535   2.859   2.404
  173fsi     O3 2055   1.479   2.838   2.535
  173fsi     O4 2056   1.440   2.897   2.302
  173fsi     F2 2057   1.672   2.936   2.401
  174fsi     F1 2058   0.630   0.207   0.559
  174fsi     S1 2059   0.570   0.352   0.556
  174fsi      N 2060   0.457   0.341   0.458
  174fsi     O1 2061   0.528   0.375   0.693
  174fsi     O2 2062   0.680   0.435   0.513
  174fsi     S2 2063   0.320   0.303   0.505
  174fsi     O3 2064   0.348   0.220   0.620
  174fsi     O4 2065   0.265   0.234   0.390
  174fsi     F2 2066   0.254   0.442   0.537
  175fsi     F1 2067   1.442   0.729   1.391
  175fsi     S1 2068   1.416   0.574   1.380
  175fsi      N 2069   1.543   0.515   1.436
  175fsi     O1 2070   1.298   0.552   1.460
  175fsi     O2 2071   1.397   0.552   1.239
  175fsi     S2 2072   1.553   0.486   1.583
  175fsi     O3 2073   1.466   0.586   1.641
  175fsi     O4 2074   1.693   0.503   1.609
  175fsi     F2 2075   1.500   0.338   1.593
  176fsi     F1 2076   0.577   0.924   0.956
  176fsi     S1 2077   0.699   1.001   0.892
  176fsi      N 2078   0.660   1.145   0.907
  176fsi     O1 2079   0.812   0.960   0.973
  176fsi     O2 2080   0.703   0.953   0.756
  176fsi     S2 2081   0.698   1.221   1.031
  176fsi     O3 2082   0.701   1.117   1.132
  176fsi     O4 2083   0.591   1.317   1.044
  176fsi     F2 2084   0.838   1.281   0.993
  177fsi     F1 2085   0.253   0.520   0.331
  177fsi     S1 2086   0.370   0.625   0.330
  177fsi      N 2087   0.491   0.543   0.362
  177fsi     O1 2088   0.367   0.679   0.196
  177fsi     O2 2089   0.333   0.720   0.432
  177fsi     S2 2090   0.570   0.479   0.251
  177fsi     O3 2091   0.470   0.457   0.150
  177fsi     O4 2092   0.623   0.361   0.314
  177fsi     F2 2093   0.677   0.590   0.216
  178fsi     F1 2094   1.778   0.614   0.403
  178fsi     S1 2095   1.828   0.757   0.361
  178fsi      N 2096   1.822   0.834   0.489
  178fsi     O1 2097   1.961   0.734   0.310
  178fsi     O2 2098   1.733   0.799   0.260
  178fsi     S2 2099   1.941   0.838   0.580
  178fsi     O3 2100   2.004   0.711   0.554
  178fsi     O4 2101   1.881   0.853   0.710
  178fsi     F2 2102   2.021   0.964   0.528
  179fsi     F1 2103   1.047   2.138   1.501
  179fsi     S1 2104   1.045   1.982   1.523
  179fsi      N 2105   0.902   1.946   1.492
  179fsi     O1 2106   1.141   1.932   1.428
  179fsi     O2 2107   1.083   1.965   1.661
  179fsi     S2 2108   0.862   1.910   1.352
  179fsi     O3 2109   0.954   1.987   1.273
  179fsi     O4 2110   0.724   1.953   1.347
  179fsi     F2 2111   0.884   1.754   1.348
  180fsi     F1 2112   0.785   1.077   2.751
  180fsi     S1 2113   0.876   0.997   2.852
  180fsi      N 2114   0.778   0.907   2.921
  180fsi     O1 2115   0.971   0.929   2.766
  180fsi     O2 2116   0.934   1.099   2.936
  180fsi     S2 2117   0.748   0.771   2.865
  180fsi     O3 2118   0.768   0.790   2.723
  180fsi     O4 2119   0.612   0.749   2.906
  180fsi     F2 2120   0.855   0.679   2.936
  181fsi     F1 2121   1.214   2.640   0.828
  181fsi     S1 2122   1.163   2.556   0.705
  181fsi      N 2123   1.186   2.414   0.749
  181fsi     O1 2124   1.024   2.593   0.691
  181fsi     O2 2125   1.247   2.599   0.596
  181fsi     S2 2126   1.078   2.341   0.823
  181fsi     O3 2127   1.009   2.447   0.892
  181fsi     O4 2128   1.153   2.250   0.907
  181fsi     F2 2129   0.996   2.272   0.707
  182fsi     F1 2130   2.539   2.909   0.887
  182fsi     S1 2131   2.606   2.776   0.838
  182fsi      N 2132   2.740   2.822   0.788
  182fsi     O1 2133   2.612   2.694   0.957
  182fsi     O2 2134   2.517   2.727   0.736
  182fsi     S2 2135   2.857   2.827   0.882
  182fsi     O3 2136   2.795   2.854   1.009
  182fsi     O4 2137   2.936   2.936   0.827
  182fsi     F2 2138   2.921   2.684   0.866
  183fsi     F1 2139   2.541   0.722   2.388
  183fsi     S1 2140   2.583   0.580   2.443
  183fsi      N 2141   2.593   0.603   2.591
  183fsi     O1 2142   2.475   0.494   2.402
  183fsi     O2 2143   2.709   0.553   2.377
  183fsi     S2 2144   2.472   0.583   2.678
  183fsi     O3 2145   2.363   0.615   2.589
  183fsi     O4 2146   2.495   0.677   2.785
  183fsi     F2 2147   2.483   0.431   2.718
  184fsi     F1 2148   2.546   2.257   2.086
  184fsi     S1 2149   2.428   2.343   2.145
  184fsi      N 2150   2.489   2.480   2.156
  184fsi     O1 2151   2.323   2.332   2.048
  184fsi     O2 2152   2.400   2.281   2.272
  184fsi     S2 2153   2.478   2.576   2.041
  184fsi     O3 2154   2.474   2.488   1.927
  184fsi     O4 2155   2.598   2.655   2.054
  184fsi     F2 2156   2.344   2.652   2.071
  185fsi     F1 2157   2.685   1.684   2.770
  185fsi     S1 2158   2.614   1.544   2.767
  185fsi      N 2159   2.724   1.451   2.725
  185fsi     O1 2160   2.567   1.525   2.903
  185fsi     O2 2161   2.508   1.560   2.670
  185fsi     S2 2162   2.810   1.385   2.829
  185fsi     O3 2163   2.810   1.482   2.936
  185fsi     O4 2164   2.936   1.369   2.760
  185fsi     F2 2165   2.733   1.252   2.860
  186fsi     F1 2166   2.524   2.114   0.175
  186fsi     S1 2167   2.487   1.966   0.216
  186fsi      N 2168   2.601   1.886   0.162
  186fsi     O1 2169   2.478   1.970   0.360
  186fsi     O2 2170   2.360   1.943   0.150
  186fsi     S2 2171   2.722   1.861   0.247
  186fsi     O3 2172   2.726   1.978   0.331
  186fsi     O4 2173   2.828   1.851   0.150
  186fsi     F2 2174   2.686   1.726   0.321
  187fsi     F1 2175   2.265   2.477   1.594
  187fsi     S1 2176   2.110   2.450   1.584
  187fsi      N 2177   2.051   2.587   1.602
  187fsi     O1 2178   2.092   2.394   1.453
  187fsi     O2 2179   2.083   2.359   1.693
  187fsi     S2 2180   2.026   2.674   1.483
  187fsi     O3 2181   2.129   2.632   1.391
  187fsi     O4 2182   2.042   2.807   1.537
  187fsi     F2 2183   1.879   2.636   1.441
  188fsi     F1 2184   0.147   1.689   1.747
  188fsi     S1 2185   0.265   1.644   1.652
  188fsi      N 2186   0.381   1.725   1.703
  188fsi     O1 2187   0.276   1.502   1.674
  188fsi     O2 2188   0.219   1.681   1.520
  188fsi     S2 2189   0.470   1.669   1.810
  188fsi     O3 2190   0.379   1.585   1.885
  188fsi     O4 2191   0.514   1.788   1.879
  188fsi     F2 2192   0.581   1.593   1.729
  189fsi     F1 2193   0.683   2.226   1.319
  189fsi     S1 2194   0.740   2.335   1.220
  189fsi      N 2195   0.756   2.455   1.308
  189fsi     O1 2196   0.864   2.278   1.172
  189fsi     O2 2197   0.638   2.347   1.119
  189fsi     S2 2198   0.885   2.478   1.380
  189fsi     O3 2199   0.934   2.344   1.402
  189fsi     O4 2200   0.842   2.549   1.499
  189fsi     F2 2201   0.969   2.564   1.278
  190fsi     F1 2202   2.105   1.147   1.794
  190fsi     S1 2203   2.130   1.182   1.945
  190fsi      N 2204   2.170   1.050   2.005
  190fsi     O1 2205   2.236   1.281   1.941
  190fsi     O2 2206   2.003   1.234   1.991
  190fsi     S2 2207   2.314   1.010   2.008
  190fsi     O3 2208   2.368   1.075   1.891
  190fsi     O4 2209   2.306   0.866   2.000
  190fsi     F2 2210   2.364   1.066   2.146
  191fsi     F1 2211   0.668   1.976   2.562
  191fsi     S1 2212   0.544   1.902   2.624
  191fsi      N 2213   0.606   1.808   2.722
  191fsi     O1 2214   0.465   2.008   2.683
  191fsi     O2 2215   0.481   1.839   2.511
  191fsi     S2 2216   0.629   1.851   2.864
  191fsi     O3 2217   0.650   1.993   2.850
  191fsi     O4 2218   0.746   1.775   2.902
  191fsi     F2 2219   0.495   1.810   2.936
  192fsi     F1 2220   2.438   0.657   0.709
  192fsi     S1 2221   2.498   0.740   0.589
  192fsi      N 2222   2.400   0.716   0.478
  192fsi     O1 2223   2.500   0.876   0.639
  192fsi     O2 2224   2.629   0.683   0.568
  192fsi     S2 2225   2.283   0.807   0.460
  192fsi     O3 2226   2.256   0.851   0.595
  192fsi     O4 2227   2.183   0.720   0.403
  192fsi     F2 2228   2.338   0.918   0.363
  193fsi     F1 2229   1.489   1.439   2.295
  193fsi     S1 2230   1.614   1.521   2.245
  193fsi      N 2231   1.561   1.593   2.124
  193fsi     O1 2232   1.647   1.607   2.356
  193fsi     O2 2233   1.713   1.421   2.216
  193fsi     S2 2234   1.498   1.728   2.138
  193fsi     O3 2235   1.443   1.724   2.272
  193fsi     O4 2236   1.402   1.730   2.031
  193fsi     F2 2237   1.621   1.826   2.120
  194fsi     F1 2238   0.903   0.963   1.213
  194fsi     S1 2239   1.053   0.961   1.163
  194fsi      N 2240   1.128   0.914   1.284
  194fsi     O1 2241   1.051   0.869   1.052
  194fsi     O2 2242   1.078   1.098   1.125
  194fsi     S2 2243   1.151   0.767   1.305
  194fsi     O3 2244   1.036   0.708   1.242
  194fsi     O4 2245   1.156   0.757   1.449
  194fsi     F2 2246   1.288   0.743   1.231
  195fsi     F1 2247   1.777   0.385   1.430
  195fsi     S1 2248   1.826   0.240   1.467
  195fsi      N 2249   1.972   0.243   1.431
  195fsi     O1 2250   1.799   0.229   1.608
  195fsi     O2 2251   1.746   0.154   1.384
  195fsi     S2 2252   2.073   0.286   1.534
  195fsi     O3 2253   1.998   0.378   1.616
  195fsi     O4 2254   2.177   0.345   1.453
  195fsi     F2 2255   2.111   0.150   1.604
  196fsi     F1 2256   2.488   0.328   2.000
  196fsi     S1 2257   2.426   0.409   2.121
  196fsi      N 2258   2.535   0.506   2.156
  196fsi     O1 2259   2.308   0.469   2.065
  196fsi     O2 2260   2.400   0.308   2.221
  196fsi     S2 2261   2.540   0.640   2.090
  196fsi     O3 2262   2.481   0.614   1.961
  196fsi     O4 2263   2.681   0.670   2.089
  196fsi     F2 2264   2.453   0.730   2.186
  197fsi     F1 2265   1.203   2.232   0.624
  197fsi     S1 2266   1.330   2.276   0.543
  197fsi      N 2267   1.283   2.271   0.401
  197fsi     O1 2268   1.359   2.409   0.592
  197fsi     O2 2269   1.430   2.178   0.577
  197fsi     S2 2270   1.221   2.392   0.338
  197fsi     O3 2271   1.160   2.459   0.450
  197fsi     O4 2272   1.129   2.335   0.242
  197fsi     F2 2273   1.345   2.466   0.275
  198fsi     F1 2274   1.926   1.610   2.002
  198fsi     S1 2275   1.947   1.459   1.965
  198fsi      N 2276   1.904   1.453   1.821
  198fsi     O1 2277   2.088   1.437   1.987
  198fsi     O2 2278   1.861   1.388   2.056
  198fsi     S2 2279   2.004   1.476   1.712
  198fsi     O3 2280   2.098   1.566   1.774
  198fsi     O4 2281   1.924   1.533   1.607
  198fsi     F2 2282   2.059   1.331   1.683
  199fsi     F1 2283   0.684   0.754   2.293
  199fsi     S1 2284   0.699   0.825   2.433
  199fsi      N 2285   0.557   0.842   2.478
  199fsi     O1 2286   0.776   0.732   2.511
  199fsi     O2 2287   0.768   0.948   2.403
  199fsi     S2 2288   0.490   0.734   2.558
  199fsi     O3 2289   0.556   0.615   2.511
  199fsi     O4 2290   0.352   0.747   2.520
  199fsi     F2 2291   0.523   0.775   2.707
  200fsi     F1 2292   1.043   2.525   2.487
  200fsi     S1 2293   1.187   2.588   2.479
  200fsi      N 2294   1.165   2.712   2.398
  200fsi     O1 2295   1.223   2.611   2.617
  200fsi     O2 2296   1.266   2.486   2.414
  200fsi     S2 2297   1.132   2.841   2.467
  200fsi     O3 2298   1.061   2.797   2.585
  200fsi     O4 2299   1.051   2.909   2.369
  200fsi     F2 2300   1.273   2.905   2.494
   3.08570   3.08570   3.08570
