simbox
 2300
    1Li      Li    1   1.880   2.031   2.638
    2Li      Li    2   0.550   2.796   2.809
    3Li      Li    3   2.279   0.857   0.893
    4Li      Li    4   1.828   0.600   0.248
    5Li      Li    5   1.790   0.429   2.876
    6Li      Li    6   1.219   0.872   1.474
    7Li      Li    7   1.550   2.653   2.996
    8Li      Li    8   1.383   3.079   0.599
    9Li      Li    9   0.940   1.834   2.218
   10Li      Li   10   2.930   2.260   2.203
   11Li      Li   11   2.467   1.758   2.055
   12Li      Li   12   2.560   0.684   3.000
   13Li      Li   13   0.852   2.781   1.453
   14Li      Li   14   1.757   0.588   1.448
   15Li      Li   15   0.470   2.824   2.222
   16Li      Li   16   1.746   2.487   1.924
   17Li      Li   17   0.232   0.966   2.221
   18Li      Li   18   2.397   2.538   2.317
   19Li      Li   19   0.523   1.853   1.034
   20Li      Li   20   2.656   0.730   0.524
   21Li      Li   21   0.688   1.006   0.467
   22Li      Li   22   2.817   2.821   2.115
   23Li      Li   23   1.722   0.889   1.229
   24Li      Li   24   2.040   2.598   2.939
   25Li      Li   25   1.182   2.098   2.098
   26Li      Li   26   2.269   0.371   0.608
   27Li      Li   27   1.815   2.797   1.284
   28Li      Li   28   0.851   1.566   3.047
   29Li      Li   29   0.995   0.952   2.201
   30Li      Li   30   2.634   1.447   0.688
   31Li      Li   31   2.620   1.228   2.169
   32Li      Li   32   1.186   1.560   0.554
   33Li      Li   33   0.631   1.278   1.634
   34Li      Li   34   1.041   3.056   0.006
   35Li      Li   35   2.688   2.193   0.981
   36Li      Li   36   2.526   0.633   2.270
   37Li      Li   37   1.167   2.795   1.138
   38Li      Li   38   0.473   2.312   0.692
   39Li      Li   39   1.556   1.509   0.059
   40Li      Li   40   0.031   0.616   0.206
   41Li      Li   41   1.526   2.738   2.565
   42Li      Li   42   1.934   1.439   2.328
   43Li      Li   43   0.406   1.012   1.355
   44Li      Li   44   1.411   2.547   1.053
   45Li      Li   45   1.822   1.894   1.954
   46Li      Li   46   2.169   2.885   0.334
   47Li      Li   47   0.656   0.626   1.337
   48Li      Li   48   1.037   1.234   1.535
   49Li      Li   49   1.981   2.904   2.374
   50Li      Li   50   2.030   2.424   1.391
   51c3c      N   51   2.557   2.840   2.680
   51c3c     C1   52   2.593   2.699   2.700
   51c3c     C2   53   2.652   2.917   2.762
   51c3c     C3   54   2.653   2.685   2.840
   51c3c     C4   55   2.705   2.824   2.872
   51c3c     C5   56   2.576   2.876   2.539
   51c3c     C6   57   2.416   2.869   2.711
   51c3c     H1   58   2.673   2.669   2.631
   51c3c     H2   59   2.509   2.631   2.683
   51c3c     H3   60   2.738   2.951   2.704
   51c3c     H4   61   2.607   3.008   2.803
   51c3c     H5   62   2.733   2.611   2.841
   51c3c     H6   63   2.579   2.653   2.913
   51c3c     H7   64   2.814   2.824   2.872
   51c3c     H8   65   2.672   2.856   2.971
   51c3c     H9   66   2.510   2.818   2.473
   51c3c    H10   67   2.555   2.981   2.521
   51c3c    H11   68   2.678   2.858   2.505
   51c3c    H12   69   2.395   2.973   2.688
   51c3c    H13   70   2.352   2.811   2.644
   51c3c     C7   71   2.367   2.844   2.855
   51c3c    H14   72   2.420   2.907   2.926
   51c3c    H15   73   2.384   2.741   2.885
   51c3c     C8   74   2.216   2.871   2.868
   51c3c    H16   75   2.159   2.814   2.795
   51c3c    H17   76   2.193   2.977   2.851
   51c3c    H18   77   2.180   2.845   2.967
   52c3c      N   78   1.672   0.277   1.063
   52c3c     C1   79   1.721   0.387   1.144
   52c3c     C2   80   1.666   0.164   1.155
   52c3c     C3   81   1.821   0.331   1.241
   52c3c     C4   82   1.780   0.185   1.255
   52c3c     C5   83   1.537   0.310   1.015
   52c3c     C6   84   1.756   0.252   0.944
   52c3c     H1   85   1.641   0.425   1.208
   52c3c     H2   86   1.760   0.471   1.087
   52c3c     H3   87   1.573   0.164   1.212
   52c3c     H4   88   1.671   0.067   1.105
   52c3c     H5   89   1.811   0.388   1.333
   52c3c     H6   90   1.924   0.342   1.209
   52c3c     H7   91   1.742   0.163   1.355
   52c3c     H8   92   1.865   0.119   1.237
   52c3c     H9   93   1.538   0.388   0.939
   52c3c    H10   94   1.487   0.223   0.973
   52c3c    H11   95   1.472   0.347   1.094
   52c3c    H12   96   1.710   0.173   0.885
   52c3c    H13   97   1.754   0.343   0.884
   52c3c     C7   98   1.904   0.217   0.961
   52c3c    H14   99   1.918   0.131   1.027
   52c3c    H15  100   1.956   0.303   1.004
   52c3c     C8  101   1.974   0.187   0.829
   52c3c    H16  102   1.975   0.275   0.765
   52c3c    H17  103   1.924   0.106   0.775
   52c3c    H18  104   2.078   0.158   0.845
   53c3c      N  105   2.820   1.293   1.064
   53c3c     C1  106   2.766   1.429   1.079
   53c3c     C2  107   2.704   1.210   1.029
   53c3c     C3  108   2.622   1.412   1.126
   53c3c     C4  109   2.580   1.270   1.094
   53c3c     C5  110   2.916   1.291   0.953
   53c3c     C6  111   2.896   1.243   1.181
   53c3c     H1  112   2.762   1.482   0.984
   53c3c     H2  113   2.825   1.491   1.146
   53c3c     H3  114   2.686   1.214   0.921
   53c3c     H4  115   2.717   1.104   1.049
   53c3c     H5  116   2.553   1.481   1.077
   53c3c     H6  117   2.617   1.429   1.234
   53c3c     H7  118   2.496   1.270   1.025
   53c3c     H8  119   2.549   1.218   1.184
   53c3c     H9  120   3.006   1.348   0.974
   53c3c    H10  121   2.946   1.188   0.932
   53c3c    H11  122   2.873   1.332   0.862
   53c3c    H12  123   2.925   1.140   1.159
   53c3c    H13  124   2.989   1.298   1.192
   53c3c     C7  125   2.826   1.243   1.317
   53c3c    H14  126   2.727   1.197   1.308
   53c3c    H15  127   2.809   1.345   1.353
   53c3c     C8  128   2.905   1.163   1.421
   53c3c    H16  129   2.999   1.212   1.448
   53c3c    H17  130   2.931   1.063   1.384
   53c3c    H18  131   2.848   1.147   1.512
   54c3c      N  132   0.310   1.287   0.510
   54c3c     C1  133   0.395   1.188   0.443
   54c3c     C2  134   0.193   1.218   0.564
   54c3c     C3  135   0.309   1.064   0.416
   54c3c     C4  136   0.182   1.081   0.497
   54c3c     C5  137   0.380   1.345   0.623
   54c3c     C6  138   0.276   1.398   0.419
   54c3c     H1  139   0.478   1.159   0.508
   54c3c     H2  140   0.443   1.227   0.354
   54c3c     H3  141   0.200   1.201   0.671
   54c3c     H4  142   0.103   1.278   0.551
   54c3c     H5  143   0.359   0.973   0.447
   54c3c     H6  144   0.285   1.055   0.310
   54c3c     H7  145   0.174   1.003   0.573
   54c3c     H8  146   0.094   1.074   0.433
   54c3c     H9  147   0.471   1.398   0.596
   54c3c    H10  148   0.312   1.414   0.675
   54c3c    H11  149   0.406   1.270   0.698
   54c3c    H12  150   0.218   1.473   0.473
   54c3c    H13  151   0.368   1.450   0.391
   54c3c     C7  152   0.200   1.358   0.291
   54c3c    H14  153   0.104   1.313   0.316
   54c3c    H15  154   0.256   1.282   0.235
   54c3c     C8  155   0.179   1.478   0.199
   54c3c    H16  156   0.274   1.522   0.170
   54c3c    H17  157   0.120   1.556   0.249
   54c3c    H18  158   0.126   1.448   0.108
   55c3c      N  159   0.815   2.456   0.627
   55c3c     C1  160   0.764   2.405   0.755
   55c3c     C2  161   0.961   2.450   0.636
   55c3c     C3  162   0.868   2.441   0.860
   55c3c     C4  163   0.998   2.445   0.784
   55c3c     C5  164   0.771   2.366   0.520
   55c3c     C6  165   0.768   2.593   0.595
   55c3c     H1  166   0.759   2.296   0.755
   55c3c     H2  167   0.666   2.444   0.782
   55c3c     H3  168   1.001   2.359   0.591
   55c3c     H4  169   1.010   2.533   0.584
   55c3c     H5  170   0.869   2.369   0.942
   55c3c     H6  171   0.847   2.538   0.903
   55c3c     H7  172   1.055   2.353   0.801
   55c3c     H8  173   1.059   2.529   0.817
   55c3c     H9  174   0.663   2.364   0.508
   55c3c    H10  175   0.812   2.396   0.423
   55c3c    H11  176   0.805   2.264   0.536
   55c3c    H12  177   0.808   2.620   0.497
   55c3c    H13  178   0.660   2.591   0.581
   55c3c     C7  179   0.802   2.706   0.694
   55c3c    H14  180   0.909   2.709   0.715
   55c3c    H15  181   0.751   2.690   0.790
   55c3c     C8  182   0.758   2.844   0.644
   55c3c    H16  183   0.651   2.848   0.627
   55c3c    H17  184   0.808   2.870   0.551
   55c3c    H18  185   0.784   2.921   0.717
   56c3c      N  186   1.797   1.984   0.932
   56c3c     C1  187   1.659   1.933   0.929
   56c3c     C2  188   1.786   2.130   0.942
   56c3c     C3  189   1.565   2.053   0.930
   56c3c     C4  190   1.650   2.169   0.885
   56c3c     C5  191   1.870   1.933   1.048
   56c3c     C6  192   1.876   1.945   0.813
   56c3c     H1  193   1.636   1.865   1.011
   56c3c     H2  194   1.640   1.875   0.839
   56c3c     H3  195   1.788   2.161   1.047
   56c3c     H4  196   1.870   2.178   0.892
   56c3c     H5  197   1.533   2.073   1.033
   56c3c     H6  198   1.477   2.039   0.868
   56c3c     H7  199   1.615   2.265   0.923
   56c3c     H8  200   1.649   2.175   0.776
   56c3c     H9  201   1.877   1.824   1.044
   56c3c    H10  202   1.972   1.971   1.054
   56c3c    H11  203   1.822   1.960   1.142
   56c3c    H12  204   1.979   1.976   0.825
   56c3c    H13  205   1.878   1.837   0.804
   56c3c     C7  206   1.825   2.003   0.680
   56c3c    H14  207   1.829   2.112   0.680
   56c3c    H15  208   1.721   1.973   0.664
   56c3c     C8  209   1.907   1.960   0.560
   56c3c    H16  210   1.901   1.851   0.548
   56c3c    H17  211   2.011   1.991   0.572
   56c3c    H18  212   1.870   2.005   0.468
   57c3c      N  213   0.397   0.282   1.683
   57c3c     C1  214   0.426   0.425   1.666
   57c3c     C2  215   0.268   0.255   1.616
   57c3c     C3  216   0.293   0.495   1.643
   57c3c     C4  217   0.195   0.389   1.603
   57c3c     C5  218   0.502   0.205   1.616
   57c3c     C6  219   0.397   0.238   1.824
   57c3c     H1  220   0.487   0.444   1.578
   57c3c     H2  221   0.480   0.468   1.750
   57c3c     H3  222   0.280   0.215   1.516
   57c3c     H4  223   0.206   0.182   1.668
   57c3c     H5  224   0.300   0.571   1.564
   57c3c     H6  225   0.257   0.543   1.734
   57c3c     H7  226   0.163   0.405   1.500
   57c3c     H8  227   0.109   0.396   1.669
   57c3c     H9  228   0.598   0.218   1.666
   57c3c    H10  229   0.479   0.098   1.614
   57c3c    H11  230   0.515   0.235   1.513
   57c3c    H12  231   0.385   0.130   1.828
   57c3c    H13  232   0.494   0.260   1.868
   57c3c     C7  233   0.289   0.299   1.917
   57c3c    H14  234   0.189   0.278   1.880
   57c3c    H15  235   0.299   0.407   1.920
   57c3c     C8  236   0.302   0.243   2.059
   57c3c    H16  237   0.401   0.260   2.100
   57c3c    H17  238   0.283   0.136   2.061
   57c3c    H18  239   0.230   0.291   2.125
   58c3c      N  240   2.796   1.787   0.283
   58c3c     C1  241   2.932   1.824   0.326
   58c3c     C2  242   2.711   1.799   0.402
   58c3c     C3  243   2.942   1.802   0.478
   58c3c     C4  244   2.800   1.777   0.524
   58c3c     C5  245   2.747   1.882   0.182
   58c3c     C6  246   2.791   1.653   0.221
   58c3c     H1  247   2.951   1.930   0.308
   58c3c     H2  248   3.009   1.769   0.273
   58c3c     H3  249   2.669   1.899   0.412
   58c3c     H4  250   2.624   1.734   0.397
   58c3c     H5  251   2.982   1.890   0.527
   58c3c     H6  252   3.005   1.717   0.503
   58c3c     H7  253   2.775   1.846   0.605
   58c3c     H8  254   2.790   1.675   0.563
   58c3c     H9  255   2.807   1.879   0.091
   58c3c    H10  256   2.644   1.861   0.154
   58c3c    H11  257   2.748   1.985   0.219
   58c3c    H12  258   2.693   1.639   0.176
   58c3c    H13  259   2.861   1.650   0.137
   58c3c     C7  260   2.816   1.530   0.310
   58c3c    H14  261   2.743   1.527   0.391
   58c3c    H15  262   2.915   1.533   0.356
   58c3c     C8  263   2.800   1.402   0.229
   58c3c    H16  264   2.870   1.397   0.146
   58c3c    H17  265   2.699   1.395   0.188
   58c3c    H18  266   2.816   1.314   0.292
   59c3c      N  267   0.966   2.495   2.204
   59c3c     C1  268   0.831   2.478   2.259
   59c3c     C2  269   1.057   2.441   2.304
   59c3c     C3  270   0.846   2.477   2.411
   59c3c     C4  271   0.990   2.443   2.441
   59c3c     C5  272   0.983   2.414   2.085
   59c3c     C6  273   1.001   2.633   2.164
   59c3c     H1  274   0.790   2.381   2.231
   59c3c     H2  275   0.760   2.553   2.223
   59c3c     H3  276   1.085   2.337   2.286
   59c3c     H4  277   1.149   2.501   2.302
   59c3c     H5  278   0.781   2.402   2.457
   59c3c     H6  279   0.822   2.575   2.454
   59c3c     H7  280   0.998   2.344   2.487
   59c3c     H8  281   1.035   2.515   2.508
   59c3c     H9  282   0.925   2.449   2.000
   59c3c    H10  283   1.089   2.418   2.056
   59c3c    H11  284   0.959   2.309   2.099
   59c3c    H12  285   1.101   2.632   2.119
   59c3c    H13  286   0.935   2.666   2.083
   59c3c     C7  287   1.002   2.741   2.273
   59c3c    H14  288   1.065   2.711   2.357
   59c3c    H15  289   0.902   2.757   2.312
   59c3c     C8  290   1.057   2.874   2.218
   59c3c    H16  291   0.999   2.910   2.134
   59c3c    H17  292   1.161   2.863   2.185
   59c3c    H18  293   1.056   2.952   2.295
   60c3c      N  294   2.286   0.322   1.108
   60c3c     C1  295   2.314   0.379   1.240
   60c3c     C2  296   2.208   0.202   1.140
   60c3c     C3  297   2.335   0.265   1.337
   60c3c     C4  298   2.258   0.149   1.275
   60c3c     C5  299   2.208   0.419   1.031
   60c3c     C6  300   2.408   0.294   1.028
   60c3c     H1  301   2.235   0.444   1.277
   60c3c     H2  302   2.406   0.437   1.233
   60c3c     H3  303   2.104   0.230   1.157
   60c3c     H4  304   2.209   0.128   1.061
   60c3c     H5  305   2.303   0.290   1.438
   60c3c     H6  306   2.441   0.243   1.344
   60c3c     H7  307   2.175   0.118   1.339
   60c3c     H8  308   2.322   0.062   1.263
   60c3c     H9  309   2.265   0.511   1.015
   60c3c    H10  310   2.179   0.380   0.934
   60c3c    H11  311   2.117   0.450   1.083
   60c3c    H12  312   2.377   0.251   0.933
   60c3c    H13  313   2.456   0.388   1.001
   60c3c     C7  314   2.519   0.205   1.087
   60c3c    H14  315   2.479   0.113   1.132
   60c3c    H15  316   2.572   0.259   1.165
   60c3c     C8  317   2.619   0.160   0.981
   60c3c    H16  318   2.655   0.243   0.921
   60c3c    H17  319   2.575   0.085   0.915
   60c3c    H18  320   2.706   0.113   1.028
   61c3c      N  321   2.152   1.070   1.454
   61c3c     C1  322   2.007   1.060   1.427
   61c3c     C2  323   2.220   0.967   1.374
   61c3c     C3  324   1.983   0.930   1.352
   61c3c     C4  325   2.117   0.860   1.340
   61c3c     C5  326   2.195   1.204   1.413
   61c3c     C6  327   2.192   1.054   1.595
   61c3c     H1  328   1.971   1.141   1.363
   61c3c     H2  329   1.943   1.071   1.515
   61c3c     H3  330   2.260   1.008   1.281
   61c3c     H4  331   2.307   0.922   1.421
   61c3c     H5  332   1.946   0.952   1.252
   61c3c     H6  333   1.911   0.865   1.403
   61c3c     H7  334   2.131   0.821   1.240
   61c3c     H8  335   2.124   0.777   1.410
   61c3c     H9  336   2.143   1.279   1.473
   61c3c    H10  337   2.302   1.221   1.424
   61c3c    H11  338   2.169   1.226   1.309
   61c3c    H12  339   2.298   1.029   1.600
   61c3c    H13  340   2.188   1.149   1.648
   61c3c     C7  341   2.115   0.950   1.677
   61c3c    H14  342   2.115   0.854   1.627
   61c3c    H15  343   2.011   0.978   1.690
   61c3c     C8  344   2.174   0.939   1.817
   61c3c    H16  345   2.184   1.036   1.866
   61c3c    H17  346   2.275   0.896   1.816
   61c3c    H18  347   2.110   0.877   1.879
   62c3c      N  348   2.596   1.244   1.713
   62c3c     C1  349   2.552   1.382   1.702
   62c3c     C2  350   2.500   1.174   1.800
   62c3c     C3  351   2.467   1.412   1.824
   62c3c     C4  352   2.437   1.278   1.890
   62c3c     C5  353   2.589   1.188   1.579
   62c3c     C6  354   2.735   1.235   1.759
   62c3c     H1  355   2.482   1.391   1.619
   62c3c     H2  356   2.630   1.456   1.685
   62c3c     H3  357   2.417   1.129   1.743
   62c3c     H4  358   2.543   1.091   1.856
   62c3c     H5  359   2.376   1.460   1.789
   62c3c     H6  360   2.519   1.479   1.893
   62c3c     H7  361   2.330   1.261   1.902
   62c3c     H8  362   2.479   1.275   1.990
   62c3c     H9  363   2.641   1.251   1.507
   62c3c    H10  364   2.636   1.089   1.576
   62c3c    H11  365   2.487   1.177   1.543
   62c3c    H12  366   2.763   1.129   1.760
   62c3c    H13  367   2.800   1.284   1.687
   62c3c     C7  368   2.762   1.293   1.898
   62c3c    H14  369   2.700   1.241   1.970
   62c3c    H15  370   2.733   1.398   1.904
   62c3c     C8  371   2.909   1.280   1.936
   62c3c    H16  372   2.974   1.339   1.872
   62c3c    H17  373   2.942   1.176   1.930
   62c3c    H18  374   2.925   1.313   2.039
   63c3c      N  375   2.032   2.305   2.177
   63c3c     C1  376   1.989   2.172   2.136
   63c3c     C2  377   2.001   2.394   2.064
   63c3c     C3  378   2.005   2.168   1.984
   63c3c     C4  379   1.977   2.309   1.940
   63c3c     C5  380   1.954   2.355   2.291
   63c3c     C6  381   2.173   2.306   2.218
   63c3c     H1  382   1.885   2.157   2.165
   63c3c     H2  383   2.044   2.092   2.185
   63c3c     H3  384   1.910   2.451   2.082
   63c3c     H4  385   2.080   2.468   2.050
   63c3c     H5  386   1.939   2.098   1.933
   63c3c     H6  387   2.106   2.140   1.953
   63c3c     H7  388   1.873   2.316   1.907
   63c3c     H8  389   2.042   2.335   1.856
   63c3c     H9  390   1.975   2.303   2.384
   63c3c    H10  391   1.977   2.460   2.308
   63c3c    H11  392   1.847   2.348   2.273
   63c3c    H12  393   2.198   2.408   2.247
   63c3c    H13  394   2.182   2.245   2.308
   63c3c     C7  395   2.277   2.254   2.118
   63c3c    H14  396   2.266   2.304   2.021
   63c3c    H15  397   2.262   2.147   2.101
   63c3c     C8  398   2.420   2.273   2.168
   63c3c    H16  399   2.434   2.224   2.264
   63c3c    H17  400   2.446   2.378   2.179
   63c3c    H18  401   2.492   2.228   2.100
   64c3c      N  402   2.564   2.426   1.454
   64c3c     C1  403   2.568   2.280   1.462
   64c3c     C2  404   2.442   2.473   1.523
   64c3c     C3  405   2.432   2.234   1.510
   64c3c     C4  406   2.376   2.351   1.588
   64c3c     C5  407   2.682   2.477   1.524
   64c3c     C6  408   2.569   2.474   1.315
   64c3c     H1  409   2.639   2.246   1.537
   64c3c     H2  410   2.595   2.231   1.369
   64c3c     H3  411   2.465   2.554   1.591
   64c3c     H4  412   2.368   2.519   1.457
   64c3c     H5  413   2.442   2.145   1.573
   64c3c     H6  414   2.368   2.206   1.426
   64c3c     H7  415   2.404   2.344   1.693
   64c3c     H8  416   2.267   2.354   1.581
   64c3c     H9  417   2.774   2.439   1.480
   64c3c    H10  418   2.689   2.586   1.521
   64c3c    H11  419   2.682   2.449   1.629
   64c3c    H12  420   2.576   2.583   1.315
   64c3c    H13  421   2.661   2.439   1.268
   64c3c     C7  422   2.450   2.435   1.225
   64c3c    H14  423   2.356   2.475   1.261
   64c3c    H15  424   2.434   2.327   1.226
   64c3c     C8  425   2.468   2.487   1.083
   64c3c    H16  426   2.546   2.433   1.029
   64c3c    H17  427   2.493   2.593   1.082
   64c3c    H18  428   2.378   2.474   1.024
   65c3c      N  429   2.838   1.782   1.485
   65c3c     C1  430   2.922   1.903   1.480
   65c3c     C2  431   2.697   1.825   1.488
   65c3c     C3  432   2.831   2.021   1.512
   65c3c     C4  433   2.698   1.974   1.459
   65c3c     C5  434   2.862   1.705   1.363
   65c3c     C6  435   2.868   1.693   1.598
   65c3c     H1  436   2.961   1.921   1.380
   65c3c     H2  437   3.009   1.899   1.546
   65c3c     H3  438   2.631   1.771   1.420
   65c3c     H4  439   2.647   1.812   1.584
   65c3c     H5  440   2.863   2.113   1.464
   65c3c     H6  441   2.825   2.038   1.620
   65c3c     H7  442   2.690   1.992   1.351
   65c3c     H8  443   2.615   2.022   1.510
   65c3c     H9  444   2.965   1.670   1.355
   65c3c    H10  445   2.797   1.618   1.358
   65c3c    H11  446   2.843   1.765   1.274
   65c3c    H12  447   2.803   1.606   1.593
   65c3c    H13  448   2.970   1.656   1.588
   65c3c     C7  449   2.855   1.756   1.739
   65c3c    H14  450   2.752   1.784   1.761
   65c3c    H15  451   2.914   1.847   1.748
   65c3c     C8  452   2.899   1.658   1.846
   65c3c    H16  453   3.006   1.635   1.838
   65c3c    H17  454   2.843   1.564   1.837
   65c3c    H18  455   2.881   1.698   1.945
   66c3c      N  456   1.424   2.619   0.580
   66c3c     C1  457   1.508   2.504   0.617
   66c3c     C2  458   1.286   2.576   0.601
   66c3c     C3  459   1.427   2.382   0.583
   66c3c     C4  460   1.283   2.426   0.579
   66c3c     C5  461   1.452   2.730   0.670
   66c3c     C6  462   1.455   2.666   0.443
   66c3c     H1  463   1.529   2.498   0.724
   66c3c     H2  464   1.604   2.502   0.566
   66c3c     H3  465   1.253   2.590   0.704
   66c3c     H4  466   1.214   2.628   0.538
   66c3c     H5  467   1.444   2.304   0.657
   66c3c     H6  468   1.453   2.344   0.484
   66c3c     H7  469   1.228   2.376   0.659
   66c3c     H8  470   1.237   2.399   0.484
   66c3c     H9  471   1.558   2.755   0.674
   66c3c    H10  472   1.395   2.819   0.642
   66c3c    H11  473   1.419   2.706   0.771
   66c3c    H12  474   1.410   2.764   0.429
   66c3c    H13  475   1.562   2.683   0.434
   66c3c     C7  476   1.409   2.578   0.325
   66c3c    H14  477   1.304   2.552   0.331
   66c3c    H15  478   1.463   2.483   0.323
   66c3c     C8  479   1.432   2.649   0.191
   66c3c    H16  480   1.535   2.684   0.184
   66c3c    H17  481   1.366   2.735   0.180
   66c3c    H18  482   1.411   2.580   0.109
   67c3c      N  483   0.404   0.438   2.429
   67c3c     C1  484   0.307   0.332   2.459
   67c3c     C2  485   0.420   0.515   2.554
   67c3c     C3  486   0.217   0.382   2.572
   67c3c     C4  487   0.289   0.503   2.632
   67c3c     C5  488   0.531   0.374   2.396
   67c3c     C6  489   0.364   0.523   2.315
   67c3c     H1  490   0.356   0.242   2.495
   67c3c     H2  491   0.249   0.302   2.371
   67c3c     H3  492   0.500   0.475   2.616
   67c3c     H4  493   0.449   0.619   2.537
   67c3c     H5  494   0.204   0.305   2.648
   67c3c     H6  495   0.119   0.411   2.536
   67c3c     H7  496   0.308   0.490   2.738
   67c3c     H8  497   0.228   0.592   2.620
   67c3c     H9  498   0.526   0.316   2.304
   67c3c    H10  499   0.612   0.447   2.385
   67c3c    H11  500   0.565   0.308   2.476
   67c3c    H12  501   0.441   0.600   2.302
   67c3c    H13  502   0.368   0.465   2.222
   67c3c     C7  503   0.228   0.595   2.322
   67c3c    H14  504   0.227   0.663   2.406
   67c3c    H15  505   0.147   0.523   2.336
   67c3c     C8  506   0.197   0.676   2.195
   67c3c    H16  507   0.185   0.611   2.108
   67c3c    H17  508   0.276   0.747   2.173
   67c3c    H18  509   0.104   0.731   2.206
   68c3c      N  510   0.309   2.773   1.650
   68c3c     C1  511   0.398   2.691   1.568
   68c3c     C2  512   0.267   2.880   1.558
   68c3c     C3  513   0.471   2.783   1.469
   68c3c     C4  514   0.382   2.906   1.459
   68c3c     C5  515   0.194   2.690   1.690
   68c3c     C6  516   0.373   2.821   1.774
   68c3c     H1  517   0.333   2.627   1.507
   68c3c     H2  518   0.463   2.624   1.623
   68c3c     H3  519   0.182   2.847   1.499
   68c3c     H4  520   0.233   2.970   1.610
   68c3c     H5  521   0.482   2.736   1.371
   68c3c     H6  522   0.571   2.809   1.503
   68c3c     H7  523   0.344   2.917   1.357
   68c3c     H8  524   0.439   2.995   1.483
   68c3c     H9  525   0.224   2.603   1.747
   68c3c    H10  526   0.123   2.746   1.751
   68c3c    H11  527   0.137   2.652   1.605
   68c3c    H12  528   0.302   2.885   1.826
   68c3c    H13  529   0.387   2.735   1.839
   68c3c     C7  530   0.510   2.893   1.763
   68c3c    H14  531   0.503   2.978   1.695
   68c3c    H15  532   0.584   2.825   1.722
   68c3c     C8  533   0.563   2.944   1.898
   68c3c    H16  534   0.565   2.864   1.973
   68c3c    H17  535   0.500   3.024   1.937
   68c3c    H18  536   0.664   2.982   1.888
   69c3c      N  537   2.416   2.285   0.501
   69c3c     C1  538   2.557   2.295   0.458
   69c3c     C2  539   2.405   2.169   0.590
   69c3c     C3  540   2.612   2.154   0.464
   69c3c     C4  541   2.542   2.100   0.586
   69c3c     C5  542   2.385   2.407   0.577
   69c3c     C6  543   2.321   2.279   0.388
   69c3c     H1  544   2.614   2.352   0.531
   69c3c     H2  545   2.570   2.344   0.362
   69c3c     H3  546   2.379   2.193   0.693
   69c3c     H4  547   2.325   2.101   0.559
   69c3c     H5  548   2.721   2.153   0.477
   69c3c     H6  549   2.588   2.095   0.376
   69c3c     H7  550   2.602   2.133   0.670
   69c3c     H8  551   2.534   1.991   0.587
   69c3c     H9  552   2.413   2.496   0.521
   69c3c    H10  553   2.279   2.413   0.599
   69c3c    H11  554   2.438   2.410   0.672
   69c3c    H12  555   2.219   2.277   0.427
   69c3c    H13  556   2.329   2.371   0.330
   69c3c     C7  557   2.331   2.161   0.290
   69c3c    H14  558   2.299   2.068   0.338
   69c3c    H15  559   2.432   2.146   0.253
   69c3c     C8  560   2.245   2.184   0.165
   69c3c    H16  561   2.271   2.278   0.117
   69c3c    H17  562   2.139   2.187   0.190
   69c3c    H18  563   2.261   2.105   0.093
   70c3c      N  564   0.492   2.253   1.853
   70c3c     C1  565   0.435   2.240   1.988
   70c3c     C2  566   0.603   2.158   1.848
   70c3c     C3  567   0.541   2.180   2.081
   70c3c     C4  568   0.657   2.146   1.990
   70c3c     C5  569   0.391   2.216   1.753
   70c3c     C6  570   0.535   2.391   1.821
   70c3c     H1  571   0.350   2.172   1.989
   70c3c     H2  572   0.397   2.335   2.026
   70c3c     H3  573   0.569   2.060   1.816
   70c3c     H4  574   0.679   2.185   1.775
   70c3c     H5  575   0.504   2.089   2.128
   70c3c     H6  576   0.572   2.248   2.160
   70c3c     H7  577   0.691   2.044   2.011
   70c3c     H8  578   0.742   2.211   2.008
   70c3c     H9  579   0.305   2.282   1.756
   70c3c    H10  580   0.431   2.218   1.652
   70c3c    H11  581   0.354   2.115   1.769
   70c3c    H12  582   0.572   2.393   1.718
   70c3c    H13  583   0.447   2.456   1.822
   70c3c     C7  584   0.644   2.451   1.910
   70c3c    H14  585   0.738   2.400   1.892
   70c3c    H15  586   0.621   2.439   2.016
   70c3c     C8  587   0.665   2.599   1.882
   70c3c    H16  588   0.575   2.655   1.909
   70c3c    H17  589   0.685   2.616   1.776
   70c3c    H18  590   0.748   2.639   1.940
   71c3c      N  591   1.123   0.285   1.264
   71c3c     C1  592   1.179   0.158   1.313
   71c3c     C2  593   1.222   0.387   1.300
   71c3c     C3  594   1.276   0.194   1.427
   71c3c     C4  595   1.337   0.321   1.375
   71c3c     C5  596   1.109   0.281   1.117
   71c3c     C6  597   0.987   0.310   1.317
   71c3c     H1  598   1.238   0.109   1.235
   71c3c     H2  599   1.102   0.088   1.343
   71c3c     H3  600   1.268   0.431   1.212
   71c3c     H4  601   1.177   0.471   1.355
   71c3c     H5  602   1.353   0.119   1.445
   71c3c     H6  603   1.224   0.212   1.521
   71c3c     H7  604   1.417   0.296   1.305
   71c3c     H8  605   1.383   0.383   1.452
   71c3c     H9  606   1.042   0.202   1.084
   71c3c    H10  607   1.069   0.375   1.079
   71c3c    H11  608   1.205   0.265   1.067
   71c3c    H12  609   0.954   0.409   1.285
   71c3c    H13  610   0.919   0.239   1.269
   71c3c     C7  611   0.964   0.295   1.469
   71c3c    H14  612   1.014   0.376   1.522
   71c3c    H15  613   1.004   0.202   1.508
   71c3c     C8  614   0.816   0.297   1.507
   71c3c    H16  615   0.762   0.212   1.466
   71c3c    H17  616   0.766   0.388   1.474
   71c3c    H18  617   0.804   0.296   1.616
   72c3c      N  618   1.404   0.701   0.301
   72c3c     C1  619   1.389   0.837   0.250
   72c3c     C2  620   1.282   0.630   0.263
   72c3c     C3  621   1.241   0.869   0.242
   72c3c     C4  622   1.171   0.735   0.253
   72c3c     C5  623   1.519   0.640   0.235
   72c3c     C6  624   1.436   0.695   0.445
   72c3c     H1  625   1.429   0.847   0.149
   72c3c     H2  626   1.442   0.910   0.312
   72c3c     H3  627   1.291   0.586   0.163
   72c3c     H4  628   1.256   0.548   0.330
   72c3c     H5  629   1.217   0.920   0.148
   72c3c     H6  630   1.213   0.936   0.323
   72c3c     H7  631   1.105   0.715   0.168
   72c3c     H8  632   1.108   0.732   0.342
   72c3c     H9  633   1.609   0.700   0.250
   72c3c    H10  634   1.540   0.539   0.269
   72c3c    H11  635   1.501   0.634   0.128
   72c3c    H12  636   1.444   0.591   0.474
   72c3c    H13  637   1.534   0.739   0.463
   72c3c     C7  638   1.338   0.762   0.542
   72c3c    H14  639   1.240   0.718   0.525
   72c3c    H15  640   1.329   0.868   0.522
   72c3c     C8  641   1.384   0.738   0.687
   72c3c    H16  642   1.484   0.778   0.704
   72c3c    H17  643   1.385   0.632   0.711
   72c3c    H18  644   1.318   0.785   0.761
   73c3c      N  645   2.722   2.047   2.777
   73c3c     C1  646   2.644   2.171   2.757
   73c3c     C2  647   2.835   2.077   2.867
   73c3c     C3  648   2.718   2.287   2.825
   73c3c     C4  649   2.845   2.228   2.884
   73c3c     C5  650   2.635   1.949   2.843
   73c3c     C6  651   2.765   1.990   2.648
   73c3c     H1  652   2.543   2.165   2.798
   73c3c     H2  653   2.629   2.193   2.652
   73c3c     H3  654   2.821   2.034   2.967
   73c3c     H4  655   2.929   2.035   2.832
   73c3c     H5  656   2.656   2.330   2.904
   73c3c     H6  657   2.741   2.366   2.754
   73c3c     H7  658   2.854   2.256   2.989
   73c3c     H8  659   2.933   2.267   2.834
   73c3c     H9  660   2.550   1.923   2.781
   73c3c    H10  661   2.688   1.856   2.866
   73c3c    H11  662   2.595   1.986   2.937
   73c3c    H12  663   2.814   1.893   2.664
   73c3c    H13  664   2.677   1.967   2.588
   73c3c     C7  665   2.861   2.077   2.562
   73c3c    H14  666   2.953   2.097   2.617
   73c3c    H15  667   2.815   2.173   2.539
   73c3c     C8  668   2.902   2.013   2.429
   73c3c    H16  669   2.817   2.001   2.362
   73c3c    H17  670   2.946   1.914   2.444
   73c3c    H18  671   2.976   2.073   2.376
   74c3c      N  672   0.649   1.188   2.214
   74c3c     C1  673   0.516   1.130   2.227
   74c3c     C2  674   0.631   1.333   2.229
   74c3c     C3  675   0.415   1.233   2.178
   74c3c     C4  676   0.488   1.365   2.190
   74c3c     C5  677   0.733   1.142   2.325
   74c3c     C6  678   0.712   1.149   2.089
   74c3c     H1  679   0.497   1.118   2.334
   74c3c     H2  680   0.507   1.033   2.178
   74c3c     H3  681   0.646   1.366   2.332
   74c3c     H4  682   0.700   1.392   2.170
   74c3c     H5  683   0.326   1.234   2.240
   74c3c     H6  684   0.387   1.217   2.074
   74c3c     H7  685   0.445   1.428   2.267
   74c3c     H8  686   0.484   1.417   2.094
   74c3c     H9  687   0.754   1.035   2.323
   74c3c    H10  688   0.829   1.195   2.323
   74c3c    H11  689   0.690   1.162   2.423
   74c3c    H12  690   0.816   1.182   2.092
   74c3c    H13  691   0.717   1.040   2.082
   74c3c     C7  692   0.657   1.197   1.955
   74c3c    H14  693   0.641   1.305   1.956
   74c3c    H15  694   0.562   1.149   1.932
   74c3c     C8  695   0.761   1.163   1.849
   74c3c    H16  696   0.780   1.056   1.846
   74c3c    H17  697   0.857   1.211   1.868
   74c3c    H18  698   0.733   1.187   1.746
   75c3c      N  699   2.010   0.694   2.368
   75c3c     C1  700   2.096   0.813   2.383
   75c3c     C2  701   2.095   0.575   2.349
   75c3c     C3  702   2.239   0.766   2.360
   75c3c     C4  703   2.236   0.618   2.387
   75c3c     C5  704   1.940   0.674   2.494
   75c3c     C6  705   1.910   0.711   2.262
   75c3c     H1  706   2.089   0.857   2.483
   75c3c     H2  707   2.070   0.895   2.317
   75c3c     H3  708   2.064   0.489   2.409
   75c3c     H4  709   2.096   0.537   2.247
   75c3c     H5  710   2.311   0.814   2.426
   75c3c     H6  711   2.268   0.786   2.257
   75c3c     H7  712   2.256   0.598   2.493
   75c3c     H8  713   2.311   0.568   2.326
   75c3c     H9  714   1.881   0.763   2.518
   75c3c    H10  715   1.871   0.590   2.493
   75c3c    H11  716   2.011   0.656   2.574
   75c3c    H12  717   1.844   0.624   2.259
   75c3c    H13  718   1.845   0.796   2.285
   75c3c     C7  719   1.966   0.734   2.121
   75c3c    H14  720   2.040   0.659   2.093
   75c3c    H15  721   2.015   0.831   2.112
   75c3c     C8  722   1.859   0.721   2.015
   75c3c    H16  723   1.775   0.786   2.041
   75c3c    H17  724   1.823   0.618   2.011
   75c3c    H18  725   1.899   0.745   1.917
   76c3c      N  726   2.243   2.689   1.870
   76c3c     C1  727   2.387   2.671   1.848
   76c3c     C2  728   2.199   2.803   1.787
   76c3c     C3  729   2.440   2.802   1.791
   76c3c     C4  730   2.322   2.854   1.713
   76c3c     C5  731   2.178   2.567   1.824
   76c3c     C6  732   2.216   2.709   2.013
   76c3c     H1  733   2.409   2.590   1.779
   76c3c     H2  734   2.437   2.639   1.940
   76c3c     H3  735   2.123   2.776   1.713
   76c3c     H4  736   2.153   2.884   1.844
   76c3c     H5  737   2.528   2.786   1.729
   76c3c     H6  738   2.469   2.872   1.870
   76c3c     H7  739   2.322   2.810   1.613
   76c3c     H8  740   2.321   2.962   1.701
   76c3c     H9  741   2.217   2.478   1.874
   76c3c    H10  742   2.070   2.571   1.837
   76c3c    H11  743   2.196   2.550   1.717
   76c3c    H12  744   2.109   2.721   2.028
   76c3c    H13  745   2.244   2.619   2.068
   76c3c     C7  746   2.291   2.828   2.078
   76c3c    H14  747   2.277   2.919   2.020
   76c3c    H15  748   2.399   2.812   2.078
   76c3c     C8  749   2.248   2.853   2.222
   76c3c    H16  750   2.269   2.768   2.287
   76c3c    H17  751   2.141   2.875   2.226
   76c3c    H18  752   2.300   2.940   2.262
   77c3c      N  753   0.390   2.310   2.797
   77c3c     C1  754   0.347   2.252   2.668
   77c3c     C2  755   0.326   2.228   2.901
   77c3c     C3  756   0.205   2.200   2.691
   77c3c     C4  757   0.203   2.161   2.839
   77c3c     C5  758   0.535   2.298   2.809
   77c3c     C6  759   0.361   2.454   2.811
   77c3c     H1  760   0.407   2.164   2.643
   77c3c     H2  761   0.355   2.320   2.584
   77c3c     H3  762   0.392   2.149   2.936
   77c3c     H4  763   0.300   2.286   2.989
   77c3c     H5  764   0.180   2.118   2.625
   77c3c     H6  765   0.132   2.278   2.673
   77c3c     H7  766   0.211   2.053   2.850
   77c3c     H8  767   0.110   2.193   2.886
   77c3c     H9  768   0.587   2.349   2.727
   77c3c    H10  769   0.574   2.336   2.903
   77c3c    H11  770   0.565   2.193   2.805
   77c3c    H12  771   0.399   2.487   2.908
   77c3c    H13  772   0.420   2.505   2.735
   77c3c     C7  773   0.217   2.504   2.796
   77c3c    H14  774   0.152   2.455   2.869
   77c3c    H15  775   0.178   2.482   2.697
   77c3c     C8  776   0.208   2.656   2.814
   77c3c    H16  777   0.264   2.709   2.736
   77c3c    H17  778   0.249   2.688   2.911
   77c3c    H18  779   0.105   2.690   2.808
   78c3c      N  780   2.231   1.831   2.626
   78c3c     C1  781   2.211   1.686   2.622
   78c3c     C2  782   2.102   1.890   2.588
   78c3c     C3  783   2.098   1.657   2.522
   78c3c     C4  784   2.009   1.777   2.541
   78c3c     C5  785   2.259   1.874   2.764
   78c3c     C6  786   2.349   1.873   2.545
   78c3c     H1  787   2.175   1.653   2.719
   78c3c     H2  788   2.300   1.627   2.601
   78c3c     H3  789   2.053   1.939   2.672
   78c3c     H4  790   2.113   1.967   2.512
   78c3c     H5  791   2.045   1.565   2.545
   78c3c     H6  792   2.133   1.650   2.419
   78c3c     H7  793   1.934   1.752   2.616
   78c3c     H8  794   1.953   1.803   2.451
   78c3c     H9  795   2.348   1.826   2.805
   78c3c    H10  796   2.271   1.982   2.770
   78c3c    H11  797   2.177   1.850   2.832
   78c3c    H12  798   2.378   1.974   2.572
   78c3c    H13  799   2.434   1.810   2.569
   78c3c     C7  800   2.330   1.873   2.394
   78c3c    H14  801   2.257   1.950   2.369
   78c3c    H15  802   2.296   1.775   2.359
   78c3c     C8  803   2.449   1.914   2.309
   78c3c    H16  804   2.544   1.917   2.363
   78c3c    H17  805   2.433   2.012   2.263
   78c3c    H18  806   2.455   1.845   2.225
   79c3c      N  807   2.311   1.135   0.321
   79c3c     C1  808   2.245   1.194   0.205
   79c3c     C2  809   2.325   1.244   0.419
   79c3c     C3  810   2.283   1.343   0.202
   79c3c     C4  811   2.331   1.376   0.342
   79c3c     C5  812   2.228   1.031   0.380
   79c3c     C6  813   2.436   1.067   0.283
   79c3c     H1  814   2.137   1.185   0.216
   79c3c     H2  815   2.266   1.143   0.111
   79c3c     H3  816   2.237   1.251   0.483
   79c3c     H4  817   2.409   1.231   0.487
   79c3c     H5  818   2.198   1.406   0.175
   79c3c     H6  819   2.362   1.363   0.129
   79c3c     H7  820   2.268   1.452   0.388
   79c3c     H8  821   2.433   1.415   0.338
   79c3c     H9  822   2.206   0.951   0.308
   79c3c    H10  823   2.274   0.986   0.467
   79c3c    H11  824   2.130   1.066   0.414
   79c3c    H12  825   2.477   1.018   0.371
   79c3c    H13  826   2.410   0.986   0.215
   79c3c     C7  827   2.547   1.150   0.217
   79c3c    H14  828   2.572   1.234   0.281
   79c3c    H15  829   2.513   1.191   0.122
   79c3c     C8  830   2.672   1.064   0.193
   79c3c    H16  831   2.655   0.991   0.114
   79c3c    H17  832   2.700   1.010   0.283
   79c3c    H18  833   2.757   1.125   0.163
   80c3c      N  834   1.638   1.039   1.865
   80c3c     C1  835   1.493   1.039   1.849
   80c3c     C2  836   1.689   1.162   1.802
   80c3c     C3  837   1.452   1.183   1.826
   80c3c     C4  838   1.572   1.252   1.769
   80c3c     C5  839   1.666   1.043   2.008
   80c3c     C6  840   1.703   0.919   1.814
   80c3c     H1  841   1.440   1.000   1.936
   80c3c     H2  842   1.459   0.978   1.765
   80c3c     H3  843   1.757   1.218   1.867
   80c3c     H4  844   1.743   1.147   1.709
   80c3c     H5  845   1.422   1.230   1.919
   80c3c     H6  846   1.370   1.187   1.755
   80c3c     H7  847   1.582   1.352   1.813
   80c3c     H8  848   1.564   1.268   1.661
   80c3c     H9  849   1.615   0.965   2.065
   80c3c    H10  850   1.773   1.032   2.029
   80c3c    H11  851   1.634   1.139   2.049
   80c3c    H12  852   1.810   0.927   1.834
   80c3c    H13  853   1.664   0.832   1.867
   80c3c     C7  854   1.686   0.889   1.665
   80c3c    H14  855   1.712   0.975   1.603
   80c3c    H15  856   1.583   0.862   1.641
   80c3c     C8  857   1.776   0.775   1.620
   80c3c    H16  858   1.758   0.683   1.677
   80c3c    H17  859   1.881   0.799   1.630
   80c3c    H18  860   1.753   0.759   1.514
   81c3c      N  861   0.973   0.806   0.793
   81c3c     C1  862   1.057   0.687   0.777
   81c3c     C2  863   0.838   0.757   0.823
   81c3c     C3  864   0.966   0.567   0.754
   81c3c     C4  865   0.842   0.605   0.831
   81c3c     C5  866   1.019   0.885   0.906
   81c3c     C6  867   0.981   0.900   0.680
   81c3c     H1  868   1.116   0.667   0.866
   81c3c     H2  869   1.129   0.695   0.695
   81c3c     H3  870   0.798   0.798   0.916
   81c3c     H4  871   0.769   0.786   0.744
   81c3c     H5  872   1.010   0.475   0.791
   81c3c     H6  873   0.944   0.555   0.648
   81c3c     H7  874   0.851   0.573   0.935
   81c3c     H8  875   0.753   0.560   0.789
   81c3c     H9  876   1.119   0.926   0.894
   81c3c    H10  877   0.955   0.972   0.925
   81c3c    H11  878   1.016   0.826   0.998
   81c3c    H12  879   0.927   0.992   0.704
   81c3c    H13  880   1.085   0.932   0.669
   81c3c     C7  881   0.934   0.852   0.543
   81c3c    H14  882   0.832   0.814   0.545
   81c3c    H15  883   0.997   0.769   0.511
   81c3c     C8  884   0.942   0.968   0.443
   81c3c    H16  885   1.044   1.006   0.433
   81c3c    H17  886   0.883   1.054   0.475
   81c3c    H18  887   0.908   0.939   0.343
   82c3c      N  888   1.234   0.915   2.453
   82c3c     C1  889   1.359   0.924   2.531
   82c3c     C2  890   1.132   0.991   2.527
   82c3c     C3  891   1.353   1.057   2.605
   82c3c     C4  892   1.207   1.103   2.599
   82c3c     C5  893   1.257   0.986   2.328
   82c3c     C6  894   1.193   0.777   2.421
   82c3c     H1  895   1.448   0.917   2.469
   82c3c     H2  896   1.371   0.846   2.606
   82c3c     H3  897   1.053   1.031   2.464
   82c3c     H4  898   1.082   0.932   2.604
   82c3c     H5  899   1.416   1.131   2.556
   82c3c     H6  900   1.388   1.047   2.708
   82c3c     H7  901   1.200   1.196   2.542
   82c3c     H8  902   1.168   1.121   2.699
   82c3c     H9  903   1.349   0.954   2.280
   82c3c    H10  904   1.177   0.972   2.255
   82c3c    H11  905   1.263   1.093   2.344
   82c3c    H12  906   1.102   0.778   2.362
   82c3c    H13  907   1.270   0.731   2.358
   82c3c     C7  908   1.171   0.687   2.544
   82c3c    H14  909   1.102   0.731   2.617
   82c3c    H15  910   1.264   0.670   2.598
   82c3c     C8  911   1.112   0.551   2.511
   82c3c    H16  912   1.174   0.496   2.439
   82c3c    H17  913   1.011   0.558   2.471
   82c3c    H18  914   1.108   0.493   2.603
   83c3c      N  915   0.370   0.669   0.975
   83c3c     C1  916   0.361   0.726   0.840
   83c3c     C2  917   0.271   0.560   0.978
   83c3c     C3  918   0.234   0.681   0.771
   83c3c     C4  919   0.166   0.593   0.872
   83c3c     C5  920   0.505   0.615   0.993
   83c3c     C6  921   0.354   0.772   1.080
   83c3c     H1  922   0.446   0.699   0.777
   83c3c     H2  923   0.355   0.834   0.847
   83c3c     H3  924   0.315   0.465   0.951
   83c3c     H4  925   0.225   0.546   1.076
   83c3c     H5  926   0.256   0.628   0.678
   83c3c     H6  927   0.170   0.766   0.747
   83c3c     H7  928   0.124   0.503   0.826
   83c3c     H8  929   0.086   0.653   0.914
   83c3c     H9  930   0.581   0.691   0.977
   83c3c    H10  931   0.517   0.577   1.095
   83c3c    H11  932   0.527   0.533   0.925
   83c3c    H12  933   0.369   0.726   1.178
   83c3c    H13  934   0.432   0.847   1.067
   83c3c     C7  935   0.220   0.846   1.084
   83c3c    H14  936   0.144   0.770   1.104
   83c3c    H15  937   0.196   0.893   0.989
   83c3c     C8  938   0.211   0.952   1.194
   83c3c    H16  939   0.287   1.029   1.183
   83c3c    H17  940   0.218   0.906   1.293
   83c3c    H18  941   0.114   1.002   1.190
   84c3c      N  942   1.175   2.222   2.789
   84c3c     C1  943   1.254   2.188   2.908
   84c3c     C2  944   1.270   2.258   2.683
   84c3c     C3  945   1.401   2.222   2.881
   84c3c     C4  946   1.399   2.302   2.752
   84c3c     C5  947   1.103   2.103   2.746
   84c3c     C6  948   1.073   2.326   2.815
   84c3c     H1  949   1.248   2.082   2.935
   84c3c     H2  950   1.219   2.241   2.997
   84c3c     H3  951   1.295   2.172   2.621
   84c3c     H4  952   1.229   2.333   2.616
   84c3c     H5  953   1.459   2.131   2.870
   84c3c     H6  954   1.446   2.278   2.963
   84c3c     H7  955   1.487   2.280   2.691
   84c3c     H8  956   1.398   2.408   2.774
   84c3c     H9  957   1.030   2.068   2.819
   84c3c    H10  958   1.051   2.119   2.651
   84c3c    H11  959   1.175   2.022   2.731
   84c3c    H12  960   1.011   2.337   2.726
   84c3c    H13  961   1.006   2.290   2.893
   84c3c     C7  962   1.125   2.466   2.854
   84c3c    H14  963   1.191   2.506   2.777
   84c3c    H15  964   1.184   2.460   2.946
   84c3c     C8  965   1.010   2.565   2.874
   84c3c    H16  966   0.940   2.530   2.950
   84c3c    H17  967   0.954   2.581   2.782
   84c3c    H18  968   1.048   2.662   2.907
   85c3c      N  969   2.793   0.327   2.007
   85c3c     C1  970   2.902   0.410   1.954
   85c3c     C2  971   2.681   0.420   2.022
   85c3c     C3  972   2.886   0.549   2.016
   85c3c     C4  973   2.742   0.555   2.063
   85c3c     C5  974   2.756   0.225   1.909
   85c3c     C6  975   2.830   0.254   2.131
   85c3c     H1  976   2.890   0.423   1.846
   85c3c     H2  977   3.001   0.367   1.969
   85c3c     H3  978   2.631   0.436   1.927
   85c3c     H4  979   2.604   0.382   2.090
   85c3c     H5  980   2.904   0.627   1.941
   85c3c     H6  981   2.954   0.567   2.099
   85c3c     H7  982   2.688   0.637   2.016
   85c3c     H8  983   2.737   0.572   2.171
   85c3c     H9  984   2.837   0.157   1.885
   85c3c    H10  985   2.670   0.166   1.941
   85c3c    H11  986   2.725   0.271   1.815
   85c3c    H12  987   2.748   0.186   2.155
   85c3c    H13  988   2.915   0.189   2.110
   85c3c     C7  989   2.861   0.334   2.259
   85c3c    H14  990   2.776   0.398   2.286
   85c3c    H15  991   2.947   0.400   2.246
   85c3c     C8  992   2.886   0.244   2.380
   85c3c    H16  993   2.977   0.184   2.369
   85c3c    H17  994   2.803   0.175   2.397
   85c3c    H18  995   2.897   0.303   2.471
   86c3c      N  996   0.858   1.465   2.638
   86c3c     C1  997   0.746   1.455   2.733
   86c3c     C2  998   0.894   1.328   2.599
   86c3c     C3  999   0.742   1.312   2.789
   86c3c     C4 1000   0.839   1.232   2.704
   86c3c     C5 1001   0.812   1.539   2.519
   86c3c     C6 1002   0.974   1.539   2.689
   86c3c     H1 1003   0.650   1.475   2.686
   86c3c     H2 1004   0.753   1.529   2.813
   86c3c     H3 1005   0.849   1.303   2.503
   86c3c     H4 1006   1.001   1.316   2.584
   86c3c     H5 1007   0.642   1.271   2.783
   86c3c     H6 1008   0.773   1.309   2.894
   86c3c     H7 1009   0.787   1.148   2.657
   86c3c     H8 1010   0.919   1.191   2.767
   86c3c     H9 1011   0.789   1.643   2.541
   86c3c    H10 1012   0.886   1.537   2.439
   86c3c    H11 1013   0.719   1.497   2.479
   86c3c    H12 1014   1.050   1.545   2.611
   86c3c    H13 1015   0.945   1.642   2.708
   86c3c     C7 1016   1.043   1.484   2.816
   86c3c    H14 1017   1.084   1.385   2.798
   86c3c    H15 1018   0.972   1.475   2.898
   86c3c     C8 1019   1.158   1.576   2.860
   86c3c    H16 1020   1.123   1.678   2.881
   86c3c    H17 1021   1.234   1.584   2.782
   86c3c    H18 1022   1.207   1.539   2.950
   87c3c      N 1023   0.882   0.262   1.989
   87c3c     C1 1024   1.022   0.307   1.986
   87c3c     C2 1025   0.799   0.380   1.962
   87c3c     C3 1026   1.022   0.457   2.014
   87c3c     C4 1027   0.877   0.499   2.014
   87c3c     C5 1028   0.862   0.164   1.882
   87c3c     C6 1029   0.845   0.195   2.115
   87c3c     H1 1030   1.068   0.295   1.888
   87c3c     H2 1031   1.087   0.254   2.056
   87c3c     H3 1032   0.786   0.396   1.855
   87c3c     H4 1033   0.699   0.376   2.005
   87c3c     H5 1034   1.076   0.510   1.936
   87c3c     H6 1035   1.070   0.482   2.109
   87c3c     H7 1036   0.859   0.585   1.950
   87c3c     H8 1037   0.850   0.527   2.116
   87c3c     H9 1038   0.921   0.074   1.898
   87c3c    H10 1039   0.757   0.136   1.873
   87c3c    H11 1040   0.893   0.204   1.786
   87c3c    H12 1041   0.743   0.157   2.106
   87c3c    H13 1042   0.909   0.107   2.129
   87c3c     C7 1043   0.850   0.276   2.246
   87c3c    H14 1044   0.787   0.364   2.240
   87c3c    H15 1045   0.951   0.311   2.267
   87c3c     C8 1046   0.800   0.190   2.362
   87c3c    H16 1047   0.868   0.108   2.383
   87c3c    H17 1048   0.702   0.147   2.341
   87c3c    H18 1049   0.790   0.251   2.452
   88c3c      N 1050   2.103   1.447   0.937
   88c3c     C1 1051   1.976   1.398   0.884
   88c3c     C2 1052   2.186   1.479   0.821
   88c3c     C3 1053   1.971   1.433   0.735
   88c3c     C4 1054   2.116   1.425   0.697
   88c3c     C5 1055   2.074   1.569   1.015
   88c3c     C6 1056   2.174   1.352   1.024
   88c3c     H1 1057   1.890   1.438   0.938
   88c3c     H2 1058   1.965   1.289   0.892
   88c3c     H3 1059   2.200   1.587   0.816
   88c3c     H4 1060   2.287   1.437   0.829
   88c3c     H5 1061   1.934   1.535   0.720
   88c3c     H6 1062   1.909   1.365   0.677
   88c3c     H7 1063   2.137   1.481   0.606
   88c3c     H8 1064   2.142   1.320   0.680
   88c3c     H9 1065   2.010   1.546   1.100
   88c3c    H10 1066   2.164   1.616   1.055
   88c3c    H11 1067   2.022   1.644   0.955
   88c3c    H12 1068   2.263   1.401   1.063
   88c3c    H13 1069   2.113   1.332   1.113
   88c3c     C7 1070   2.220   1.222   0.955
   88c3c    H14 1071   2.307   1.239   0.891
   88c3c    H15 1072   2.142   1.187   0.887
   88c3c     C8 1073   2.255   1.112   1.052
   88c3c    H16 1074   2.164   1.073   1.098
   88c3c    H17 1075   2.322   1.149   1.130
   88c3c    H18 1076   2.306   1.030   1.002
   89c3c      N 1077   2.261   2.858   0.859
   89c3c     C1 1078   2.365   2.935   0.791
   89c3c     C2 1079   2.294   2.717   0.839
   89c3c     C3 1080   2.481   2.839   0.764
   89c3c     C4 1081   2.410   2.708   0.742
   89c3c     C5 1082   2.269   2.889   1.002
   89c3c     C6 1083   2.122   2.887   0.815
   89c3c     H1 1084   2.400   3.021   0.848
   89c3c     H2 1085   2.331   2.973   0.694
   89c3c     H3 1086   2.322   2.668   0.933
   89c3c     H4 1087   2.209   2.662   0.800
   89c3c     H5 1088   2.547   2.831   0.851
   89c3c     H6 1089   2.541   2.867   0.678
   89c3c     H7 1090   2.474   2.622   0.762
   89c3c     H8 1091   2.373   2.701   0.640
   89c3c     H9 1092   2.244   2.993   1.025
   89c3c    H10 1093   2.202   2.827   1.061
   89c3c    H11 1094   2.369   2.870   1.041
   89c3c    H12 1095   2.054   2.827   0.875
   89c3c    H13 1096   2.098   2.991   0.836
   89c3c     C7 1097   2.091   2.857   0.666
   89c3c    H14 1098   2.118   2.756   0.637
   89c3c    H15 1099   2.152   2.919   0.600
   89c3c     C8 1100   1.942   2.879   0.633
   89c3c    H16 1101   1.908   2.978   0.665
   89c3c    H17 1102   1.880   2.804   0.682
   89c3c    H18 1103   1.923   2.872   0.526
   90c3c      N 1104   1.424   2.557   1.874
   90c3c     C1 1105   1.293   2.591   1.821
   90c3c     C2 1106   1.505   2.678   1.883
   90c3c     C3 1107   1.289   2.741   1.792
   90c3c     C4 1108   1.417   2.798   1.848
   90c3c     C5 1109   1.405   2.503   2.009
   90c3c     C6 1110   1.488   2.451   1.795
   90c3c     H1 1111   1.209   2.560   1.884
   90c3c     H2 1112   1.278   2.538   1.727
   90c3c     H3 1113   1.545   2.692   1.983
   90c3c     H4 1114   1.591   2.679   1.816
   90c3c     H5 1115   1.201   2.788   1.837
   90c3c     H6 1116   1.284   2.756   1.684
   90c3c     H7 1117   1.397   2.858   1.937
   90c3c     H8 1118   1.467   2.862   1.775
   90c3c     H9 1119   1.350   2.409   2.005
   90c3c    H10 1120   1.501   2.482   2.056
   90c3c    H11 1121   1.351   2.571   2.074
   90c3c    H12 1122   1.581   2.416   1.841
   90c3c    H13 1123   1.421   2.366   1.794
   90c3c     C7 1124   1.524   2.480   1.648
   90c3c    H14 1125   1.599   2.558   1.639
   90c3c    H15 1126   1.438   2.515   1.592
   90c3c     C8 1127   1.577   2.351   1.585
   90c3c    H16 1128   1.508   2.268   1.597
   90c3c    H17 1129   1.672   2.323   1.633
   90c3c    H18 1130   1.595   2.362   1.478
   91c3c      N 1131   2.279   1.120   2.788
   91c3c     C1 1132   2.287   1.039   2.666
   91c3c     C2 1133   2.337   1.041   2.898
   91c3c     C3 1134   2.320   0.895   2.707
   91c3c     C4 1135   2.320   0.894   2.858
   91c3c     C5 1136   2.356   1.243   2.770
   91c3c     C6 1137   2.142   1.165   2.817
   91c3c     H1 1138   2.368   1.074   2.602
   91c3c     H2 1139   2.197   1.045   2.606
   91c3c     H3 1140   2.443   1.060   2.909
   91c3c     H4 1141   2.289   1.062   2.993
   91c3c     H5 1142   2.419   0.869   2.669
   91c3c     H6 1143   2.250   0.823   2.665
   91c3c     H7 1144   2.400   0.831   2.898
   91c3c     H8 1145   2.227   0.853   2.897
   91c3c     H9 1146   2.317   1.303   2.687
   91c3c    H10 1147   2.354   1.307   2.858
   91c3c    H11 1148   2.460   1.221   2.746
   91c3c    H12 1149   2.143   1.230   2.904
   91c3c    H13 1150   2.106   1.225   2.734
   91c3c     C7 1151   2.036   1.059   2.843
   91c3c    H14 1152   2.062   0.993   2.926
   91c3c    H15 1153   2.023   0.999   2.753
   91c3c     C8 1154   1.903   1.124   2.878
   91c3c    H16 1155   1.869   1.185   2.795
   91c3c    H17 1156   1.910   1.188   2.965
   91c3c    H18 1157   1.825   1.050   2.896
   92c3c      N 1158   0.762   1.811   0.348
   92c3c     C1 1159   0.782   1.681   0.412
   92c3c     C2 1160   0.891   1.881   0.351
   92c3c     C3 1161   0.903   1.695   0.503
   92c3c     C4 1162   0.971   1.826   0.467
   92c3c     C5 1163   0.722   1.797   0.208
   92c3c     C6 1164   0.654   1.886   0.414
   92c3c     H1 1165   0.803   1.603   0.339
   92c3c     H2 1166   0.695   1.643   0.466
   92c3c     H3 1167   0.951   1.865   0.261
   92c3c     H4 1168   0.877   1.989   0.360
   92c3c     H5 1169   0.972   1.612   0.487
   92c3c     H6 1170   0.874   1.698   0.608
   92c3c     H7 1171   1.075   1.808   0.439
   92c3c     H8 1172   0.971   1.894   0.552
   92c3c     H9 1173   0.629   1.741   0.196
   92c3c    H10 1174   0.709   1.894   0.161
   92c3c    H11 1175   0.799   1.746   0.149
   92c3c    H12 1176   0.644   1.983   0.366
   92c3c    H13 1177   0.559   1.835   0.399
   92c3c     C7 1178   0.670   1.909   0.565
   92c3c    H14 1179   0.764   1.960   0.587
   92c3c    H15 1180   0.671   1.813   0.616
   92c3c     C8 1181   0.557   1.992   0.622
   92c3c    H16 1182   0.460   1.944   0.606
   92c3c    H17 1183   0.556   2.092   0.578
   92c3c    H18 1184   0.571   2.003   0.730
   93c3c      N 1185   0.293   2.756   0.805
   93c3c     C1 1186   0.421   2.758   0.879
   93c3c     C2 1187   0.189   2.814   0.893
   93c3c     C3 1188   0.392   2.811   1.020
   93c3c     C4 1189   0.242   2.806   1.035
   93c3c     C5 1190   0.304   2.841   0.686
   93c3c     C6 1191   0.258   2.621   0.757
   93c3c     H1 1192   0.496   2.822   0.832
   93c3c     H2 1193   0.468   2.660   0.885
   93c3c     H3 1194   0.172   2.919   0.872
   93c3c     H4 1195   0.092   2.765   0.883
   93c3c     H5 1196   0.425   2.914   1.029
   93c3c     H6 1197   0.443   2.752   1.097
   93c3c     H7 1198   0.205   2.887   1.098
   93c3c     H8 1199   0.210   2.712   1.082
   93c3c     H9 1200   0.382   2.806   0.618
   93c3c    H10 1201   0.211   2.843   0.630
   93c3c    H11 1202   0.329   2.944   0.711
   93c3c    H12 1203   0.165   2.628   0.700
   93c3c    H13 1204   0.333   2.586   0.686
   93c3c     C7 1205   0.237   2.511   0.864
   93c3c    H14 1206   0.167   2.546   0.941
   93c3c    H15 1207   0.329   2.486   0.916
   93c3c     C8 1208   0.175   2.386   0.802
   93c3c    H16 1209   0.244   2.337   0.732
   93c3c    H17 1210   0.085   2.409   0.746
   93c3c    H18 1211   0.146   2.314   0.879
   94c3c      N 1212   1.510   0.318   2.267
   94c3c     C1 1213   1.601   0.432   2.285
   94c3c     C2 1214   1.563   0.212   2.352
   94c3c     C3 1215   1.738   0.375   2.320
   94c3c     C4 1216   1.715   0.228   2.354
   94c3c     C5 1217   1.376   0.353   2.317
   94c3c     C6 1218   1.492   0.276   2.127
   94c3c     H1 1219   1.569   0.495   2.369
   94c3c     H2 1220   1.604   0.499   2.199
   94c3c     H3 1221   1.528   0.223   2.455
   94c3c     H4 1222   1.527   0.113   2.322
   94c3c     H5 1223   1.779   0.424   2.408
   94c3c     H6 1224   1.809   0.385   2.238
   94c3c     H7 1225   1.756   0.201   2.451
   94c3c     H8 1226   1.768   0.167   2.282
   94c3c     H9 1227   1.331   0.435   2.261
   94c3c    H10 1228   1.308   0.268   2.312
   94c3c    H11 1229   1.380   0.386   2.420
   94c3c    H12 1230   1.421   0.194   2.124
   94c3c    H13 1231   1.445   0.358   2.072
   94c3c     C7 1232   1.616   0.233   2.045
   94c3c    H14 1233   1.678   0.160   2.097
   94c3c    H15 1234   1.682   0.318   2.025
   94c3c     C8 1235   1.574   0.165   1.915
   94c3c    H16 1236   1.513   0.232   1.854
   94c3c    H17 1237   1.517   0.074   1.934
   94c3c    H18 1238   1.662   0.136   1.857
   95c3c      N 1239   0.949   1.880   1.373
   95c3c     C1 1240   0.989   1.759   1.298
   95c3c     C2 1241   0.988   1.859   1.514
   95c3c     C3 1242   1.081   1.678   1.388
   95c3c     C4 1243   1.039   1.717   1.527
   95c3c     C5 1244   1.024   1.993   1.321
   95c3c     C6 1245   0.807   1.919   1.361
   95c3c     H1 1246   1.044   1.782   1.207
   95c3c     H2 1247   0.904   1.698   1.265
   95c3c     H3 1248   1.068   1.926   1.546
   95c3c     H4 1249   0.906   1.876   1.584
   95c3c     H5 1250   1.185   1.705   1.370
   95c3c     H6 1251   1.076   1.570   1.369
   95c3c     H7 1252   1.123   1.713   1.596
   95c3c     H8 1253   0.959   1.651   1.563
   95c3c     H9 1254   0.999   2.019   1.219
   95c3c    H10 1255   1.007   2.080   1.385
   95c3c    H11 1256   1.131   1.976   1.326
   95c3c    H12 1257   0.790   2.009   1.419
   95c3c    H13 1258   0.787   1.948   1.258
   95c3c     C7 1259   0.703   1.815   1.406
   95c3c    H14 1260   0.723   1.788   1.510
   95c3c    H15 1261   0.712   1.724   1.347
   95c3c     C8 1262   0.559   1.864   1.397
   95c3c    H16 1263   0.533   1.894   1.295
   95c3c    H17 1264   0.542   1.948   1.463
   95c3c    H18 1265   0.490   1.784   1.426
   96c3c      N 1266   0.233   1.468   1.480
   96c3c     C1 1267   0.143   1.355   1.457
   96c3c     C2 1268   0.368   1.418   1.453
   96c3c     C3 1269   0.222   1.228   1.491
   96c3c     C4 1270   0.367   1.266   1.467
   96c3c     C5 1271   0.204   1.575   1.385
   96c3c     C6 1272   0.219   1.527   1.615
   96c3c     H1 1273   0.115   1.347   1.352
   96c3c     H2 1274   0.051   1.363   1.515
   96c3c     H3 1275   0.404   1.443   1.353
   96c3c     H4 1276   0.439   1.464   1.521
   96c3c     H5 1277   0.191   1.144   1.428
   96c3c     H6 1278   0.207   1.196   1.594
   96c3c     H7 1279   0.406   1.221   1.376
   96c3c     H8 1280   0.428   1.235   1.552
   96c3c     H9 1281   0.106   1.619   1.400
   96c3c    H10 1282   0.278   1.655   1.392
   96c3c    H11 1283   0.208   1.539   1.282
   96c3c    H12 1284   0.282   1.616   1.622
   96c3c    H13 1285   0.117   1.564   1.628
   96c3c     C7 1286   0.252   1.439   1.738
   96c3c    H14 1287   0.357   1.408   1.736
   96c3c    H15 1288   0.192   1.348   1.742
   96c3c     C8 1289   0.226   1.515   1.868
   96c3c    H16 1290   0.119   1.526   1.888
   96c3c    H17 1291   0.269   1.615   1.864
   96c3c    H18 1292   0.270   1.464   1.954
   97c3c      N 1293   2.798   1.360   2.766
   97c3c     C1 1294   2.662   1.417   2.755
   97c3c     C2 1295   2.893   1.473   2.773
   97c3c     C3 1296   2.675   1.568   2.770
   97c3c     C4 1297   2.817   1.597   2.726
   97c3c     C5 1298   2.808   1.283   2.891
   97c3c     C6 1299   2.832   1.265   2.658
   97c3c     H1 1300   2.593   1.379   2.831
   97c3c     H2 1301   2.615   1.394   2.659
   97c3c     H3 1302   2.926   1.492   2.875
   97c3c     H4 1303   2.984   1.458   2.715
   97c3c     H5 1304   2.661   1.597   2.874
   97c3c     H6 1305   2.601   1.622   2.710
   97c3c     H7 1306   2.856   1.689   2.770
   97c3c     H8 1307   2.823   1.606   2.618
   97c3c     H9 1308   2.740   1.198   2.891
   97c3c    H10 1309   2.908   1.244   2.907
   97c3c    H11 1310   2.782   1.344   2.978
   97c3c    H12 1311   2.932   1.225   2.675
   97c3c    H13 1312   2.765   1.179   2.660
   97c3c     C7 1313   2.830   1.323   2.515
   97c3c    H14 1314   2.887   1.416   2.508
   97c3c    H15 1315   2.727   1.343   2.484
   97c3c     C8 1316   2.886   1.226   2.411
   97c3c    H16 1317   2.829   1.133   2.412
   97c3c    H17 1318   2.991   1.203   2.430
   97c3c    H18 1319   2.879   1.270   2.311
   98c3c      N 1320   1.407   1.164   0.792
   98c3c     C1 1321   1.285   1.098   0.746
   98c3c     C2 1322   1.401   1.297   0.733
   98c3c     C3 1323   1.252   1.154   0.607
   98c3c     C4 1324   1.308   1.294   0.612
   98c3c     C5 1325   1.402   1.175   0.938
   98c3c     C6 1326   1.532   1.092   0.757
   98c3c     H1 1327   1.203   1.123   0.813
   98c3c     H2 1328   1.295   0.990   0.747
   98c3c     H3 1329   1.365   1.370   0.805
   98c3c     H4 1330   1.501   1.334   0.707
   98c3c     H5 1331   1.145   1.156   0.585
   98c3c     H6 1332   1.298   1.100   0.524
   98c3c     H7 1333   1.227   1.366   0.626
   98c3c     H8 1334   1.357   1.319   0.518
   98c3c     H9 1335   1.398   1.079   0.989
   98c3c    H10 1336   1.488   1.229   0.977
   98c3c    H11 1337   1.316   1.234   0.969
   98c3c    H12 1338   1.616   1.149   0.796
   98c3c    H13 1339   1.535   0.996   0.808
   98c3c     C7 1340   1.561   1.073   0.607
   98c3c    H14 1341   1.568   1.169   0.556
   98c3c    H15 1342   1.481   1.016   0.559
   98c3c     C8 1343   1.688   0.994   0.582
   98c3c    H16 1344   1.685   0.899   0.636
   98c3c    H17 1345   1.776   1.051   0.611
   98c3c    H18 1346   1.698   0.970   0.476
   99c3c      N 1347   1.429   1.934   1.328
   99c3c     C1 1348   1.572   1.909   1.341
   99c3c     C2 1349   1.374   1.896   1.459
   99c3c     C3 1350   1.585   1.788   1.433
   99c3c     C4 1351   1.456   1.778   1.508
   99c3c     C5 1352   1.407   2.078   1.311
   99c3c     C6 1353   1.371   1.862   1.211
   99c3c     H1 1354   1.621   1.993   1.390
   99c3c     H2 1355   1.622   1.896   1.245
   99c3c     H3 1356   1.388   1.976   1.531
   99c3c     H4 1357   1.267   1.876   1.459
   99c3c     H5 1358   1.666   1.803   1.505
   99c3c     H6 1359   1.603   1.696   1.378
   99c3c     H7 1360   1.483   1.788   1.613
   99c3c     H8 1361   1.407   1.681   1.495
   99c3c     H9 1362   1.455   2.117   1.221
   99c3c    H10 1363   1.301   2.102   1.306
   99c3c    H11 1364   1.448   2.136   1.394
   99c3c    H12 1365   1.263   1.877   1.207
   99c3c    H13 1366   1.407   1.908   1.119
   99c3c     C7 1367   1.396   1.710   1.193
   99c3c    H14 1368   1.379   1.654   1.285
   99c3c    H15 1369   1.499   1.692   1.165
   99c3c     C8 1370   1.303   1.650   1.086
   99c3c    H16 1371   1.322   1.693   0.988
   99c3c    H17 1372   1.198   1.665   1.109
   99c3c    H18 1373   1.317   1.542   1.078
  100c3c      N 1374   0.621   0.277   0.580
  100c3c     C1 1375   0.499   0.199   0.557
  100c3c     C2 1376   0.576   0.417   0.591
  100c3c     C3 1377   0.401   0.290   0.480
  100c3c     C4 1378   0.454   0.431   0.500
  100c3c     C5 1379   0.682   0.234   0.708
  100c3c     C6 1380   0.725   0.257   0.476
  100c3c     H1 1381   0.450   0.173   0.651
  100c3c     H2 1382   0.518   0.105   0.505
  100c3c     H3 1383   0.542   0.438   0.693
  100c3c     H4 1384   0.654   0.489   0.568
  100c3c     H5 1385   0.300   0.280   0.519
  100c3c     H6 1386   0.398   0.265   0.374
  100c3c     H7 1387   0.378   0.496   0.545
  100c3c     H8 1388   0.479   0.476   0.404
  100c3c     H9 1389   0.711   0.129   0.705
  100c3c    H10 1390   0.771   0.292   0.732
  100c3c    H11 1391   0.613   0.245   0.792
  100c3c    H12 1392   0.814   0.314   0.503
  100c3c    H13 1393   0.756   0.153   0.477
  100c3c     C7 1394   0.688   0.293   0.331
  100c3c    H14 1395   0.654   0.396   0.321
  100c3c    H15 1396   0.610   0.227   0.294
  100c3c     C8 1397   0.809   0.280   0.239
  100c3c    H16 1398   0.859   0.185   0.255
  100c3c    H17 1399   0.882   0.359   0.260
  100c3c    H18 1400   0.781   0.287   0.134
  101fsi     F1 1401   1.515   2.373   1.127
  101fsi     S1 1402   1.649   2.419   1.190
  101fsi      N 1403   1.722   2.479   1.066
  101fsi     O1 1404   1.611   2.521   1.284
  101fsi     O2 1405   1.700   2.296   1.240
  101fsi     S2 1406   1.695   2.620   1.005
  101fsi     O3 1407   1.717   2.731   1.094
  101fsi     O4 1408   1.571   2.620   0.934
  101fsi     F2 1409   1.804   2.637   0.893
  102fsi     F1 1410   1.631   0.571   2.604
  102fsi     S1 1411   1.555   0.462   2.688
  102fsi      N 1412   1.589   0.496   2.836
  102fsi     O1 1413   1.417   0.477   2.652
  102fsi     O2 1414   1.621   0.340   2.651
  102fsi     S2 1415   1.551   0.626   2.915
  102fsi     O3 1416   1.515   0.738   2.834
  102fsi     O4 1417   1.644   0.646   3.023
  102fsi     F2 1418   1.417   0.584   2.987
  103fsi     F1 1419   0.703   0.776   1.173
  103fsi     S1 1420   0.707   0.931   1.200
  103fsi      N 1421   0.807   0.936   1.319
  103fsi     O1 1422   0.750   0.985   1.075
  103fsi     O2 1423   0.571   0.958   1.242
  103fsi     S2 1424   0.956   0.982   1.320
  103fsi     O3 1425   1.030   0.956   1.201
  103fsi     O4 1426   1.021   0.944   1.441
  103fsi     F2 1427   0.944   1.138   1.332
  104fsi     F1 1428   0.334   1.636   1.091
  104fsi     S1 1429   0.413   1.511   1.035
  104fsi      N 1430   0.394   1.527   0.880
  104fsi     O1 1431   0.545   1.533   1.084
  104fsi     O2 1432   0.338   1.400   1.090
  104fsi     S2 1433   0.456   1.638   0.786
  104fsi     O3 1434   0.479   1.760   0.855
  104fsi     O4 1435   0.390   1.648   0.659
  104fsi     F2 1436   0.598   1.583   0.751
  105fsi     F1 1437   0.889   1.834   2.867
  105fsi     S1 1438   0.736   1.865   2.848
  105fsi      N 1439   0.735   2.013   2.797
  105fsi     O1 1440   0.692   1.768   2.752
  105fsi     O2 1441   0.684   1.849   2.981
  105fsi     S2 1442   0.759   2.064   2.650
  105fsi     O3 1443   0.840   1.978   2.571
  105fsi     O4 1444   0.789   2.205   2.644
  105fsi     F2 1445   0.617   2.055   2.584
  106fsi     F1 1446   0.798   1.682   2.212
  106fsi     S1 1447   0.669   1.762   2.246
  106fsi      N 1448   0.619   1.817   2.108
  106fsi     O1 1449   0.588   1.662   2.309
  106fsi     O2 1450   0.723   1.869   2.324
  106fsi     S2 1451   0.492   1.776   2.026
  106fsi     O3 1452   0.480   1.636   2.001
  106fsi     O4 1453   0.465   1.864   1.915
  106fsi     F2 1454   0.375   1.810   2.124
  107fsi     F1 1455   1.416   3.033   1.109
  107fsi     S1 1456   1.380   2.914   1.014
  107fsi      N 1457   1.228   2.939   0.982
  107fsi     O1 1458   1.471   2.929   0.904
  107fsi     O2 1459   1.390   2.797   1.096
  107fsi     S2 1460   1.156   2.961   0.844
  107fsi     O3 1461   1.238   3.019   0.742
  107fsi     O4 1462   1.023   3.012   0.860
  107fsi     F2 1463   1.133   2.813   0.795
  108fsi     F1 1464   1.700   2.199   0.135
  108fsi     S1 1465   1.782   2.297   0.225
  108fsi      N 1466   1.852   2.394   0.123
  108fsi     O1 1467   1.683   2.366   0.303
  108fsi     O2 1468   1.876   2.213   0.294
  108fsi     S2 1469   1.794   2.528   0.069
  108fsi     O3 1470   1.660   2.520   0.019
  108fsi     O4 1471   1.886   2.601  -0.013
  108fsi     F2 1472   1.782   2.619   0.197
  109fsi     F1 1473   2.323   0.716   1.655
  109fsi     S1 1474   2.258   0.589   1.720
  109fsi      N 1475   2.350   0.562   1.845
  109fsi     O1 1476   2.124   0.630   1.752
  109fsi     O2 1477   2.272   0.491   1.616
  109fsi     S2 1478   2.325   0.601   1.995
  109fsi     O3 1479   2.262   0.728   2.015
  109fsi     O4 1480   2.436   0.576   2.083
  109fsi     F2 1481   2.219   0.495   2.039
  110fsi     F1 1482   2.709   2.145   1.865
  110fsi     S1 1483   2.800   2.083   1.976
  110fsi      N 1484   2.944   2.108   1.918
  110fsi     O1 1485   2.771   2.160   2.095
  110fsi     O2 1486   2.765   1.944   1.978
  110fsi     S2 1487   3.040   2.231   1.935
  110fsi     O3 1488   2.985   2.339   2.011
  110fsi     O4 1489   3.116   2.262   1.818
  110fsi     F2 1490   3.148   2.174   2.034
  111fsi     F1 1491   0.847   2.523   1.150
  111fsi     S1 1492   0.921   2.660   1.146
  111fsi      N 1493   0.834   2.754   1.056
  111fsi     O1 1494   0.925   2.702   1.283
  111fsi     O2 1495   1.047   2.633   1.084
  111fsi     S2 1496   0.754   2.882   1.097
  111fsi     O3 1497   0.687   2.875   1.224
  111fsi     O4 1498   0.683   2.940   0.986
  111fsi     F2 1499   0.868   2.987   1.123
  112fsi     F1 1500   2.954   1.328   0.605
  112fsi     S1 1501   2.925   1.173   0.613
  112fsi      N 1502   2.786   1.171   0.685
  112fsi     O1 1503   2.924   1.131   0.475
  112fsi     O2 1504   3.030   1.124   0.697
  112fsi     S2 1505   2.647   1.204   0.623
  112fsi     O3 1506   2.659   1.287   0.506
  112fsi     O4 1507   2.553   1.252   0.720
  112fsi     F2 1508   2.591   1.067   0.574
  113fsi     F1 1509   1.507   1.395   1.152
  113fsi     S1 1510   1.636   1.407   1.239
  113fsi      N 1511   1.693   1.262   1.233
  113fsi     O1 1512   1.716   1.504   1.169
  113fsi     O2 1513   1.582   1.444   1.367
  113fsi     S2 1514   1.758   1.194   1.109
  113fsi     O3 1515   1.732   1.256   0.984
  113fsi     O4 1516   1.746   1.051   1.111
  113fsi     F2 1517   1.911   1.214   1.133
  114fsi     F1 1518   1.625   2.181   0.516
  114fsi     S1 1519   1.525   2.073   0.463
  114fsi      N 1520   1.430   2.055   0.587
  114fsi     O1 1521   1.465   2.136   0.348
  114fsi     O2 1522   1.612   1.962   0.442
  114fsi     S2 1523   1.276   2.080   0.605
  114fsi     O3 1524   1.207   2.143   0.496
  114fsi     O4 1525   1.248   2.132   0.736
  114fsi     F2 1526   1.215   1.937   0.607
  115fsi     F1 1527   0.656   1.338   1.386
  115fsi     S1 1528   0.763   1.424   1.463
  115fsi      N 1529   0.673   1.537   1.525
  115fsi     O1 1530   0.817   1.329   1.556
  115fsi     O2 1531   0.847   1.474   1.361
  115fsi     S2 1532   0.632   1.571   1.672
  115fsi     O3 1533   0.613   1.452   1.749
  115fsi     O4 1534   0.527   1.668   1.674
  115fsi     F2 1535   0.758   1.645   1.730
  116fsi     F1 1536   1.825   2.406   0.544
  116fsi     S1 1537   1.978   2.432   0.557
  116fsi      N 1538   2.026   2.455   0.408
  116fsi     O1 1539   1.983   2.550   0.638
  116fsi     O2 1540   2.028   2.310   0.612
  116fsi     S2 1541   2.086   2.580   0.336
  116fsi     O3 1542   2.025   2.708   0.362
  116fsi     O4 1543   2.122   2.554   0.199
  116fsi     F2 1544   2.225   2.596   0.406
  117fsi     F1 1545   2.483   2.393   2.626
  117fsi     S1 1546   2.349   2.337   2.568
  117fsi      N 1547   2.263   2.319   2.696
  117fsi     O1 1548   2.305   2.440   2.477
  117fsi     O2 1549   2.390   2.212   2.510
  117fsi     S2 1550   2.223   2.433   2.797
  117fsi     O3 1551   2.250   2.566   2.749
  117fsi     O4 1552   2.259   2.405   2.932
  117fsi     F2 1553   2.068   2.430   2.798
  118fsi     F1 1554   2.124   0.395   0.225
  118fsi     S1 1555   1.998   0.302   0.215
  118fsi      N 1556   2.036   0.181   0.307
  118fsi     O1 1557   1.889   0.383   0.262
  118fsi     O2 1558   1.994   0.265   0.076
  118fsi     S2 1559   2.043   0.175   0.463
  118fsi     O3 1560   2.094   0.293   0.526
  118fsi     O4 1561   2.098   0.050   0.508
  118fsi     F2 1562   1.892   0.167   0.507
  119fsi     F1 1563   2.031   0.770   2.781
  119fsi     S1 1564   1.977   0.654   2.868
  119fsi      N 1565   2.092   0.548   2.857
  119fsi     O1 1566   1.957   0.711   2.998
  119fsi     O2 1567   1.862   0.609   2.795
  119fsi     S2 1568   2.215   0.522   2.950
  119fsi     O3 1569   2.206   0.578   3.082
  119fsi     O4 1570   2.340   0.542   2.883
  119fsi     F2 1571   2.207   0.367   2.974
  120fsi     F1 1572   1.496   0.167   0.522
  120fsi     S1 1573   1.503   0.237   0.660
  120fsi      N 1574   1.648   0.295   0.662
  120fsi     O1 1575   1.396   0.332   0.660
  120fsi     O2 1576   1.488   0.123   0.747
  120fsi     S2 1577   1.701   0.436   0.617
  120fsi     O3 1578   1.668   0.471   0.482
  120fsi     O4 1579   1.835   0.460   0.662
  120fsi     F2 1580   1.618   0.536   0.706
  121fsi     F1 1581   2.661   0.497   2.890
  121fsi     S1 1582   2.705   0.612   2.792
  121fsi      N 1583   2.778   0.711   2.889
  121fsi     O1 1584   2.788   0.547   2.694
  121fsi     O2 1585   2.581   0.671   2.751
  121fsi     S2 1586   2.932   0.736   2.901
  121fsi     O3 1587   3.008   0.619   2.936
  121fsi     O4 1588   2.960   0.857   2.974
  121fsi     F2 1589   2.972   0.771   2.754
  122fsi     F1 1590   2.467   1.553   0.761
  122fsi     S1 1591   2.473   1.646   0.636
  122fsi      N 1592   2.324   1.677   0.604
  122fsi     O1 1593   2.555   1.754   0.682
  122fsi     O2 1594   2.533   1.557   0.541
  122fsi     S2 1595   2.236   1.800   0.644
  122fsi     O3 1596   2.302   1.897   0.728
  122fsi     O4 1597   2.103   1.761   0.682
  122fsi     F2 1598   2.220   1.875   0.508
  123fsi     F1 1599   2.535   0.800   0.696
  123fsi     S1 1600   2.574   0.823   0.845
  123fsi      N 1601   2.716   0.757   0.849
  123fsi     O1 1602   2.572   0.966   0.856
  123fsi     O2 1603   2.471   0.752   0.916
  123fsi     S2 1604   2.840   0.802   0.765
  123fsi     O3 1605   2.806   0.852   0.635
  123fsi     O4 1606   2.950   0.710   0.769
  123fsi     F2 1607   2.893   0.926   0.845
  124fsi     F1 1608   2.152   1.367   1.783
  124fsi     S1 1609   2.014   1.311   1.829
  124fsi      N 1610   2.053   1.222   1.951
  124fsi     O1 1611   1.937   1.426   1.862
  124fsi     O2 1612   1.974   1.230   1.718
  124fsi     S2 1613   2.010   1.241   2.099
  124fsi     O3 1614   2.040   1.369   2.157
  124fsi     O4 1615   2.040   1.123   2.175
  124fsi     F2 1616   1.855   1.242   2.092
  125fsi     F1 1617   0.877   0.785   1.615
  125fsi     S1 1618   0.909   0.641   1.565
  125fsi      N 1619   1.060   0.643   1.522
  125fsi     O1 1620   0.877   0.555   1.675
  125fsi     O2 1621   0.825   0.628   1.449
  125fsi     S2 1622   1.189   0.619   1.607
  125fsi     O3 1623   1.172   0.633   1.747
  125fsi     O4 1624   1.302   0.678   1.542
  125fsi     F2 1625   1.215   0.466   1.595
  126fsi     F1 1626   0.625   0.680   0.259
  126fsi     S1 1627   0.503   0.780   0.255
  126fsi      N 1628   0.568   0.916   0.299
  126fsi     O1 1629   0.456   0.775   0.119
  126fsi     O2 1630   0.414   0.728   0.355
  126fsi     S2 1631   0.634   1.027   0.208
  126fsi     O3 1632   0.719   0.977   0.105
  126fsi     O4 1633   0.685   1.130   0.294
  126fsi     F2 1634   0.512   1.095   0.135
  127fsi     F1 1635   0.651   2.781   0.131
  127fsi     S1 1636   0.526   2.855   0.191
  127fsi      N 1637   0.416   2.743   0.188
  127fsi     O1 1638   0.565   2.896   0.324
  127fsi     O2 1639   0.499   2.958   0.094
  127fsi     S2 1640   0.400   2.621   0.286
  127fsi     O3 1641   0.520   2.577   0.351
  127fsi     O4 1642   0.314   2.521   0.229
  127fsi     F2 1643   0.313   2.680   0.402
  128fsi     F1 1644   2.756   2.377   0.782
  128fsi     S1 1645   2.813   2.474   0.893
  128fsi      N 1646   2.786   2.388   1.023
  128fsi     O1 1647   2.950   2.490   0.856
  128fsi     O2 1648   2.726   2.588   0.884
  128fsi     S2 1649   2.881   2.302   1.114
  128fsi     O3 1650   3.006   2.264   1.055
  128fsi     O4 1651   2.804   2.196   1.174
  128fsi     F2 1652   2.914   2.396   1.235
  129fsi     F1 1653   0.988   1.776   2.435
  129fsi     S1 1654   1.122   1.844   2.482
  129fsi      N 1655   1.226   1.763   2.402
  129fsi     O1 1656   1.108   1.981   2.439
  129fsi     O2 1657   1.122   1.816   2.622
  129fsi     S2 1658   1.237   1.752   2.246
  129fsi     O3 1659   1.143   1.838   2.180
  129fsi     O4 1660   1.244   1.615   2.205
  129fsi     F2 1661   1.374   1.815   2.208
  130fsi     F1 1662   1.782   2.901   2.716
  130fsi     S1 1663   1.766   2.745   2.732
  130fsi      N 1664   1.735   2.699   2.585
  130fsi     O1 1665   1.893   2.702   2.785
  130fsi     O2 1666   1.649   2.731   2.814
  130fsi     S2 1667   1.828   2.622   2.484
  130fsi     O3 1668   1.960   2.678   2.469
  130fsi     O4 1669   1.758   2.589   2.363
  130fsi     F2 1670   1.849   2.483   2.552
  131fsi     F1 1671   1.790   2.599   1.494
  131fsi     S1 1672   1.910   2.664   1.569
  131fsi      N 1673   1.922   2.800   1.493
  131fsi     O1 1674   1.865   2.667   1.706
  131fsi     O2 1675   2.021   2.578   1.539
  131fsi     S2 1676   1.889   2.946   1.538
  131fsi     O3 1677   1.818   2.957   1.662
  131fsi     O4 1678   1.842   3.019   1.423
  131fsi     F2 1679   2.032   3.007   1.566
  132fsi     F1 1680   2.025   0.351   1.691
  132fsi     S1 1681   1.960   0.366   1.550
  132fsi      N 1682   1.832   0.277   1.556
  132fsi     O1 1683   1.930   0.506   1.535
  132fsi     O2 1684   2.053   0.312   1.456
  132fsi     S2 1685   1.693   0.314   1.617
  132fsi     O3 1686   1.706   0.378   1.744
  132fsi     O4 1687   1.591   0.216   1.597
  132fsi     F2 1688   1.644   0.428   1.520
  133fsi     F1 1689   0.824   1.652   0.935
  133fsi     S1 1690   0.802   1.800   0.969
  133fsi      N 1691   0.943   1.854   1.003
  133fsi     O1 1692   0.748   1.856   0.849
  133fsi     O2 1693   0.714   1.795   1.082
  133fsi     S2 1694   1.058   1.884   0.901
  133fsi     O3 1695   1.070   1.785   0.798
  133fsi     O4 1696   1.177   1.929   0.967
  133fsi     F2 1697   1.004   2.012   0.827
  134fsi     F1 1698   3.020   2.576   2.521
  134fsi     S1 1699   2.954   2.435   2.497
  134fsi      N 1700   2.800   2.466   2.498
  134fsi     O1 1701   3.002   2.391   2.368
  134fsi     O2 1702   2.994   2.359   2.611
  134fsi     S2 1703   2.723   2.538   2.384
  134fsi     O3 1704   2.794   2.652   2.331
  134fsi     O4 1705   2.583   2.556   2.410
  134fsi     F2 1706   2.723   2.430   2.270
  135fsi     F1 1707   0.377   2.647   2.523
  135fsi     S1 1708   0.532   2.640   2.504
  135fsi      N 1709   0.561   2.762   2.410
  135fsi     O1 1710   0.586   2.656   2.637
  135fsi     O2 1711   0.550   2.514   2.439
  135fsi     S2 1712   0.571   2.913   2.454
  135fsi     O3 1713   0.513   2.941   2.582
  135fsi     O4 1714   0.536   2.997   2.342
  135fsi     F2 1715   0.725   2.935   2.474
  136fsi     F1 1716   0.086   2.796   2.109
  136fsi     S1 1717   0.216   2.838   2.188
  136fsi      N 1718   0.277   2.704   2.241
  136fsi     O1 1719   0.303   2.899   2.091
  136fsi     O2 1720   0.168   2.922   2.294
  136fsi     S2 1721   0.321   2.577   2.160
  136fsi     O3 1722   0.287   2.580   2.021
  136fsi     O4 1723   0.301   2.455   2.234
  136fsi     F2 1724   0.477   2.595   2.158
  137fsi     F1 1725   1.907   0.298   2.620
  137fsi     S1 1726   2.042   0.218   2.629
  137fsi      N 1727   2.027   0.108   2.516
  137fsi     O1 1728   2.141   0.318   2.604
  137fsi     O2 1729   2.037   0.160   2.760
  137fsi     S2 1730   2.061   0.119   2.364
  137fsi     O3 1731   2.045   0.249   2.307
  137fsi     O4 1732   2.006   0.007   2.292
  137fsi     F2 1733   2.215   0.088   2.360
  138fsi     F1 1734   0.338   0.406   1.260
  138fsi     S1 1735   0.369   0.270   1.188
  138fsi      N 1736   0.494   0.305   1.099
  138fsi     O1 1737   0.399   0.179   1.295
  138fsi     O2 1738   0.253   0.245   1.108
  138fsi     S2 1739   0.641   0.330   1.148
  138fsi     O3 1740   0.647   0.422   1.259
  138fsi     O4 1741   0.732   0.352   1.040
  138fsi     F2 1742   0.685   0.190   1.207
  139fsi     F1 1743   0.941   1.549   0.164
  139fsi     S1 1744   0.934   1.393   0.170
  139fsi      N 1745   1.080   1.357   0.131
  139fsi     O1 1746   0.895   1.363   0.304
  139fsi     O2 1747   0.838   1.368   0.064
  139fsi     S2 1748   1.208   1.375   0.222
  139fsi     O3 1749   1.187   1.454   0.340
  139fsi     O4 1750   1.327   1.398   0.144
  139fsi     F2 1751   1.225   1.229   0.278
  140fsi     F1 1752   1.416   1.548   2.443
  140fsi     S1 1753   1.443   1.402   2.490
  140fsi      N 1754   1.392   1.313   2.370
  140fsi     O1 1755   1.585   1.398   2.511
  140fsi     O2 1756   1.357   1.389   2.605
  140fsi     S2 1757   1.478   1.245   2.256
  140fsi     O3 1758   1.590   1.320   2.209
  140fsi     O4 1759   1.401   1.174   2.159
  140fsi     F2 1760   1.546   1.126   2.332
  141fsi     F1 1761   1.635   1.906   2.930
  141fsi     S1 1762   1.790   1.916   2.911
  141fsi      N 1763   1.806   2.043   2.823
  141fsi     O1 1764   1.848   1.928   3.041
  141fsi     O2 1765   1.824   1.802   2.830
  141fsi     S2 1766   1.839   2.191   2.855
  141fsi     O3 1767   1.749   2.260   2.943
  141fsi     O4 1768   1.868   2.255   2.729
  141fsi     F2 1769   1.979   2.187   2.927
  142fsi     F1 1770   2.424   2.981   1.409
  142fsi     S1 1771   2.469   2.836   1.372
  142fsi      N 1772   2.532   2.850   1.229
  142fsi     O1 1773   2.560   2.798   1.476
  142fsi     O2 1774   2.344   2.766   1.368
  142fsi     S2 1775   2.682   2.872   1.188
  142fsi     O3 1776   2.766   2.930   1.288
  142fsi     O4 1777   2.692   2.922   1.053
  142fsi     F2 1778   2.736   2.725   1.175
  143fsi     F1 1779   0.832   0.827   1.899
  143fsi     S1 1780   0.975   0.867   1.946
  143fsi      N 1781   1.054   0.873   1.814
  143fsi     O1 1782   0.956   0.995   2.006
  143fsi     O2 1783   1.013   0.762   2.037
  143fsi     S2 1784   1.118   0.997   1.748
  143fsi     O3 1785   1.021   1.091   1.697
  143fsi     O4 1786   1.225   0.959   1.661
  143fsi     F2 1787   1.188   1.068   1.868
  144fsi     F1 1788   1.430   2.173   2.392
  144fsi     S1 1789   1.403   2.296   2.300
  144fsi      N 1790   1.336   2.398   2.399
  144fsi     O1 1791   1.533   2.340   2.256
  144fsi     O2 1792   1.310   2.248   2.201
  144fsi     S2 1793   1.392   2.532   2.454
  144fsi     O3 1794   1.508   2.521   2.537
  144fsi     O4 1795   1.291   2.622   2.502
  144fsi     F2 1796   1.442   2.606   2.325
  145fsi     F1 1797   0.954   1.427   1.872
  145fsi     S1 1798   0.918   1.500   2.005
  145fsi      N 1799   0.936   1.390   2.117
  145fsi     O1 1800   1.006   1.611   2.014
  145fsi     O2 1801   0.779   1.529   1.986
  145fsi     S2 1802   1.065   1.315   2.164
  145fsi     O3 1803   1.173   1.328   2.072
  145fsi     O4 1804   1.038   1.182   2.213
  145fsi     F2 1805   1.106   1.392   2.294
  146fsi     F1 1806   2.609   1.674   2.242
  146fsi     S1 1807   2.697   1.641   2.368
  146fsi      N 1808   2.817   1.565   2.302
  146fsi     O1 1809   2.729   1.767   2.426
  146fsi     O2 1810   2.614   1.557   2.449
  146fsi     S2 1811   2.945   1.629   2.238
  146fsi     O3 1812   2.930   1.765   2.196
  146fsi     O4 1813   3.011   1.538   2.148
  146fsi     F2 1814   3.043   1.638   2.360
  147fsi     F1 1815   1.382   0.476   1.858
  147fsi     S1 1816   1.489   0.592   1.857
  147fsi      N 1817   1.412   0.717   1.908
  147fsi     O1 1818   1.589   0.548   1.950
  147fsi     O2 1819   1.524   0.603   1.718
  147fsi     S2 1820   1.355   0.738   2.051
  147fsi     O3 1821   1.298   0.621   2.112
  147fsi     O4 1822   1.279   0.859   2.061
  147fsi     F2 1823   1.482   0.768   2.138
  148fsi     F1 1824   1.436   1.618   1.760
  148fsi     S1 1825   1.325   1.584   1.863
  148fsi      N 1826   1.206   1.550   1.767
  148fsi     O1 1827   1.378   1.473   1.935
  148fsi     O2 1828   1.302   1.706   1.933
  148fsi     S2 1829   1.203   1.429   1.672
  148fsi     O3 1830   1.328   1.394   1.611
  148fsi     O4 1831   1.088   1.427   1.587
  148fsi     F2 1832   1.173   1.313   1.770
  149fsi     F1 1833   0.397   1.517   2.493
  149fsi     S1 1834   0.254   1.564   2.445
  149fsi      N 1835   0.224   1.685   2.540
  149fsi     O1 1836   0.270   1.599   2.307
  149fsi     O2 1837   0.171   1.450   2.475
  149fsi     S2 1838   0.292   1.827   2.542
  149fsi     O3 1839   0.418   1.839   2.475
  149fsi     O4 1840   0.281   1.888   2.671
  149fsi     F2 1841   0.195   1.914   2.453
  150fsi     F1 1842   0.641   2.156   1.187
  150fsi     S1 1843   0.638   2.163   1.031
  150fsi      N 1844   0.525   2.061   0.994
  150fsi     O1 1845   0.605   2.298   0.996
  150fsi     O2 1846   0.769   2.118   0.994
  150fsi     S2 1847   0.376   2.092   0.953
  150fsi     O3 1848   0.312   2.194   1.031
  150fsi     O4 1849   0.300   1.974   0.927
  150fsi     F2 1850   0.394   2.158   0.812
  151fsi     F1 1851   2.346   1.992   1.002
  151fsi     S1 1852   2.498   2.031   1.010
  151fsi      N 1853   2.568   1.926   1.101
  151fsi     O1 1854   2.551   2.026   0.877
  151fsi     O2 1855   2.501   2.161   1.068
  151fsi     S2 1856   2.588   1.775   1.069
  151fsi     O3 1857   2.495   1.716   0.978
  151fsi     O4 1858   2.622   1.699   1.186
  151fsi     F2 1859   2.724   1.775   0.989
  152fsi     F1 1860   0.870   2.825   0.307
  152fsi     S1 1861   0.932   2.939   0.218
  152fsi      N 1862   1.041   3.003   0.309
  152fsi     O1 1863   0.986   2.872   0.102
  152fsi     O2 1864   0.823   3.029   0.192
  152fsi     S2 1865   1.181   2.942   0.341
  152fsi     O3 1866   1.176   2.799   0.353
  152fsi     O4 1867   1.256   3.013   0.441
  152fsi     F2 1868   1.263   2.968   0.209
  153fsi     F1 1869   0.566   0.812   2.291
  153fsi     S1 1870   0.687   0.732   2.235
  153fsi      N 1871   0.621   0.648   2.119
  153fsi     O1 1872   0.780   0.832   2.194
  153fsi     O2 1873   0.727   0.650   2.345
  153fsi     S2 1874   0.531   0.698   2.000
  153fsi     O3 1875   0.506   0.840   2.000
  153fsi     O4 1876   0.419   0.611   1.981
  153fsi     F2 1877   0.619   0.670   1.873
  154fsi     F1 1878   3.035   0.634   1.263
  154fsi     S1 1879   2.953   0.650   1.130
  154fsi      N 1880   3.007   0.532   1.041
  154fsi     O1 1881   2.817   0.636   1.170
  154fsi     O2 1882   2.994   0.779   1.081
  154fsi     S2 1883   2.935   0.400   0.995
  154fsi     O3 1884   2.854   0.337   1.095
  154fsi     O4 1885   3.023   0.317   0.917
  154fsi     F2 1886   2.831   0.451   0.888
  155fsi     F1 1887   1.397   1.815   0.756
  155fsi     S1 1888   1.430   1.691   0.665
  155fsi      N 1889   1.577   1.661   0.707
  155fsi     O1 1890   1.330   1.595   0.703
  155fsi     O2 1891   1.415   1.739   0.531
  155fsi     S2 1892   1.632   1.581   0.830
  155fsi     O3 1893   1.529   1.532   0.917
  155fsi     O4 1894   1.746   1.641   0.891
  155fsi     F2 1895   1.689   1.451   0.765
  156fsi     F1 1896   1.525   0.833   1.155
  156fsi     S1 1897   1.509   0.682   1.195
  156fsi      N 1898   1.357   0.667   1.225
  156fsi     O1 1899   1.546   0.612   1.076
  156fsi     O2 1900   1.595   0.668   1.310
  156fsi     S2 1901   1.248   0.683   1.114
  156fsi     O3 1902   1.271   0.796   1.029
  156fsi     O4 1903   1.114   0.658   1.162
  156fsi     F2 1904   1.273   0.560   1.018
  157fsi     F1 1905   1.274   1.917   0.037
  157fsi     S1 1906   1.274   1.800   0.141
  157fsi      N 1907   1.410   1.727   0.114
  157fsi     O1 1908   1.263   1.866   0.269
  157fsi     O2 1909   1.160   1.722   0.101
  157fsi     S2 1910   1.554   1.787   0.133
  157fsi     O3 1911   1.562   1.929   0.119
  157fsi     O4 1912   1.652   1.706   0.067
  157fsi     F2 1913   1.583   1.758   0.282
  158fsi     F1 1914   0.211   2.273   0.357
  158fsi     S1 1915   0.326   2.206   0.441
  158fsi      N 1916   0.399   2.110   0.340
  158fsi     O1 1917   0.407   2.315   0.489
  158fsi     O2 1918   0.255   2.133   0.542
  158fsi     S2 1919   0.465   2.142   0.201
  158fsi     O3 1920   0.411   2.254   0.131
  158fsi     O4 1921   0.485   2.021   0.125
  158fsi     F2 1922   0.611   2.187   0.239
  159fsi     F1 1923   2.007   1.491   1.585
  159fsi     S1 1924   1.886   1.470   1.490
  159fsi      N 1925   1.842   1.618   1.467
  159fsi     O1 1926   1.944   1.403   1.376
  159fsi     O2 1927   1.792   1.395   1.568
  159fsi     S2 1928   1.914   1.725   1.380
  159fsi     O3 1929   2.033   1.680   1.314
  159fsi     O4 1930   1.916   1.855   1.442
  159fsi     F2 1931   1.815   1.744   1.262
  160fsi     F1 1932   2.609   0.660   1.761
  160fsi     S1 1933   2.629   0.813   1.783
  160fsi      N 1934   2.786   0.827   1.793
  160fsi     O1 1935   2.570   0.877   1.669
  160fsi     O2 1936   2.569   0.839   1.911
  160fsi     S2 1937   2.897   0.820   1.682
  160fsi     O3 1938   2.851   0.794   1.549
  160fsi     O4 1939   3.014   0.749   1.728
  160fsi     F2 1940   2.946   0.969   1.676
  161fsi     F1 1941   1.251   0.238   2.578
  161fsi     S1 1942   1.116   0.161   2.566
  161fsi      N 1943   1.116   0.070   2.694
  161fsi     O1 1944   1.014   0.261   2.568
  161fsi     O2 1945   1.131   0.085   2.445
  161fsi     S2 1946   1.111   0.117   2.843
  161fsi     O3 1947   1.146   0.254   2.867
  161fsi     O4 1948   1.167   0.017   2.930
  161fsi     F2 1949   0.958   0.110   2.877
  162fsi     F1 1950   1.140   2.957   1.529
  162fsi     S1 1951   1.205   2.891   1.402
  162fsi      N 1952   1.346   2.956   1.394
  162fsi     O1 1953   1.203   2.752   1.430
  162fsi     O2 1954   1.120   2.934   1.294
  162fsi     S2 1955   1.482   2.909   1.458
  162fsi     O3 1956   1.485   2.774   1.508
  162fsi     O4 1957   1.537   3.011   1.543
  162fsi     F2 1958   1.579   2.904   1.335
  163fsi     F1 1959   2.113   0.628   0.802
  163fsi     S1 1960   2.225   0.632   0.693
  163fsi      N 1961   2.152   0.587   0.563
  163fsi     O1 1962   2.272   0.767   0.695
  163fsi     O2 1963   2.315   0.530   0.740
  163fsi     S2 1964   2.073   0.677   0.460
  163fsi     O3 1965   2.071   0.817   0.488
  163fsi     O4 1966   1.950   0.618   0.418
  163fsi     F2 1967   2.164   0.669   0.331
  164fsi     F1 1968   2.479   0.560   0.227
  164fsi     S1 1969   2.534   0.705   0.252
  164fsi      N 1970   2.681   0.683   0.301
  164fsi     O1 1971   2.523   0.767   0.122
  164fsi     O2 1972   2.455   0.756   0.360
  164fsi     S2 1973   2.805   0.653   0.210
  164fsi     O3 1974   2.774   0.588   0.087
  164fsi     O4 1975   2.920   0.606   0.283
  164fsi     F2 1976   2.850   0.797   0.167
  165fsi     F1 1977   1.892   1.047   0.844
  165fsi     S1 1978   1.978   0.917   0.829
  165fsi      N 1979   1.969   0.848   0.969
  165fsi     O1 1980   1.915   0.841   0.726
  165fsi     O2 1981   2.111   0.966   0.805
  165fsi     S2 1982   1.851   0.755   1.012
  165fsi     O3 1983   1.726   0.791   0.953
  165fsi     O4 1984   1.851   0.727   1.153
  165fsi     F2 1985   1.887   0.617   0.947
  166fsi     F1 1986   1.979   2.373   0.910
  166fsi     S1 1987   2.117   2.431   0.951
  166fsi      N 1988   2.078   2.575   1.004
  166fsi     O1 1989   2.167   2.344   1.052
  166fsi     O2 1990   2.194   2.431   0.830
  166fsi     S2 1991   2.039   2.617   1.149
  166fsi     O3 1992   1.964   2.522   1.226
  166fsi     O4 1993   1.994   2.754   1.162
  166fsi     F2 1994   2.175   2.619   1.221
  167fsi     F1 1995   0.383   1.120   2.589
  167fsi     S1 1996   0.397   0.972   2.537
  167fsi      N 1997   0.334   0.885   2.649
  167fsi     O1 1998   0.320   0.969   2.414
  167fsi     O2 1999   0.538   0.954   2.527
  167fsi     S2 2000   0.185   0.885   2.697
  167fsi     O3 2001   0.121   1.013   2.696
  167fsi     O4 2002   0.168   0.801   2.812
  167fsi     F2 2003   0.112   0.806   2.581
  168fsi     F1 2004   0.445   2.330   1.224
  168fsi     S1 2005   0.457   2.477   1.272
  168fsi      N 2006   0.320   2.538   1.230
  168fsi     O1 2007   0.475   2.463   1.414
  168fsi     O2 2008   0.563   2.535   1.195
  168fsi     S2 2009   0.177   2.509   1.286
  168fsi     O3 2010   0.172   2.422   1.401
  168fsi     O4 2011   0.083   2.490   1.180
  168fsi     F2 2012   0.137   2.649   1.345
  169fsi     F1 2013   1.632   1.500   0.278
  169fsi     S1 2014   1.689   1.471   0.421
  169fsi      N 2015   1.786   1.354   0.391
  169fsi     O1 2016   1.753   1.592   0.464
  169fsi     O2 2017   1.573   1.427   0.493
  169fsi     S2 2018   1.929   1.363   0.329
  169fsi     O3 2019   2.004   1.483   0.353
  169fsi     O4 2020   1.936   1.305   0.198
  169fsi     F2 2021   2.004   1.261   0.420
  170fsi     F1 2022   2.170   2.296   1.320
  170fsi     S1 2023   2.079   2.170   1.298
  170fsi      N 2024   2.033   2.144   1.445
  170fsi     O1 2025   1.974   2.217   1.213
  170fsi     O2 2026   2.173   2.078   1.241
  170fsi     S2 2027   1.913   2.206   1.525
  170fsi     O3 2028   1.869   2.331   1.472
  170fsi     O4 2029   1.934   2.208   1.666
  170fsi     F2 2030   1.793   2.109   1.503
  171fsi     F1 2031   2.428   2.155   1.863
  171fsi     S1 2032   2.420   1.998   1.870
  171fsi      N 2033   2.267   1.970   1.862
  171fsi     O1 2034   2.499   1.952   1.760
  171fsi     O2 2035   2.469   1.968   2.001
  171fsi     S2 2036   2.181   1.966   1.731
  171fsi     O3 2037   2.221   2.071   1.643
  171fsi     O4 2038   2.040   1.948   1.754
  171fsi     F2 2039   2.227   1.832   1.665
  172fsi     F1 2040   1.591   2.250   2.004
  172fsi     S1 2041   1.620   2.110   1.942
  172fsi      N 2042   1.488   2.035   1.966
  172fsi     O1 2043   1.656   2.140   1.807
  172fsi     O2 2044   1.722   2.061   2.027
  172fsi     S2 2045   1.367   2.028   1.870
  172fsi     O3 2046   1.357   2.138   1.779
  172fsi     O4 2047   1.251   1.991   1.944
  172fsi     F2 2048   1.394   1.908   1.778
  173fsi     F1 2049   0.615   0.837   1.501
  173fsi     S1 2050   0.576   0.959   1.591
  173fsi      N 2051   0.422   0.969   1.566
  173fsi     O1 2052   0.614   0.920   1.723
  173fsi     O2 2053   0.639   1.074   1.533
  173fsi     S2 2054   0.309   0.898   1.647
  173fsi     O3 2055   0.352   0.777   1.711
  173fsi     O4 2056   0.189   0.896   1.569
  173fsi     F2 2057   0.279   0.998   1.765
  174fsi     F1 2058   1.017   2.162   0.291
  174fsi     S1 2059   1.052   2.214   0.148
  174fsi      N 2060   0.955   2.335   0.130
  174fsi     O1 2061   1.190   2.253   0.155
  174fsi     O2 2062   1.016   2.104   0.061
  174fsi     S2 2063   0.970   2.479   0.191
  174fsi     O3 2064   1.031   2.484   0.321
  174fsi     O4 2065   0.851   2.556   0.171
  174fsi     F2 2066   1.075   2.547   0.097
  175fsi     F1 2067   1.996   1.694   0.112
  175fsi     S1 2068   2.087   1.791   0.196
  175fsi      N 2069   2.220   1.709   0.215
  175fsi     O1 2070   2.103   1.906   0.112
  175fsi     O2 2071   2.015   1.807   0.318
  175fsi     S2 2072   2.366   1.744   0.174
  175fsi     O3 2073   2.385   1.830   0.059
  175fsi     O4 2074   2.454   1.630   0.180
  175fsi     F2 2075   2.415   1.833   0.294
  176fsi     F1 2076   2.404   2.583   0.142
  176fsi     S1 2077   2.448   2.726   0.191
  176fsi      N 2078   2.515   2.696   0.330
  176fsi     O1 2079   2.538   2.771   0.087
  176fsi     O2 2080   2.324   2.799   0.206
  176fsi     S2 2081   2.665   2.661   0.362
  176fsi     O3 2082   2.737   2.601   0.253
  176fsi     O4 2083   2.678   2.600   0.491
  176fsi     F2 2084   2.731   2.803   0.381
  177fsi     F1 2085   2.823   0.860   2.520
  177fsi     S1 2086   2.800   0.777   2.388
  177fsi      N 2087   2.760   0.886   2.285
  177fsi     O1 2088   2.926   0.712   2.362
  177fsi     O2 2089   2.686   0.694   2.417
  177fsi     S2 2090   2.848   0.967   2.184
  177fsi     O3 2091   2.988   0.980   2.218
  177fsi     O4 2092   2.779   1.086   2.142
  177fsi     F2 2093   2.849   0.876   2.058
  178fsi     F1 2094   2.016   1.658   2.146
  178fsi     S1 2095   2.086   1.795   2.122
  178fsi      N 2096   2.229   1.751   2.074
  178fsi     O1 2097   2.011   1.863   2.023
  178fsi     O2 2098   2.083   1.856   2.251
  178fsi     S2 2099   2.244   1.644   1.962
  178fsi     O3 2100   2.143   1.641   1.862
  178fsi     O4 2101   2.290   1.522   2.020
  178fsi     F2 2102   2.370   1.694   1.882
  179fsi     F1 2103   1.026   1.271   0.758
  179fsi     S1 2104   1.016   1.413   0.821
  179fsi      N 2105   0.896   1.396   0.919
  179fsi     O1 2106   1.142   1.433   0.885
  179fsi     O2 2107   0.988   1.492   0.704
  179fsi     S2 2108   0.902   1.316   1.053
  179fsi     O3 2109   0.975   1.193   1.038
  179fsi     O4 2110   0.776   1.308   1.121
  179fsi     F2 2111   0.993   1.406   1.144
  180fsi     F1 2112   1.316   1.361   1.335
  180fsi     S1 2113   1.283   1.210   1.312
  180fsi      N 2114   1.420   1.135   1.297
  180fsi     O1 2115   1.207   1.173   1.428
  180fsi     O2 2116   1.213   1.210   1.188
  180fsi     S2 2117   1.488   1.044   1.403
  180fsi     O3 2118   1.463   1.079   1.539
  180fsi     O4 2119   1.620   0.997   1.371
  180fsi     F2 2120   1.405   0.913   1.387
  181fsi     F1 2121   1.598   1.774   2.604
  181fsi     S1 2122   1.562   1.920   2.559
  181fsi      N 2123   1.703   1.988   2.541
  181fsi     O1 2124   1.490   1.904   2.437
  181fsi     O2 2125   1.490   1.977   2.670
  181fsi     S2 2126   1.771   2.041   2.411
  181fsi     O3 2127   1.742   1.973   2.289
  181fsi     O4 2128   1.908   2.076   2.435
  181fsi     F2 2129   1.706   2.181   2.394
  182fsi     F1 2130   2.480   0.398   2.669
  182fsi     S1 2131   2.501   0.252   2.619
  182fsi      N 2132   2.420   0.249   2.485
  182fsi     O1 2133   2.643   0.238   2.601
  182fsi     O2 2134   2.441   0.170   2.720
  182fsi     S2 2135   2.453   0.317   2.348
  182fsi     O3 2136   2.538   0.434   2.357
  182fsi     O4 2137   2.340   0.327   2.261
  182fsi     F2 2138   2.543   0.209   2.279
  183fsi     F1 2139   2.831   2.567   2.066
  183fsi     S1 2140   2.702   2.618   1.993
  183fsi      N 2141   2.760   2.740   1.916
  183fsi     O1 2142   2.656   2.506   1.917
  183fsi     O2 2143   2.619   2.664   2.102
  183fsi     S2 2144   2.866   2.738   1.799
  183fsi     O3 2145   2.897   2.607   1.749
  183fsi     O4 2146   2.976   2.824   1.833
  183fsi     F2 2147   2.793   2.810   1.681
  184fsi     F1 2148   1.309   2.196   1.026
  184fsi     S1 2149   1.202   2.305   1.057
  184fsi      N 2150   1.211   2.318   1.212
  184fsi     O1 2151   1.250   2.420   0.984
  184fsi     O2 2152   1.078   2.245   1.018
  184fsi     S2 2153   1.256   2.434   1.305
  184fsi     O3 2154   1.321   2.544   1.240
  184fsi     O4 2155   1.312   2.385   1.427
  184fsi     F2 2156   1.121   2.499   1.347
  185fsi     F1 2157   2.297   1.316   2.202
  185fsi     S1 2158   2.408   1.372   2.293
  185fsi      N 2159   2.455   1.244   2.371
  185fsi     O1 2160   2.510   1.413   2.201
  185fsi     O2 2161   2.343   1.471   2.374
  185fsi     S2 2162   2.427   1.098   2.322
  185fsi     O3 2163   2.477   1.074   2.189
  185fsi     O4 2164   2.296   1.053   2.355
  185fsi     F2 2165   2.522   1.013   2.413
  186fsi     F1 2166   0.981   2.660   1.564
  186fsi     S1 2167   0.965   2.528   1.645
  186fsi      N 2168   0.838   2.464   1.577
  186fsi     O1 2169   1.088   2.459   1.623
  186fsi     O2 2170   0.942   2.580   1.777
  186fsi     S2 2171   0.834   2.344   1.474
  186fsi     O3 2172   0.960   2.302   1.422
  186fsi     O4 2173   0.730   2.358   1.377
  186fsi     F2 2174   0.786   2.222   1.559
  187fsi     F1 2175   1.473   1.086   0.081
  187fsi     S1 2176   1.579   1.133   0.187
  187fsi      N 2177   1.659   0.999   0.217
  187fsi     O1 2178   1.648   1.238   0.118
  187fsi     O2 2179   1.498   1.168   0.300
  187fsi     S2 2180   1.807   0.955   0.188
  187fsi     O3 2181   1.869   1.010   0.071
  187fsi     O4 2182   1.825   0.814   0.210
  187fsi     F2 2183   1.888   1.019   0.306
  188fsi     F1 2184   3.057   0.108   1.442
  188fsi     S1 2185   2.979   0.243   1.465
  188fsi      N 2186   2.833   0.205   1.423
  188fsi     O1 2187   2.996   0.267   1.606
  188fsi     O2 2188   3.044   0.333   1.374
  188fsi     S2 2189   2.717   0.156   1.515
  188fsi     O3 2190   2.759   0.085   1.633
  188fsi     O4 2191   2.609   0.097   1.441
  188fsi     F2 2192   2.657   0.291   1.568
  189fsi     F1 2193   2.565   0.074   0.666
  189fsi     S1 2194   2.450   0.168   0.615
  189fsi      N 2195   2.506   0.312   0.636
  189fsi     O1 2196   2.428   0.129   0.479
  189fsi     O2 2197   2.341   0.147   0.706
  189fsi     S2 2198   2.561   0.413   0.529
  189fsi     O3 2199   2.633   0.355   0.419
  189fsi     O4 2200   2.614   0.533   0.587
  189fsi     F2 2201   2.426   0.462   0.466
  190fsi     F1 2202   1.588   1.769   1.909
  190fsi     S1 2203   1.713   1.680   1.928
  190fsi      N 2204   1.753   1.720   2.074
  190fsi     O1 2205   1.669   1.546   1.912
  190fsi     O2 2206   1.803   1.734   1.829
  190fsi     S2 2207   1.713   1.641   2.203
  190fsi     O3 2208   1.573   1.613   2.213
  190fsi     O4 2209   1.781   1.684   2.322
  190fsi     F2 2210   1.782   1.503   2.179
  191fsi     F1 2211   0.801   1.149   0.823
  191fsi     S1 2212   0.675   1.204   0.754
  191fsi      N 2213   0.641   1.082   0.664
  191fsi     O1 2214   0.582   1.229   0.860
  191fsi     O2 2215   0.719   1.313   0.672
  191fsi     S2 2216   0.559   0.959   0.709
  191fsi     O3 2217   0.580   0.920   0.845
  191fsi     O4 2218   0.565   0.857   0.608
  191fsi     F2 2219   0.411   1.010   0.704
  192fsi     F1 2220   1.604   2.823   2.310
  192fsi     S1 2221   1.723   2.921   2.281
  192fsi      N 2222   1.821   2.837   2.192
  192fsi     O1 2223   1.658   3.030   2.215
  192fsi     O2 2224   1.776   2.945   2.412
  192fsi     S2 2225   1.809   2.812   2.037
  192fsi     O3 2226   1.702   2.882   1.972
  192fsi     O4 2227   1.823   2.671   2.007
  192fsi     F2 2228   1.938   2.878   1.979
  193fsi     F1 2229   2.035   1.649   2.934
  193fsi     S1 2230   2.009   1.494   2.929
  193fsi      N 2231   1.857   1.478   2.967
  193fsi     O1 2232   2.043   1.461   2.793
  193fsi     O2 2233   2.101   1.444   3.028
  193fsi     S2 2234   1.729   1.474   2.875
  193fsi     O3 2235   1.754   1.509   2.738
  193fsi     O4 2236   1.611   1.527   2.936
  193fsi     F2 2237   1.693   1.321   2.870
  194fsi     F1 2238   1.114   0.383   0.127
  194fsi     S1 2239   1.152   0.238   0.176
  194fsi      N 2240   1.301   0.223   0.128
  194fsi     O1 2241   1.132   0.242   0.318
  194fsi     O2 2242   1.065   0.153   0.100
  194fsi     S2 2243   1.433   0.259   0.205
  194fsi     O3 2244   1.411   0.335   0.325
  194fsi     O4 2245   1.539   0.302   0.118
  194fsi     F2 2246   1.481   0.118   0.255
  195fsi     F1 2247   2.482   1.486   1.409
  195fsi     S1 2248   2.338   1.546   1.414
  195fsi      N 2249   2.372   1.697   1.433
  195fsi     O1 2250   2.286   1.502   1.287
  195fsi     O2 2251   2.284   1.485   1.532
  195fsi     S2 2252   2.333   1.820   1.344
  195fsi     O3 2253   2.297   1.789   1.209
  195fsi     O4 2254   2.422   1.931   1.365
  195fsi     F2 2255   2.202   1.870   1.410
  196fsi     F1 2256   1.711   0.940   2.450
  196fsi     S1 2257   1.761   1.012   2.581
  196fsi      N 2258   1.902   1.068   2.538
  196fsi     O1 2259   1.662   1.111   2.607
  196fsi     O2 2260   1.771   0.904   2.675
  196fsi     S2 2261   1.932   1.211   2.482
  196fsi     O3 2262   1.845   1.253   2.377
  196fsi     O4 2263   2.072   1.239   2.464
  196fsi     F2 2264   1.896   1.307   2.598
  197fsi     F1 2265   1.034   1.858   1.831
  197fsi     S1 2266   0.923   1.950   1.894
  197fsi      N 2267   0.992   2.089   1.918
  197fsi     O1 2268   0.818   1.953   1.796
  197fsi     O2 2269   0.895   1.892   2.022
  197fsi     S2 2270   1.037   2.192   1.809
  197fsi     O3 2271   1.060   2.139   1.678
  197fsi     O4 2272   1.130   2.287   1.864
  197fsi     F2 2273   0.907   2.275   1.795
  198fsi     F1 2274   2.447   0.049   1.809
  198fsi     S1 2275   2.379   0.183   1.853
  198fsi      N 2276   2.228   0.159   1.814
  198fsi     O1 2277   2.407   0.187   1.993
  198fsi     O2 2278   2.446   0.279   1.770
  198fsi     S2 2279   2.106   0.120   1.906
  198fsi     O3 2280   2.140   0.037   2.017
  198fsi     O4 2281   1.991   0.081   1.830
  198fsi     F2 2282   2.062   0.257   1.970
  199fsi     F1 2283   1.237   0.848   2.817
  199fsi     S1 2284   1.134   0.891   2.927
  199fsi      N 2285   1.005   0.924   2.844
  199fsi     O1 2286   1.124   0.775   3.011
  199fsi     O2 2287   1.192   1.010   2.983
  199fsi     S2 2288   0.888   0.829   2.799
  199fsi     O3 2289   0.916   0.688   2.801
  199fsi     O4 2290   0.822   0.880   2.682
  199fsi     F2 2291   0.781   0.849   2.913
  200fsi     F1 2292   2.554   0.600   1.183
  200fsi     S1 2293   2.502   0.665   1.316
  200fsi      N 2294   2.601   0.782   1.338
  200fsi     O1 2295   2.368   0.703   1.281
  200fsi     O2 2296   2.518   0.562   1.414
  200fsi     S2 2297   2.615   0.913   1.256
  200fsi     O3 2298   2.519   0.935   1.152
  200fsi     O4 2299   2.752   0.948   1.230
  200fsi     F2 2300   2.570   1.018   1.360
   3.08570   3.08570   3.08570
