simbox
 2300
    1Li      Li    1   1.737   1.627   2.867  1.0140 -0.5593 -0.8480
    2Li      Li    2   0.858   2.702   2.681  0.2490  0.5830 -0.7051
    3Li      Li    3   1.923   0.633   0.736 -0.2399 -0.2138 -0.2849
    4Li      Li    4   1.688   0.460   0.127  0.9837 -0.8450 -0.5703
    5Li      Li    5   1.835   0.047   2.813  0.4652 -0.1605 -0.0588
    6Li      Li    6   1.058   0.652   1.736 -0.3725 -0.6732 -0.0426
    7Li      Li    7   2.023   2.422   2.709 -1.3311 -1.0248 -0.4505
    8Li      Li    8   1.086   0.156   0.110  0.8247  0.3614 -0.3864
    9Li      Li    9   1.326   1.476   2.460 -0.0887 -0.2032  0.0450
   10Li      Li   10   0.011   2.815   1.674 -0.0139  0.1959 -0.2532
   11Li      Li   11   2.903   1.929   1.787  0.0134 -1.6392  0.3899
   12Li      Li   12   0.035   0.734   2.582  0.3952 -0.1640  0.0129
   13Li      Li   13   0.630   2.601   1.179 -0.0926  0.2955 -0.3585
   14Li      Li   14   1.677   0.308   1.432  0.9092  0.1129  0.1334
   15Li      Li   15   0.450   2.770   2.375  0.9210 -0.4962  0.0801
   16Li      Li   16   1.446   1.852   1.854  0.3231 -0.3276  0.5476
   17Li      Li   17   0.204   0.917   2.349  0.1303  0.8250 -1.3104
   18Li      Li   18   2.245   2.762   2.402 -0.7533 -0.8654 -0.0446
   19Li      Li   19   0.772   2.286   1.026  1.0597 -0.3634 -0.5014
   20Li      Li   20   2.254   0.568   0.424  0.9959  1.1342  0.1350
   21Li      Li   21   0.947   1.484   0.980 -0.4342 -0.0100  1.0150
   22Li      Li   22   2.859   2.850   1.229 -0.0881 -0.6304 -0.4700
   23Li      Li   23   1.342   0.564   1.186  0.9118  0.2119  0.1959
   24Li      Li   24   1.921   2.111   0.263  0.5062 -0.3483 -0.0287
   25Li      Li   25   1.415   1.860   2.284 -0.1674  0.0378  0.0351
   26Li      Li   26   2.037   0.752   0.157  0.8345  0.8116 -0.0058
   27Li      Li   27   1.736   2.597   1.543 -0.8836 -0.8213 -0.3045
   28Li      Li   28   1.424   1.277   0.106  0.8466  0.5404 -0.0711
   29Li      Li   29   0.998   0.959   2.248 -0.4286  0.3909  1.2793
   30Li      Li   30   2.725   1.626   0.966  0.1979  0.7807  0.2121
   31Li      Li   31   2.216   1.266   2.111 -0.0349  0.0975 -0.8251
   32Li      Li   32   1.288   1.453   0.571 -0.2381  0.1451 -0.4241
   33Li      Li   33   0.952   1.474   1.983  0.6194 -0.6233 -1.0396
   34Li      Li   34   1.210   2.955   2.484  0.5406 -0.7118 -0.4284
   35Li      Li   35   2.323   1.705   1.402  1.3541  0.5625  0.0028
   36Li      Li   36   2.566   0.904   2.227 -0.5795  0.2976 -0.1701
   37Li      Li   37   1.412   2.478   1.101 -0.0541  0.9313 -0.4854
   38Li      Li   38   0.260   1.989   0.904 -0.0002  0.3551  0.1868
   39Li      Li   39   1.875   1.178   0.275  1.0062  0.2184  0.0125
   40Li      Li   40   0.336   0.902   0.027  0.3994  0.1688  0.5962
   41Li      Li   41   1.291   2.341   2.361  0.3702  0.0918  0.0833
   42Li      Li   42   1.811   1.225   2.532 -0.2260 -0.5679 -0.1726
   43Li      Li   43   2.989   0.808   1.116 -0.5416 -0.2170  0.8086
   44Li      Li   44   1.696   2.373   0.723  0.3190 -1.4916  0.5019
   45Li      Li   45   1.949   1.429   1.846 -1.0970 -0.2374 -0.8766
   46Li      Li   46   2.884   2.642   2.940  1.8396 -0.8004  1.1584
   47Li      Li   47   0.680   0.858   1.168 -0.0539  0.5078 -0.0196
   48Li      Li   48   1.117   1.126   1.572  0.2937  0.7362 -0.4831
   49Li      Li   49   1.751   2.651   2.186 -0.7980 -0.4598 -0.5171
   50Li      Li   50   1.836   2.073   1.315 -0.8853  0.0603 -0.1591
   51c3c      N   51   2.679   0.116   2.865  0.0086 -0.0102 -0.5810
   51c3c     C1   52   2.727   0.254   2.880 -0.2004  0.2596  0.0448
   51c3c     C2   53   2.759   0.053   2.769 -0.2599 -0.2371 -0.4437
   51c3c     C3   54   2.876   0.255   2.846  0.0726  0.1106 -0.7370
   51c3c     C4   55   2.900   0.121   2.785 -0.5173  0.0213 -0.0398
   51c3c     C5   56   2.697   0.052   2.997  0.1596 -0.1822  0.4283
   51c3c     C6   57   2.534   0.094   2.845  0.1528  0.0608 -0.2227
   51c3c     H1   58   2.713   0.301   2.977  2.0138 -2.0391  1.5326
   51c3c     H2   59   2.678   0.318   2.806 -0.0326  0.6749  0.2880
   51c3c     H3   60   2.765  -0.055   2.781  3.1907  0.0651  1.2322
   51c3c     H4   61   2.728   0.068   2.665  1.6818  2.6329 -0.6645
   51c3c     H5   62   2.942   0.256   2.933  0.8957 -1.6905 -1.3249
   51c3c     H6   63   2.902   0.337   2.779 -0.5221  0.3509 -0.6734
   51c3c     H7   64   2.968   0.062   2.846 -0.3909  0.2764  0.0664
   51c3c     H8   65   2.949   0.149   2.692 -0.4262 -1.2128 -0.3623
   51c3c     H9   66   2.625   0.082   3.072  0.1433  0.3552  0.1964
   51c3c    H10   67   2.665  -0.052   3.004  1.3422 -0.5985 -0.1372
   51c3c    H11   68   2.796   0.074   3.036  0.6235 -0.2661 -0.6882
   51c3c    H12   69   2.506  -0.005   2.810  0.1404 -0.2475  0.6743
   51c3c    H13   70   2.484   0.114   2.939  0.5920  3.0549 -0.5795
   51c3c     C7   71   2.462   0.180   2.741  1.1102 -0.0872  0.0803
   51c3c    H14   72   2.486   0.150   2.640 -0.7245  1.1968 -0.7748
   51c3c    H15   73   2.480   0.288   2.746  1.0280 -0.0414 -0.6620
   51c3c     C8   74   2.313   0.145   2.733 -0.6177  0.0910 -0.1587
   51c3c    H16   75   2.256   0.165   2.823 -0.8906 -0.3965 -0.2213
   51c3c    H17   76   2.292   0.038   2.720  0.1839 -0.3821  2.2655
   51c3c    H18   77   2.271   0.202   2.650 -0.2245  2.9150  1.5488
   52c3c      N   78   1.833   2.955   0.498  0.6621  0.3902 -0.7760
   52c3c     C1   79   1.736   2.941   0.605 -0.1754 -0.7748 -0.2415
   52c3c     C2   80   1.870   2.816   0.472 -0.3574 -0.3662 -0.1293
   52c3c     C3   81   1.650   2.812   0.574  0.5089  0.8936 -0.3501
   52c3c     C4   82   1.734   2.741   0.462 -0.7904 -0.1543  0.3059
   52c3c     C5   83   1.769   3.002   0.373 -0.6233 -1.0011 -0.7428
   52c3c     C6   84   1.939   3.047   0.529 -0.3980 -0.5374  0.0511
   52c3c     H1   85   1.666   3.024   0.612  0.7250 -0.1776  2.2638
   52c3c     H2   86   1.786   2.945   0.702  0.8834  1.1561 -0.8604
   52c3c     H3   87   1.932   2.808   0.383  1.0785 -0.4616  0.8433
   52c3c     H4   88   1.930   2.787   0.559 -0.1997  2.0600  0.6008
   52c3c     H5   89   1.558   2.851   0.531 -0.0233  0.6725  0.5640
   52c3c     H6   90   1.631   2.734   0.648 -3.4841  0.4344 -1.7285
   52c3c     H7   91   1.694   2.747   0.361 -1.8027 -0.2112  0.6978
   52c3c     H8   92   1.749   2.636   0.488 -1.2317 -0.2630  0.1342
   52c3c     H9   93   1.716   3.096   0.390 -0.1035 -0.7200 -0.6557
   52c3c    H10   94   1.851   3.025   0.306 -1.9650  0.0732 -2.0410
   52c3c    H11   95   1.697   2.941   0.320 -0.5480 -1.4680 -0.3181
   52c3c    H12   96   2.000   3.074   0.443 -2.2004 -0.0076 -1.0790
   52c3c    H13   97   1.898   3.145   0.554  1.9383  0.0764  1.6931
   52c3c     C7   98   2.035   3.026   0.641 -0.6550  0.4307  0.2288
   52c3c    H14   99   2.072   2.924   0.636  0.1010  0.7412 -0.7448
   52c3c    H15  100   1.990   3.005   0.738  0.0586 -0.3069  0.4037
   52c3c     C8  101   2.142   3.135   0.652  0.2769 -0.4975  0.3551
   52c3c    H16  102   2.098   3.233   0.636 -1.0218 -1.3022 -1.1331
   52c3c    H17  103   2.222   3.121   0.579 -0.2714 -0.4596 -0.2645
   52c3c    H18  104   2.191   3.147   0.749  0.6075  2.0685 -0.1135
   53c3c      N  105   2.565   1.145   0.811  0.4256  0.0801  0.3900
   53c3c     C1  106   2.592   1.022   0.732  0.0267 -0.4507 -0.2772
   53c3c     C2  107   2.514   1.088   0.936  0.0130 -0.1614  0.4707
   53c3c     C3  108   2.636   0.910   0.822  0.1470  0.3012 -0.3552
   53c3c     C4  109   2.593   0.955   0.957  0.2589  0.2680 -0.0649
   53c3c     C5  110   2.693   1.216   0.838 -0.2068 -0.3514  0.1016
   53c3c     C6  111   2.471   1.244   0.747 -0.2997  0.4153 -0.2808
   53c3c     H1  112   2.673   1.033   0.660  0.1102  2.3570  0.1601
   53c3c     H2  113   2.507   0.986   0.675  0.7017 -3.2306  0.4234
   53c3c     H3  114   2.515   1.155   1.021 -0.4305  1.6026 -0.8793
   53c3c     H4  115   2.410   1.056   0.922 -0.1433 -0.3771  2.0944
   53c3c     H5  116   2.745   0.909   0.826  0.3132  6.3686  0.5069
   53c3c     H6  117   2.591   0.814   0.795 -2.2319  1.2480  0.1904
   53c3c     H7  118   2.673   0.985   1.024  1.4567  0.8339 -1.6985
   53c3c     H8  119   2.518   0.895   1.008  0.3809 -0.4652 -0.7266
   53c3c     H9  120   2.738   1.254   0.747  0.7971  0.8664  1.0909
   53c3c    H10  121   2.667   1.299   0.905 -2.5045 -0.0514 -1.1013
   53c3c    H11  122   2.781   1.169   0.881  0.4668  0.3997 -0.4621
   53c3c    H12  123   2.441   1.321   0.819 -0.4003  0.1483 -0.0356
   53c3c    H13  124   2.525   1.290   0.664 -0.9724  1.1804 -0.3009
   53c3c     C7  125   2.337   1.193   0.688 -0.0075 -0.1749 -0.6110
   53c3c    H14  126   2.268   1.155   0.764 -0.4350  1.1992 -0.2968
   53c3c    H15  127   2.371   1.119   0.616 -1.2119  0.1808 -1.5574
   53c3c     C8  128   2.254   1.300   0.608 -0.2765 -0.2074 -0.1801
   53c3c    H16  129   2.223   1.384   0.671 -0.4171  0.6605 -1.4007
   53c3c    H17  130   2.164   1.256   0.566 -1.7644  2.1217  0.4602
   53c3c    H18  131   2.306   1.325   0.516 -0.8840 -3.3659 -1.4358
   54c3c      N  132   0.388   1.435   0.397 -0.1798  0.0202  0.4863
   54c3c     C1  133   0.445   1.525   0.301  0.7588  1.0764 -0.2372
   54c3c     C2  134   0.444   1.305   0.355  0.1622 -0.5241 -0.1436
   54c3c     C3  135   0.586   1.466   0.277  0.1856  0.2355 -0.2074
   54c3c     C4  136   0.590   1.323   0.310 -0.1793  0.3019  0.0900
   54c3c     C5  137   0.441   1.461   0.532 -0.0390 -0.4416 -0.1653
   54c3c     C6  138   0.235   1.449   0.399  0.1152  0.0424 -0.0974
   54c3c     H1  139   0.440   1.625   0.342 -2.2467  0.6268  0.6398
   54c3c     H2  140   0.399   1.519   0.202  0.8260  1.6514 -0.3021
   54c3c     H3  141   0.432   1.223   0.426 -0.0704 -0.4283 -0.0695
   54c3c     H4  142   0.380   1.276   0.271 -1.2006  3.6880 -0.6475
   54c3c     H5  143   0.661   1.524   0.331  0.5367  0.7741 -1.2450
   54c3c     H6  144   0.609   1.473   0.171  0.1063 -1.2833 -0.3336
   54c3c     H7  145   0.649   1.299   0.399  0.1976  2.3563  0.4120
   54c3c     H8  146   0.611   1.266   0.219  0.6525 -1.2708  1.2442
   54c3c     H9  147   0.376   1.410   0.603 -0.0992  0.6809  0.6194
   54c3c    H10  148   0.543   1.432   0.557  0.4364  0.4210 -1.0631
   54c3c    H11  149   0.422   1.565   0.558 -1.8159 -1.0982  1.2161
   54c3c    H12  150   0.194   1.380   0.473 -2.2848 -0.9303 -2.2542
   54c3c    H13  151   0.216   1.553   0.424  0.6957  0.0104  0.4698
   54c3c     C7  152   0.153   1.418   0.274 -1.3694  0.1490 -0.2869
   54c3c    H14  153   0.158   1.312   0.253 -1.2693 -0.3771  2.2387
   54c3c    H15  154   0.191   1.467   0.184  1.2686 -0.7647  0.3044
   54c3c     C8  155   0.003   1.460   0.283  0.1204  0.2592 -0.4682
   54c3c    H16  156  -0.051   1.431   0.193  0.6094 -0.4275 -0.5487
   54c3c    H17  157   0.001   1.567   0.300  0.1949  0.3049 -0.7410
   54c3c    H18  158  -0.039   1.410   0.370  2.9169 -1.6400 -0.1405
   55c3c      N  159   0.975   2.753   0.464 -0.0345  0.0190  0.3891
   55c3c     C1  160   0.936   2.890   0.504 -0.1556 -0.4477 -0.9289
   55c3c     C2  161   0.860   2.671   0.506 -0.3464  0.3063  0.2976
   55c3c     C3  162   0.785   2.898   0.476 -0.0155  0.4278  0.5776
   55c3c     C4  163   0.737   2.757   0.492  0.3799  0.0838  0.7449
   55c3c     C5  164   0.973   2.754   0.318 -0.1721 -0.6199  0.4642
   55c3c     C6  165   1.104   2.710   0.523  0.3493  0.4734  0.2377
   55c3c     H1  166   0.992   2.965   0.448  0.3396  1.5529  2.1245
   55c3c     H2  167   0.954   2.922   0.607  2.9445  0.6258 -1.7445
   55c3c     H3  168   0.857   2.574   0.456 -1.4009 -0.2658  1.4470
   55c3c     H4  169   0.857   2.647   0.612 -2.0663 -1.0564 -0.0350
   55c3c     H5  170   0.775   2.938   0.375  1.5641 -2.1990 -0.6554
   55c3c     H6  171   0.735   2.962   0.549  0.4941  0.5469  0.8290
   55c3c     H7  172   0.682   2.727   0.403  0.7352  1.6348 -0.0177
   55c3c     H8  173   0.680   2.744   0.584 -0.7590 -0.1462  0.0131
   55c3c     H9  174   1.040   2.830   0.278 -0.2809 -1.5592 -1.5521
   55c3c    H10  175   1.025   2.665   0.284 -1.2782 -0.4950 -1.6116
   55c3c    H11  176   0.885   2.776   0.258 -0.1207  1.7933  1.2314
   55c3c    H12  177   1.118   2.603   0.507 -0.2592  0.5134 -0.6055
   55c3c    H13  178   1.191   2.757   0.477  0.2343  1.5334  1.0964
   55c3c     C7  179   1.118   2.733   0.671  0.4739 -0.1199  0.1447
   55c3c    H14  180   1.026   2.713   0.727 -0.6050 -2.9953 -2.5179
   55c3c    H15  181   1.140   2.838   0.692 -3.0970  0.7865 -0.3126
   55c3c     C8  182   1.228   2.667   0.751 -0.5487 -0.0006  0.1000
   55c3c    H16  183   1.219   2.705   0.853  0.3922  1.6402 -0.4157
   55c3c    H17  184   1.330   2.689   0.720  0.2393  0.4221  2.8721
   55c3c    H18  185   1.210   2.559   0.745 -1.0280 -0.1248  3.1067
   56c3c      N  186   1.880   1.864   0.667 -0.1439  0.7861  0.3425
   56c3c     C1  187   1.959   1.897   0.549  0.3113  0.6732  0.0777
   56c3c     C2  188   1.932   1.732   0.709 -0.6809  0.2415 -0.4410
   56c3c     C3  189   1.962   1.760   0.469 -0.1682  0.1072 -0.1913
   56c3c     C4  190   1.978   1.656   0.577  0.2443 -0.1197 -0.5994
   56c3c     C5  191   1.907   1.967   0.766 -0.1133  0.3171  0.4288
   56c3c     C6  192   1.733   1.857   0.645 -0.8357 -0.4997 -0.2603
   56c3c     H1  193   2.058   1.911   0.591  0.5169  3.1185 -1.1064
   56c3c     H2  194   1.926   1.980   0.485 -0.3229  0.9668  0.7839
   56c3c     H3  195   2.014   1.755   0.776 -0.0411 -3.3148  0.1128
   56c3c     H4  196   1.857   1.676   0.766 -0.8392 -0.2961 -1.1690
   56c3c     H5  197   2.053   1.751   0.409 -0.4567 -0.0214 -0.6121
   56c3c     H6  198   1.877   1.749   0.402 -1.0091  0.9811  0.7250
   56c3c     H7  199   2.078   1.613   0.583 -1.4670 -4.3026 -0.3597
   56c3c     H8  200   1.918   1.569   0.547 -0.4076 -0.0761  0.5425
   56c3c     H9  201   1.888   2.062   0.716 -1.8811 -0.1331  0.2194
   56c3c    H10  202   1.847   1.963   0.857  3.0748 -1.9845  2.5188
   56c3c    H11  203   2.009   1.965   0.804  0.2691  1.4048 -0.4940
   56c3c    H12  204   1.701   1.758   0.614 -2.4606  0.5980 -2.1619
   56c3c    H13  205   1.685   1.872   0.742  0.2034  1.0588  0.0291
   56c3c     C7  206   1.666   1.951   0.537 -0.1533  0.0648 -0.1429
   56c3c    H14  207   1.707   1.926   0.440  0.7905 -3.3274  1.0640
   56c3c    H15  208   1.694   2.054   0.557  1.7849 -0.0142 -2.2359
   56c3c     C8  209   1.515   1.927   0.515  0.3580  0.1376  0.2174
   56c3c    H16  210   1.489   1.830   0.473  2.0631 -1.5023  2.8662
   56c3c    H17  211   1.468   2.000   0.448  0.3922 -0.0190  0.0222
   56c3c    H18  212   1.475   1.944   0.615 -2.1460 -0.0903 -0.7029
   57c3c      N  213   0.088   0.587   1.716 -0.1526 -0.3836 -0.2096
   57c3c     C1  214   0.026   0.700   1.793 -0.0278 -0.0251 -0.6093
   57c3c     C2  215   0.023   0.471   1.781  0.7150 -0.1932 -0.2922
   57c3c     C3  216  -0.124   0.666   1.795  0.1262 -0.6564 -0.3249
   57c3c     C4  217  -0.124   0.512   1.795 -0.3538  0.3672  0.2371
   57c3c     C5  218   0.054   0.593   1.576 -0.6082  0.2647  0.1646
   57c3c     C6  219   0.235   0.589   1.735  0.2569  0.0062 -0.4702
   57c3c     H1  220   0.052   0.791   1.739 -0.8616  0.4859 -0.1598
   57c3c     H2  221   0.064   0.705   1.896  0.2308  0.7596 -0.7422
   57c3c     H3  222   0.032   0.377   1.726 -1.1499 -0.9398  0.6222
   57c3c     H4  223   0.061   0.446   1.880 -1.3531 -0.1782  0.5341
   57c3c     H5  224  -0.178   0.702   1.707 -0.8950  1.3761  1.0974
   57c3c     H6  225  -0.170   0.694   1.890  0.9316  1.3641 -0.5050
   57c3c     H7  226  -0.193   0.483   1.716  1.1276  0.1957 -1.0197
   57c3c     H8  227  -0.165   0.485   1.892 -1.1389  0.7487  0.0098
   57c3c     H9  228   0.102   0.681   1.533 -0.5317 -1.4978 -3.5368
   57c3c    H10  229   0.105   0.515   1.519  0.0587  0.9460 -0.1703
   57c3c    H11  230  -0.052   0.595   1.553 -0.6626 -1.4244  0.1793
   57c3c    H12  231   0.271   0.489   1.712  1.2133  0.3719 -0.5801
   57c3c    H13  232   0.285   0.644   1.656 -1.0451  0.9719 -0.6468
   57c3c     C7  233   0.292   0.648   1.871  0.2406  0.6744 -0.1529
   57c3c    H14  234   0.256   0.582   1.951  0.5485 -0.9704 -1.3378
   57c3c    H15  235   0.254   0.747   1.898  1.1670  1.0361 -0.1680
   57c3c     C8  236   0.447   0.676   1.874 -0.3957  0.1655 -0.3157
   57c3c    H16  237   0.515   0.597   1.842 -0.2533  0.4010 -0.5877
   57c3c    H17  238   0.478   0.696   1.977 -0.5520  0.9299 -0.4132
   57c3c    H18  239   0.457   0.770   1.821 -3.0041  1.2702  1.0255
   58c3c      N  240   2.961   2.015   0.358  0.3123  0.1011  0.0782
   58c3c     C1  241   3.041   2.089   0.264 -0.0183 -0.2418 -0.3225
   58c3c     C2  242   3.041   1.894   0.381 -0.1925  0.5463 -0.4531
   58c3c     C3  243   3.191   2.068   0.305  0.0902 -0.7187  0.2342
   58c3c     C4  244   3.187   1.929   0.367  0.4047 -0.1565  0.1672
   58c3c     C5  245   2.942   2.084   0.486  0.3232 -0.4883 -0.0287
   58c3c     C6  246   2.822   1.993   0.303 -0.3606 -0.3470  0.3818
   58c3c     H1  247   3.002   2.188   0.243  2.5671  0.7358 -0.7292
   58c3c     H2  248   3.036   2.042   0.166 -2.2172 -0.5171 -0.1042
   58c3c     H3  249   3.011   1.854   0.478 -1.8998  0.8939 -0.8197
   58c3c     H4  250   3.015   1.813   0.313 -0.6393 -1.2156  1.7738
   58c3c     H5  251   3.228   2.149   0.369  0.9084 -2.4229  1.9778
   58c3c     H6  252   3.249   2.079   0.214 -1.0690  0.6522 -0.3640
   58c3c     H7  253   3.235   1.922   0.465  0.5745  0.4357  0.1244
   58c3c     H8  254   3.244   1.858   0.308  0.0222  0.8629 -1.4366
   58c3c     H9  255   2.898   2.181   0.462 -1.9060 -0.6990  2.8663
   58c3c    H10  256   2.878   2.031   0.557 -0.4944  0.4109 -0.0828
   58c3c    H11  257   3.037   2.113   0.532  0.0713  1.3364 -0.6111
   58c3c    H12  258   2.757   1.932   0.367 -0.7040 -1.2061 -0.7707
   58c3c    H13  259   2.773   2.090   0.298  0.1810 -0.1230 -0.6786
   58c3c     C7  260   2.797   1.937   0.163 -0.3409  0.4901 -0.1159
   58c3c    H14  261   2.828   1.832   0.154  0.0174  0.6743 -1.0725
   58c3c    H15  262   2.848   1.983   0.078  1.4422 -0.0754  0.6090
   58c3c     C8  263   2.648   1.944   0.125 -0.9271  0.7190  0.5993
   58c3c    H16  264   2.618   1.883   0.040 -1.5138  1.7967  0.0215
   58c3c    H17  265   2.615   2.044   0.095  0.9695  1.8341  2.0747
   58c3c    H18  266   2.591   1.919   0.214 -0.5759 -1.5642  0.2072
   59c3c      N  267   0.530   1.985   2.512 -0.3734  0.0930 -0.3849
   59c3c     C1  268   0.413   2.052   2.577  0.9865  0.5092 -0.1102
   59c3c     C2  269   0.503   1.843   2.531  0.2175  0.8869  0.8386
   59c3c     C3  270   0.290   1.961   2.531 -0.3892  0.0141 -0.5401
   59c3c     C4  271   0.347   1.816   2.526  0.4669 -0.0890  0.3596
   59c3c     C5  272   0.534   2.023   2.371 -0.5696 -0.7445 -0.5795
   59c3c     C6  273   0.661   2.020   2.561 -0.5335 -0.2904  0.2161
   59c3c     H1  274   0.408   2.151   2.532  1.4867 -0.3435 -2.1010
   59c3c     H2  275   0.427   2.054   2.686  1.2854  2.3177 -0.1617
   59c3c     H3  276   0.567   1.779   2.470  0.1143  0.8539  0.7660
   59c3c     H4  277   0.520   1.828   2.638  2.4404  0.1893  0.4161
   59c3c     H5  278   0.248   1.992   2.435 -0.2352 -1.1751 -1.0027
   59c3c     H6  279   0.202   1.964   2.596 -0.9998 -3.2161 -1.1575
   59c3c     H7  280   0.328   1.766   2.431  0.4697  1.4021 -0.4408
   59c3c     H8  281   0.314   1.755   2.609  0.1193  0.7846  0.8756
   59c3c     H9  282   0.559   2.125   2.343  0.1258 -0.9322 -0.6538
   59c3c    H10  283   0.605   1.958   2.320 -0.6081  0.4403 -2.1959
   59c3c    H11  284   0.448   1.991   2.311 -0.8726  0.3669 -0.7445
   59c3c    H12  285   0.734   1.963   2.505 -0.1361 -0.9523  1.3895
   59c3c    H13  286   0.680   2.127   2.550 -0.5500 -0.3751 -0.6281
   59c3c     C7  287   0.692   2.009   2.713  0.1418 -0.7284 -0.0462
   59c3c    H14  288   0.700   1.901   2.717  0.7539 -0.6479  1.0678
   59c3c    H15  289   0.607   2.041   2.774  1.3148 -0.4648  1.4940
   59c3c     C8  290   0.825   2.072   2.762  0.1817 -0.1387 -0.2112
   59c3c    H16  291   0.837   2.180   2.768  2.8268 -0.4957  1.6979
   59c3c    H17  292   0.905   2.038   2.696  0.2622  2.3129 -1.4482
   59c3c    H18  293   0.843   2.039   2.864 -3.3084 -3.0251 -0.4131
   60c3c      N  294   2.454   0.228   1.190  0.1890  0.3565  0.2815
   60c3c     C1  295   2.343   0.304   1.134 -0.7492  0.4694  0.0373
   60c3c     C2  296   2.406   0.094   1.195  0.0888 -0.2478  0.5317
   60c3c     C3  297   2.293   0.216   1.021  0.8378  0.1504 -0.9207
   60c3c     C4  298   2.303   0.076   1.084 -0.3966 -0.9062 -0.6081
   60c3c     C5  299   2.572   0.239   1.099  1.0081 -0.3249 -0.1484
   60c3c     C6  300   2.496   0.275   1.320 -0.5299  0.2504 -0.3287
   60c3c     H1  301   2.367   0.407   1.107  0.3398 -0.3332 -2.1469
   60c3c     H2  302   2.262   0.304   1.208  0.2663  2.2417  1.2003
   60c3c     H3  303   2.483   0.016   1.195 -0.2184 -0.5508  0.3217
   60c3c     H4  304   2.345   0.065   1.280 -0.7074 -1.4713 -0.4347
   60c3c     H5  305   2.354   0.202   0.932  0.8243 -3.7748 -0.4127
   60c3c     H6  306   2.195   0.233   0.979  0.0593 -2.4329 -0.2469
   60c3c     H7  307   2.324  -0.000   1.010 -1.0637 -2.4209  0.7324
   60c3c     H8  308   2.203   0.059   1.124  0.3231  0.7448  2.0286
   60c3c     H9  309   2.581   0.342   1.065  2.1910 -1.1024 -2.3062
   60c3c    H10  310   2.665   0.209   1.147  0.9014  1.4611  1.1881
   60c3c    H11  311   2.562   0.174   1.011  2.2536 -0.7277 -0.0039
   60c3c    H12  312   2.576   0.206   1.348 -0.2936  0.8180  0.3908
   60c3c    H13  313   2.539   0.374   1.313  1.7400 -0.7971 -1.3884
   60c3c     C7  314   2.402   0.280   1.435  0.4306 -0.0254  0.2118
   60c3c    H14  315   2.357   0.184   1.462  3.0168 -1.0371  1.0186
   60c3c    H15  316   2.320   0.349   1.411  1.4000  0.9727 -0.2993
   60c3c     C8  317   2.477   0.327   1.565  0.0803  0.3311 -0.0706
   60c3c    H16  318   2.396   0.340   1.637  0.4147  0.4140  0.2917
   60c3c    H17  319   2.517   0.428   1.556  1.2636 -0.0725  0.6830
   60c3c    H18  320   2.543   0.246   1.596  0.7967  0.8031 -0.3454
   61c3c      N  321   2.347   0.784   1.445  0.2403  0.0105 -0.0085
   61c3c     C1  322   2.321   0.898   1.362  0.3728 -0.2085 -0.6950
   61c3c     C2  323   2.461   0.727   1.379  0.4750 -0.5704  0.6923
   61c3c     C3  324   2.457   0.959   1.331 -0.7955  0.7108 -0.3702
   61c3c     C4  325   2.550   0.843   1.358 -0.7897 -0.6185  0.2680
   61c3c     C5  326   2.380   0.810   1.585  0.2799 -0.5352 -0.4259
   61c3c     C6  327   2.221   0.700   1.449 -0.2692  0.5355 -0.6750
   61c3c     H1  328   2.270   0.975   1.419  1.2821 -0.5380  0.5880
   61c3c     H2  329   2.273   0.877   1.267  1.2104 -1.0252 -0.9478
   61c3c     H3  330   2.514   0.652   1.437  0.1746 -0.9088  0.5297
   61c3c     H4  331   2.427   0.691   1.282 -0.4748  2.5325 -0.1932
   61c3c     H5  332   2.481   1.049   1.387 -0.8973  0.9542 -0.7187
   61c3c     H6  333   2.455   0.999   1.230  0.4981  1.7411 -0.0015
   61c3c     H7  334   2.610   0.867   1.446  1.0703  0.7917 -1.3526
   61c3c     H8  335   2.618   0.835   1.273 -0.8948 -1.0709  0.2223
   61c3c     H9  336   2.289   0.847   1.632  0.0334 -0.1256 -1.2336
   61c3c    H10  337   2.419   0.723   1.638  0.0677  0.1656  0.9146
   61c3c    H11  338   2.456   0.887   1.598 -0.1558 -0.0551 -0.7209
   61c3c    H12  339   2.229   0.624   1.527  0.6235  1.6500  0.3451
   61c3c    H13  340   2.137   0.760   1.483  1.2694  1.1671  2.2627
   61c3c     C7  341   2.171   0.642   1.318  0.0074  0.5175 -0.5824
   61c3c    H14  342   2.249   0.574   1.284 -0.5243 -0.4946  0.1944
   61c3c    H15  343   2.165   0.717   1.240 -2.3404  1.2812  0.2755
   61c3c     C8  344   2.049   0.552   1.319  0.3506  0.8084  0.2740
   61c3c    H16  345   2.051   0.503   1.222  1.1218 -0.3696  0.8679
   61c3c    H17  346   1.954   0.605   1.329 -0.0381  0.3973 -1.1727
   61c3c    H18  347   2.040   0.484   1.405 -0.3813 -1.7679 -1.7561
   62c3c      N  348   2.673   1.316   1.764  0.0313  0.0746  0.2954
   62c3c     C1  349   2.667   1.256   1.631 -0.2671  0.0261  0.7127
   62c3c     C2  350   2.575   1.426   1.757 -0.3501  0.4761 -0.5806
   62c3c     C3  351   2.518   1.244   1.608 -0.2613 -0.4722  0.1040
   62c3c     C4  352   2.456   1.368   1.678 -0.6018  0.1486 -0.0128
   62c3c     C5  353   2.632   1.210   1.863  0.8217 -0.0773  0.4238
   62c3c     C6  354   2.811   1.362   1.808  0.4208  1.2127 -0.0208
   62c3c     H1  355   2.723   1.162   1.630  0.3465  0.3826  0.9898
   62c3c     H2  356   2.704   1.315   1.547  1.0214 -0.3567  0.9980
   62c3c     H3  357   2.541   1.455   1.856 -0.2785  0.6585 -0.6106
   62c3c     H4  358   2.604   1.516   1.704 -3.1839  2.9785  1.9471
   62c3c     H5  359   2.471   1.160   1.659  0.8970 -1.5563 -0.6048
   62c3c     H6  360   2.491   1.247   1.502 -0.7813  0.9953  0.2613
   62c3c     H7  361   2.370   1.340   1.739 -0.1935 -2.0974 -0.4163
   62c3c     H8  362   2.421   1.446   1.610 -0.5252 -0.0736 -0.3067
   62c3c     H9  363   2.706   1.130   1.867 -0.0700 -0.8777  1.2029
   62c3c    H10  364   2.628   1.262   1.959 -1.0012 -2.7887  1.8986
   62c3c    H11  365   2.532   1.171   1.843  1.0179  0.1605 -1.1027
   62c3c    H12  366   2.783   1.417   1.898  0.3204  1.9035 -0.4671
   62c3c    H13  367   2.879   1.281   1.833 -1.4982 -0.5914 -0.5304
   62c3c     C7  368   2.877   1.462   1.711 -0.0834 -0.3452  0.8306
   62c3c    H14  369   2.820   1.555   1.719  0.3133 -0.1504  1.4037
   62c3c    H15  370   2.889   1.432   1.607 -0.4390  1.7523  0.1661
   62c3c     C8  371   3.018   1.494   1.745  0.4586  0.0003 -0.0261
   62c3c    H16  372   3.051   1.580   1.686 -0.9223  0.7704  0.3003
   62c3c    H17  373   3.079   1.407   1.718  0.4451  0.4106 -1.4669
   62c3c    H18  374   3.029   1.507   1.852  0.6004  2.2662 -0.2867
   63c3c      N  375   1.933   2.088   2.028 -0.8443 -0.1724  0.5216
   63c3c     C1  376   1.963   1.964   2.089  0.2879  0.6663 -0.0603
   63c3c     C2  377   1.874   2.051   1.899  0.2500 -0.5432 -0.3524
   63c3c     C3  378   1.850   1.865   2.053  0.2043 -0.3264  0.3729
   63c3c     C4  379   1.797   1.920   1.916  0.6112  0.3715  0.1925
   63c3c     C5  380   1.832   2.163   2.101  0.3695 -0.3745 -0.3885
   63c3c     C6  381   2.049   2.184   2.007  0.1714 -0.3107 -0.2186
   63c3c     H1  382   1.976   1.972   2.197  3.0846 -2.0488 -0.1328
   63c3c     H2  383   2.051   1.921   2.042 -1.0053 -1.4841 -0.5708
   63c3c     H3  384   1.808   2.126   1.856 -0.1899 -0.0762  1.1028
   63c3c     H4  385   1.951   2.036   1.824 -0.6102 -3.5136 -0.7126
   63c3c     H5  386   1.765   1.882   2.120  0.4802 -1.3297  0.9817
   63c3c     H6  387   1.869   1.758   2.049 -1.6022 -0.7614  2.4122
   63c3c     H7  388   1.688   1.933   1.919  0.6124  0.2542  0.8667
   63c3c     H8  389   1.821   1.846   1.840  0.7268  0.6987 -0.0908
   63c3c     H9  390   1.872   2.205   2.193 -0.6344  0.9394 -0.5456
   63c3c    H10  391   1.798   2.250   2.045  1.7866 -0.5489 -1.5624
   63c3c    H11  392   1.745   2.099   2.116  1.6757 -2.0233  0.3973
   63c3c    H12  393   1.989   2.265   1.968  1.0711 -0.1458 -1.3027
   63c3c    H13  394   2.088   2.218   2.103 -2.6103 -0.2627  0.9171
   63c3c     C7  395   2.166   2.154   1.911  0.5431  0.8106 -0.5510
   63c3c    H14  396   2.127   2.149   1.810  0.0300  0.1809 -0.3260
   63c3c    H15  397   2.219   2.061   1.933  0.0887  0.5922 -0.3814
   63c3c     C8  398   2.263   2.272   1.900  0.4391 -0.2973 -0.2250
   63c3c    H16  399   2.308   2.310   1.991 -0.2122  1.9884 -0.8203
   63c3c    H17  400   2.213   2.359   1.857 -2.3900 -1.9726 -0.4230
   63c3c    H18  401   2.344   2.255   1.828  0.6859  0.1736 -0.0574
   64c3c      N  402   2.390   2.507   1.259  0.4741  0.0081 -0.5384
   64c3c     C1  403   2.290   2.599   1.203  0.2080  0.3319  0.4871
   64c3c     C2  404   2.377   2.392   1.165  0.0262  0.2417  0.0623
   64c3c     C3  405   2.306   2.597   1.049 -0.0513 -0.4568  0.2799
   64c3c     C4  406   2.361   2.459   1.022  0.0368  0.6832  0.0306
   64c3c     C5  407   2.528   2.556   1.242  0.4498  0.0739 -0.7409
   64c3c     C6  408   2.362   2.457   1.396  0.1667  0.0018  0.5000
   64c3c     H1  409   2.299   2.698   1.247 -0.1022  0.3595  0.4867
   64c3c     H2  410   2.191   2.560   1.225 -0.2228  1.8818  1.3421
   64c3c     H3  411   2.466   2.330   1.167  0.4233  0.8117  0.4985
   64c3c     H4  412   2.292   2.326   1.181  0.1700  0.3634  1.4673
   64c3c     H5  413   2.384   2.668   1.021 -0.5325  0.4608  1.2098
   64c3c     H6  414   2.207   2.628   1.017 -0.5519 -0.5161  1.7513
   64c3c     H7  415   2.454   2.469   0.966  0.0880  2.4676  0.4001
   64c3c     H8  416   2.283   2.407   0.968  1.2848 -1.4183  0.1922
   64c3c     H9  417   2.559   2.575   1.139 -1.3002 -1.7048 -1.6211
   64c3c    H10  418   2.542   2.651   1.294 -1.2777  0.4316 -0.8821
   64c3c    H11  419   2.602   2.491   1.287  1.2425  0.2490 -1.7738
   64c3c    H12  420   2.440   2.389   1.429  1.6813  0.5617 -1.7836
   64c3c    H13  421   2.352   2.544   1.461 -0.3687 -0.3011  0.8229
   64c3c     C7  422   2.235   2.376   1.425 -0.0229  0.7073 -0.3856
   64c3c    H14  423   2.240   2.279   1.374  0.7497  0.2728  0.4936
   64c3c    H15  424   2.145   2.423   1.386 -0.8491 -0.4100  0.1834
   64c3c     C8  425   2.225   2.342   1.578 -0.8856 -0.2660 -0.2861
   64c3c    H16  426   2.316   2.311   1.628  0.5298  0.1343 -2.5182
   64c3c    H17  427   2.158   2.259   1.601  0.5144 -0.9039  1.6295
   64c3c    H18  428   2.191   2.429   1.634  3.8641  1.9329 -0.6321
   65c3c      N  429   2.945   2.031   1.388 -0.0037  0.1500 -0.2244
   65c3c     C1  430   3.038   2.027   1.274  0.2117  0.0376 -0.9157
   65c3c     C2  431   3.032   2.045   1.500 -0.5189 -0.2742  0.1124
   65c3c     C3  432   3.170   2.099   1.309  0.2797  0.3503 -0.5163
   65c3c     C4  433   3.151   2.132   1.462 -0.1005 -0.0648 -0.2564
   65c3c     C5  434   2.862   2.148   1.376  0.4339  0.2088 -0.4336
   65c3c     C6  435   2.867   1.904   1.391  0.0408  0.2685 -0.0158
   65c3c     H1  436   2.995   2.064   1.180  2.6285 -1.1881 -2.5583
   65c3c     H2  437   3.057   1.925   1.240  2.0960 -0.5546  1.7686
   65c3c     H3  438   2.974   2.066   1.590  1.4728  2.1201  0.8698
   65c3c     H4  439   3.094   1.958   1.518  1.2408  1.0517  0.5445
   65c3c     H5  440   3.185   2.194   1.259  0.0754  1.4127  1.4039
   65c3c     H6  441   3.261   2.042   1.288  0.8088  0.7074  0.7622
   65c3c     H7  442   3.131   2.237   1.483 -1.7846 -0.3942 -0.1010
   65c3c     H8  443   3.235   2.098   1.522 -0.5459 -2.0524 -0.7028
   65c3c     H9  444   2.801   2.137   1.287 -3.2310  2.3583  1.6970
   65c3c    H10  445   2.791   2.151   1.459  0.4838 -0.0159 -0.3837
   65c3c    H11  446   2.909   2.247   1.370 -0.1554  0.5130 -0.0980
   65c3c    H12  447   2.781   1.920   1.455 -1.2296  0.3039 -1.6922
   65c3c    H13  448   2.815   1.893   1.296 -0.9976  1.7694  0.3659
   65c3c     C7  449   2.937   1.774   1.434  0.3272  0.4094 -0.6048
   65c3c    H14  450   2.963   1.757   1.538 -1.3391 -1.8871 -0.5162
   65c3c    H15  451   3.031   1.763   1.380  0.4198 -0.1840 -0.3218
   65c3c     C8  452   2.854   1.654   1.385  0.6151 -0.4071  0.4282
   65c3c    H16  453   2.829   1.651   1.279  1.5943  2.2486  0.0903
   65c3c    H17  454   2.760   1.641   1.439 -0.2559 -0.2740 -1.0370
   65c3c    H18  455   2.913   1.565   1.406  0.0986 -1.0223 -0.6969
   66c3c      N  456   1.409   2.691   2.932 -0.2291  0.4025  0.1791
   66c3c     C1  457   1.424   2.745   3.068 -0.5378  0.2106 -0.2559
   66c3c     C2  458   1.292   2.609   2.935 -0.2857 -0.1843  0.3785
   66c3c     C3  459   1.279   2.768   3.114 -0.1336 -0.0862 -0.1200
   66c3c     C4  460   1.202   2.669   3.050 -0.3639 -0.0600  0.4540
   66c3c     C5  461   1.389   2.803   2.839  0.2121 -0.6492  0.2382
   66c3c     C6  462   1.530   2.624   2.883  0.7313  0.0149  0.1984
   66c3c     H1  463   1.488   2.832   3.084 -1.4511  0.8148  0.1463
   66c3c     H2  464   1.451   2.671   3.144 -1.8042 -0.8851 -0.8583
   66c3c     H3  465   1.238   2.591   2.842  0.6372  0.1421 -0.2335
   66c3c     H4  466   1.326   2.512   2.972  1.5864  0.4372  0.3172
   66c3c     H5  467   1.251   2.871   3.091  1.1211 -0.0074 -1.3440
   66c3c     H6  468   1.280   2.753   3.222  0.2654  0.9634  0.0273
   66c3c     H7  469   1.097   2.692   3.030 -0.8111 -1.2612  1.3424
   66c3c     H8  470   1.176   2.581   3.110 -1.5552  0.1447  0.2567
   66c3c     H9  471   1.370   2.762   2.739  0.0787  0.7114 -0.3024
   66c3c    H10  472   1.305   2.868   2.866 -0.6463 -1.0756 -1.2962
   66c3c    H11  473   1.478   2.865   2.830 -0.5129  0.3849  0.1029
   66c3c    H12  474   1.508   2.587   2.783  0.0514 -0.5187  0.5452
   66c3c    H13  475   1.607   2.698   2.861  0.4283  0.4304  0.5191
   66c3c     C7  476   1.586   2.503   2.966  0.0994  0.7145  0.1955
   66c3c    H14  477   1.512   2.423   2.964  0.8015  0.0708 -1.0692
   66c3c    H15  478   1.612   2.519   3.070  0.0930 -0.2240  0.3404
   66c3c     C8  479   1.717   2.453   2.911 -0.0789 -1.0359  0.3359
   66c3c    H16  480   1.800   2.524   2.919  0.7861 -2.1297  1.0847
   66c3c    H17  481   1.713   2.441   2.803  0.6405 -0.0560  0.1866
   66c3c    H18  482   1.759   2.362   2.954  1.1173 -0.4631  0.4126
   67c3c      N  483   0.753   0.373   2.431 -0.1101 -0.1049 -0.2250
   67c3c     C1  484   0.775   0.403   2.292 -0.4526  0.9274  0.2288
   67c3c     C2  485   0.893   0.334   2.468 -0.7114 -0.1435  0.2129
   67c3c     C3  486   0.908   0.468   2.275  0.9023 -0.7630 -0.4985
   67c3c     C4  487   0.992   0.418   2.384 -0.4754 -0.6110 -0.0713
   67c3c     C5  488   0.713   0.491   2.510  0.1461 -0.1480  0.6912
   67c3c     C6  489   0.663   0.256   2.449 -0.7420 -0.3832  0.0117
   67c3c     H1  490   0.694   0.460   2.246  0.3113  1.6280 -0.2429
   67c3c     H2  491   0.778   0.314   2.229 -2.0518  1.1218 -0.1585
   67c3c     H3  492   0.912   0.349   2.575 -2.6325 -1.5854  0.7984
   67c3c     H4  493   0.913   0.232   2.435  0.6581  0.8195 -1.9789
   67c3c     H5  494   0.898   0.576   2.269  1.5299 -0.7309 -1.0611
   67c3c     H6  495   0.958   0.452   2.180  0.9465 -2.2492 -0.2309
   67c3c     H7  496   1.027   0.503   2.444 -0.3562 -0.2727 -0.6162
   67c3c     H8  497   1.079   0.360   2.355  1.3669  2.1891 -0.3944
   67c3c     H9  498   0.612   0.523   2.486  0.6588 -0.2092 -1.5932
   67c3c    H10  499   0.712   0.477   2.618  1.8785  1.0353  0.8790
   67c3c    H11  500   0.786   0.570   2.491 -0.3645 -0.6933 -4.1436
   67c3c    H12  501   0.714   0.176   2.395  0.3784  0.2912  0.0683
   67c3c    H13  502   0.671   0.239   2.556 -1.7472 -1.4927 -0.0686
   67c3c     C7  503   0.524   0.269   2.390 -0.2335  0.7036  0.0389
   67c3c    H14  504   0.525   0.291   2.283  0.6870  1.1482  0.1317
   67c3c    H15  505   0.471   0.353   2.435  0.1616  0.6804  0.5519
   67c3c     C8  506   0.430   0.147   2.417  0.3109  0.2296 -0.3058
   67c3c    H16  507   0.408   0.121   2.521 -2.1111  2.0227 -0.3347
   67c3c    H17  508   0.472   0.056   2.373  2.2043  0.4633  0.9603
   67c3c    H18  509   0.332   0.154   2.370  0.3601  1.3126 -0.2638
   68c3c      N  510   0.574   0.192   1.194  0.1348 -0.2527 -0.5526
   68c3c     C1  511   0.605   0.328   1.144  0.6983  0.0411 -0.3400
   68c3c     C2  512   0.474   0.139   1.090  0.3723  0.9576 -0.6541
   68c3c     C3  513   0.590   0.315   0.986 -0.3130  0.1474 -0.4333
   68c3c     C4  514   0.525   0.182   0.954 -0.1198  0.1934  0.4043
   68c3c     C5  515   0.700   0.115   1.186 -0.6123  0.2447 -0.5293
   68c3c     C6  516   0.536   0.187   1.341  0.4210 -0.4041 -0.0199
   68c3c     H1  517   0.705   0.363   1.170 -0.5012  0.8086  3.4993
   68c3c     H2  518   0.530   0.397   1.183  1.2144 -0.2045  1.1151
   68c3c     H3  519   0.466   0.030   1.100 -1.2539  1.1868  0.7602
   68c3c     H4  520   0.381   0.194   1.101 -1.0094 -1.6349  1.3888
   68c3c     H5  521   0.690   0.315   0.943  0.3226  2.5906  0.9679
   68c3c     H6  522   0.537   0.398   0.939  1.0708  0.0946 -2.1458
   68c3c     H7  523   0.591   0.112   0.902  0.3342  2.8961 -2.8666
   68c3c     H8  524   0.450   0.205   0.879 -0.7742 -2.1460  0.2870
   68c3c     H9  525   0.776   0.169   1.243 -0.0492 -1.2724  0.1867
   68c3c    H10  526   0.702   0.014   1.228  0.0105  0.5189  0.1170
   68c3c    H11  527   0.742   0.109   1.085  0.9235  1.3839  0.0150
   68c3c    H12  528   0.515   0.083   1.365  2.4659 -0.8592 -0.1279
   68c3c    H13  529   0.619   0.225   1.400 -0.8839 -0.7398  2.0699
   68c3c     C7  530   0.398   0.251   1.377  0.0723 -0.5273  0.4162
   68c3c    H14  531   0.321   0.208   1.313  0.6119  0.0244 -0.6077
   68c3c    H15  532   0.403   0.359   1.361  3.5745 -0.9066 -1.4632
   68c3c     C8  533   0.355   0.224   1.518  0.7228 -0.6379 -0.7330
   68c3c    H16  534   0.335   0.119   1.535  2.1781 -0.9901 -1.1196
   68c3c    H17  535   0.262   0.268   1.552 -0.0300 -2.9153  0.2422
   68c3c    H18  536   0.432   0.269   1.581 -0.7954  0.4721  0.3727
   69c3c      N  537   2.503   2.137   0.705 -0.5011 -0.5719 -0.5214
   69c3c     C1  538   2.388   2.150   0.622  0.0665  0.1845  0.2692
   69c3c     C2  539   2.451   2.178   0.836 -0.2496  0.6066 -0.6259
   69c3c     C3  540   2.264   2.100   0.706 -0.2392 -0.3434  0.7510
   69c3c     C4  541   2.304   2.126   0.849  0.2259  0.0162  0.2715
   69c3c     C5  542   2.545   1.995   0.708  0.5252 -0.3849  0.0980
   69c3c     C6  543   2.621   2.217   0.669 -0.3050  0.4824 -0.1170
   69c3c     H1  544   2.417   2.095   0.533  0.7626  2.4971 -0.9806
   69c3c     H2  545   2.368   2.256   0.607 -0.7116 -0.2221 -1.6568
   69c3c     H3  546   2.509   2.136   0.918 -1.2803  1.4752  0.5646
   69c3c     H4  547   2.435   2.285   0.850 -2.0559  0.5545 -2.1061
   69c3c     H5  548   2.247   1.995   0.682  0.9098 -0.6202  1.1452
   69c3c     H6  549   2.176   2.159   0.678 -0.5905  0.7742  3.9662
   69c3c     H7  550   2.298   2.038   0.912 -0.7489 -0.1366 -0.0254
   69c3c     H8  551   2.244   2.204   0.895 -0.7803 -0.3588 -0.3963
   69c3c     H9  552   2.572   1.965   0.607 -1.4880  0.3374 -0.6692
   69c3c    H10  553   2.628   1.976   0.776 -0.2947 -0.6488  1.0358
   69c3c    H11  554   2.464   1.927   0.734  1.6589 -1.2292  1.4967
   69c3c    H12  555   2.696   2.218   0.748 -1.0482 -3.0989  0.7172
   69c3c    H13  556   2.650   2.173   0.574  0.7326  1.9447 -0.4765
   69c3c     C7  557   2.593   2.366   0.635  0.5688  0.0129 -0.6609
   69c3c    H14  558   2.551   2.417   0.721 -0.3861 -3.2763  0.8970
   69c3c    H15  559   2.531   2.382   0.546 -1.2283  0.2153  0.5919
   69c3c     C8  560   2.723   2.443   0.619  0.4656  0.2269  0.1268
   69c3c    H16  561   2.786   2.385   0.551 -0.8657  0.7108 -1.5735
   69c3c    H17  562   2.770   2.464   0.714 -0.7683  2.1458  0.3428
   69c3c    H18  563   2.699   2.541   0.578 -0.0737  1.4780  3.2898
   70c3c      N  564   0.392   2.449   1.893 -0.1609 -0.7831  0.2514
   70c3c     C1  565   0.342   2.382   1.772  0.5339 -0.0091  0.2495
   70c3c     C2  566   0.495   2.533   1.838 -0.8645  0.2500 -0.1044
   70c3c     C3  567   0.334   2.487   1.657 -0.0170 -0.0995  0.0094
   70c3c     C4  568   0.434   2.591   1.705  0.1439  0.0348  1.0906
   70c3c     C5  569   0.286   2.539   1.953  0.5752  0.3147 -0.1636
   70c3c     C6  570   0.440   2.363   2.002 -0.0741 -0.1878  0.5992
   70c3c     H1  571   0.254   2.319   1.781 -0.6843  1.6880  0.4447
   70c3c     H2  572   0.418   2.312   1.737  0.8583  0.1658  0.5924
   70c3c     H3  573   0.530   2.619   1.895  0.0850 -0.1081 -0.1322
   70c3c     H4  574   0.587   2.479   1.818  0.4753  2.7951 -1.0561
   70c3c     H5  575   0.232   2.522   1.640  0.8540  2.8434  0.6039
   70c3c     H6  576   0.355   2.445   1.559 -0.6484  2.8045 -1.4233
   70c3c     H7  577   0.378   2.679   1.733 -0.3911  0.2643 -0.6374
   70c3c     H8  578   0.505   2.624   1.628 -1.9124 -0.6123 -1.1354
   70c3c     H9  579   0.195   2.485   1.980  0.0826  0.4258 -1.6028
   70c3c    H10  580   0.325   2.592   2.040  2.7301  2.7035 -2.5237
   70c3c    H11  581   0.255   2.622   1.891 -0.5280 -0.6630 -0.9600
   70c3c    H12  582   0.498   2.422   2.073  0.6483  1.9023 -1.6633
   70c3c    H13  583   0.360   2.341   2.073 -0.8656  0.7582  0.0126
   70c3c     C7  584   0.517   2.237   1.960  0.2825  1.0111 -0.3221
   70c3c    H14  585   0.620   2.264   1.938  1.1337 -1.3065  0.7394
   70c3c    H15  586   0.471   2.174   1.884  2.6267  0.3521 -1.2214
   70c3c     C8  587   0.542   2.152   2.090  0.3758 -0.5675 -0.0243
   70c3c    H16  588   0.447   2.131   2.139 -0.5478  0.9189 -1.1368
   70c3c    H17  589   0.616   2.209   2.147 -0.5281  0.2409  0.3705
   70c3c    H18  590   0.593   2.062   2.055  0.4187  0.4797 -2.7578
   71c3c      N  591   1.306   0.061   0.965 -0.0828  0.0704  0.1136
   71c3c     C1  592   1.397  -0.055   0.976 -0.2743  0.2844 -0.1643
   71c3c     C2  593   1.384   0.170   1.005 -0.1505  0.4150  0.0975
   71c3c     C3  594   1.524  -0.012   0.910  0.1066 -0.7319  0.6973
   71c3c     C4  595   1.530   0.135   0.955 -0.0662 -0.9094  0.2354
   71c3c     C5  596   1.266   0.082   0.826  0.7581 -0.2747 -0.4272
   71c3c     C6  597   1.175   0.038   1.038 -0.7054 -0.3882 -0.3561
   71c3c     H1  598   1.358  -0.144   0.927 -0.3867 -0.4404  1.2255
   71c3c     H2  599   1.409  -0.083   1.081 -0.4929  3.1587  0.6762
   71c3c     H3  600   1.348   0.269   0.975 -1.1273  0.6635  2.0488
   71c3c     H4  601   1.395   0.160   1.113  1.4111 -0.0576 -0.0935
   71c3c     H5  602   1.526  -0.022   0.801 -0.3568  1.1371  0.5053
   71c3c     H6  603   1.612  -0.061   0.951  0.4251 -1.8862 -1.3005
   71c3c     H7  604   1.547   0.195   0.865  0.0567  1.1378  1.5982
   71c3c     H8  605   1.604   0.152   1.034  0.3471  1.0066 -0.5144
   71c3c     H9  606   1.237  -0.014   0.782 -1.5950 -0.4492  1.4143
   71c3c    H10  607   1.190   0.159   0.813 -0.2270 -1.1549  0.0264
   71c3c    H11  608   1.350   0.104   0.760  1.4951 -2.4296 -0.2626
   71c3c    H12  609   1.106   0.120   1.020 -1.0765 -0.0236  2.5349
   71c3c    H13  610   1.126  -0.055   1.012  1.8817 -1.7497 -0.5411
   71c3c     C7  611   1.179   0.042   1.190  0.4878 -0.4462  0.4720
   71c3c    H14  612   1.198   0.147   1.216  1.8377 -0.3836 -0.7290
   71c3c    H15  613   1.267  -0.019   1.206  1.1902 -0.0829 -1.8798
   71c3c     C8  614   1.056  -0.023   1.253 -0.0772  0.2032  0.4129
   71c3c    H16  615   1.023  -0.120   1.213 -0.8478 -0.0376  1.5933
   71c3c    H17  616   0.978   0.051   1.233  1.0782  1.2507 -0.2727
   71c3c    H18  617   1.069  -0.029   1.361 -1.5827 -1.0152  0.5423
   72c3c      N  618   1.141   0.685   0.202 -0.0196 -1.1801 -0.0424
   72c3c     C1  619   1.254   0.622   0.270  0.2907 -1.0319  0.4168
   72c3c     C2  620   1.186   0.817   0.179  0.3476  0.2537  0.2534
   72c3c     C3  621   1.327   0.725   0.352 -0.5242 -0.3995 -0.1146
   72c3c     C4  622   1.273   0.854   0.291  0.2635  0.8159  0.8423
   72c3c     C5  623   1.119   0.619   0.076 -0.0794 -0.1200  0.0675
   72c3c     C6  624   1.011   0.676   0.280 -0.0171 -0.3348 -0.1589
   72c3c     H1  625   1.325   0.578   0.199  0.2463 -0.4373 -0.0014
   72c3c     H2  626   1.226   0.537   0.331  0.6895 -1.2954  0.2386
   72c3c     H3  627   1.252   0.815   0.092  1.1394  1.6425  0.7978
   72c3c     H4  628   1.107   0.890   0.161 -0.1492 -0.4000 -0.2343
   72c3c     H5  629   1.434   0.710   0.338 -0.4690 -1.4979  1.4035
   72c3c     H6  630   1.302   0.727   0.457  1.3279  3.7118  0.3415
   72c3c     H7  631   1.349   0.920   0.252 -0.1445  0.5492 -0.4286
   72c3c     H8  632   1.208   0.902   0.364 -0.8836 -0.0495  0.4084
   72c3c     H9  633   1.079   0.518   0.076  2.8629 -1.3299  0.3031
   72c3c    H10  634   1.036   0.670   0.026  1.9055 -0.2066 -3.4489
   72c3c    H11  635   1.201   0.629   0.004 -0.6734 -1.9347 -0.8851
   72c3c    H12  636   0.927   0.701   0.215 -1.4867  0.2756  1.9035
   72c3c    H13  637   1.001   0.569   0.297 -2.8238 -0.2055 -0.6698
   72c3c     C7  638   0.997   0.747   0.415 -0.1341 -0.1815 -0.2687
   72c3c    H14  639   1.002   0.855   0.404 -0.7697 -0.3383 -2.2708
   72c3c    H15  640   1.079   0.706   0.473 -1.8376 -2.1782  0.7927
   72c3c     C8  641   0.877   0.717   0.507  0.0215  0.0688  0.1834
   72c3c    H16  642   0.793   0.715   0.437  1.5694 -1.6584 -1.6539
   72c3c    H17  643   0.868   0.788   0.590 -0.3807  0.1267  0.0933
   72c3c    H18  644   0.885   0.616   0.547 -3.7032 -1.3056 -2.2339
   73c3c      N  645   2.633   2.269   2.392 -0.2443 -0.4009 -0.5570
   73c3c     C1  646   2.608   2.141   2.323  0.5894  0.0243  0.2146
   73c3c     C2  647   2.640   2.372   2.290  0.1050  0.3140  0.0840
   73c3c     C3  648   2.517   2.179   2.210  0.0838 -0.0020 -0.1418
   73c3c     C4  649   2.535   2.331   2.184 -0.8910 -0.0184  0.0560
   73c3c     C5  650   2.511   2.282   2.475  0.0240 -0.7940  0.0284
   73c3c     C6  651   2.745   2.257   2.483  0.1690 -0.5735 -0.0933
   73c3c     H1  652   2.554   2.066   2.380 -1.8589 -1.1745 -3.4730
   73c3c     H2  653   2.700   2.088   2.298  1.4019 -0.3940  3.8243
   73c3c     H3  654   2.622   2.471   2.332  0.9811 -0.3216  2.0515
   73c3c     H4  655   2.736   2.357   2.242  0.6808  1.6819  0.7805
   73c3c     H5  656   2.411   2.158   2.229  0.0635  0.9968  0.9448
   73c3c     H6  657   2.542   2.124   2.120 -1.2884 -0.3919 -0.2970
   73c3c     H7  658   2.444   2.380   2.218 -1.3634 -0.8204 -0.0402
   73c3c     H8  659   2.549   2.345   2.077 -1.4641 -0.7871 -0.1192
   73c3c     H9  660   2.510   2.204   2.552 -1.1561  0.2554  1.1077
   73c3c    H10  661   2.503   2.376   2.529 -1.3085 -1.4495  1.0154
   73c3c    H11  662   2.418   2.281   2.417 -0.1551  0.2439  0.2924
   73c3c    H12  663   2.754   2.337   2.557 -0.2878 -1.7852  1.3029
   73c3c    H13  664   2.724   2.166   2.539  1.0909  0.4048  1.9259
   73c3c     C7  665   2.890   2.225   2.429  0.4060 -0.3206 -0.5657
   73c3c    H14  666   2.927   2.314   2.377  1.5817  0.9099  2.2624
   73c3c    H15  667   2.880   2.143   2.359  2.0772 -2.4010  1.5269
   73c3c     C8  668   2.994   2.167   2.532  0.6467 -0.2604  0.1836
   73c3c    H16  669   2.967   2.064   2.557 -2.1809  0.5566  0.6455
   73c3c    H17  670   2.978   2.215   2.628 -0.2894  0.7965 -0.4787
   73c3c    H18  671   3.095   2.179   2.493  0.2781  3.8823  0.2651
   74c3c      N  672   0.378   1.249   1.997  0.4118 -0.1321  0.3215
   74c3c     C1  673   0.330   1.377   1.937  0.0562 -0.0156  0.5565
   74c3c     C2  674   0.521   1.277   2.028  0.4932  0.0021  0.2201
   74c3c     C3  675   0.403   1.491   2.016 -0.2412 -0.1161  0.2229
   74c3c     C4  676   0.534   1.421   2.079 -0.0959 -0.0644 -0.2483
   74c3c     C5  677   0.315   1.220   2.128  0.0129 -0.2489 -0.3800
   74c3c     C6  678   0.364   1.123   1.921  0.3158  0.0375  0.3244
   74c3c     H1  679   0.221   1.381   1.935  0.0536  1.6175  2.4444
   74c3c     H2  680   0.361   1.397   1.835  0.6312  0.7202  0.8733
   74c3c     H3  681   0.569   1.213   2.102  0.1235 -1.8592 -1.1110
   74c3c     H4  682   0.592   1.265   1.946 -1.0151 -0.1048 -1.0861
   74c3c     H5  683   0.337   1.519   2.099 -0.9049  0.2662 -0.4329
   74c3c     H6  684   0.437   1.579   1.962  0.8756 -0.0321  1.0285
   74c3c     H7  685   0.534   1.435   2.187 -1.5806  0.3279 -0.2846
   74c3c     H8  686   0.627   1.462   2.040 -0.1959 -0.6347 -1.0948
   74c3c     H9  687   0.207   1.225   2.115 -0.1315 -1.5849  0.2045
   74c3c    H10  688   0.360   1.135   2.180 -1.8984 -0.6349  0.7167
   74c3c    H11  689   0.331   1.297   2.203 -0.8035 -0.6686  0.2369
   74c3c    H12  690   0.432   1.055   1.973  0.3625  0.0461  0.2748
   74c3c    H13  691   0.263   1.084   1.936  0.1012  1.3337  2.5512
   74c3c     C7  692   0.412   1.122   1.770  0.5086  0.0514  0.1737
   74c3c    H14  693   0.521   1.120   1.772  0.6059  3.9811  1.5869
   74c3c    H15  694   0.395   1.217   1.721 -0.1989 -0.4945 -0.6425
   74c3c     C8  695   0.363   1.012   1.684 -0.3946 -0.3215  0.6236
   74c3c    H16  696   0.256   1.016   1.667 -0.4015 -0.3000  0.6715
   74c3c    H17  697   0.403   0.916   1.718  0.5287  0.4164  1.6970
   74c3c    H18  698   0.403   1.040   1.587 -1.4276 -1.8360 -0.2445
   75c3c      N  699   2.158   0.472   2.381  0.2675 -0.2845  0.4333
   75c3c     C1  700   2.153   0.572   2.278 -0.1331 -0.5690  0.7212
   75c3c     C2  701   2.227   0.353   2.323  0.5922 -0.7078 -0.4833
   75c3c     C3  702   2.290   0.565   2.215  0.0516 -0.7233 -1.2657
   75c3c     C4  703   2.331   0.425   2.227 -0.3029  0.9407 -0.1807
   75c3c     C5  704   2.236   0.522   2.497  0.0575 -0.0552  1.0326
   75c3c     C6  705   2.024   0.435   2.431  0.6323  0.7331 -0.0463
   75c3c     H1  706   2.132   0.666   2.330  0.7845  0.7688 -1.2599
   75c3c     H2  707   2.078   0.540   2.206 -1.3709  0.4388  1.5515
   75c3c     H3  708   2.292   0.289   2.383  1.0436 -0.7556 -1.0163
   75c3c     H4  709   2.154   0.296   2.265  1.3849 -2.1652 -0.0733
   75c3c     H5  710   2.363   0.622   2.271  0.0437 -1.0077 -0.9643
   75c3c     H6  711   2.279   0.601   2.113  1.5403  0.1334 -1.1307
   75c3c     H7  712   2.425   0.417   2.281 -1.2366 -1.3452  1.2282
   75c3c     H8  713   2.327   0.372   2.132 -1.8536 -1.4362  1.1225
   75c3c     H9  714   2.177   0.610   2.525  0.1984  0.7680 -1.1953
   75c3c    H10  715   2.259   0.460   2.584  2.0439 -0.5310  0.1954
   75c3c    H11  716   2.333   0.563   2.470 -1.6891  2.5509 -1.5879
   75c3c    H12  717   2.043   0.346   2.491  2.3190  1.2365  0.1951
   75c3c    H13  718   1.998   0.510   2.506  3.5057  1.2820  0.4629
   75c3c     C7  719   1.911   0.391   2.330  0.1893  0.3061  0.4837
   75c3c    H14  720   1.960   0.336   2.249 -0.4469  0.0504  0.2627
   75c3c    H15  721   1.868   0.488   2.303  2.4993  1.0501 -0.6573
   75c3c     C8  722   1.792   0.318   2.400 -0.5464  0.4463 -0.8731
   75c3c    H16  723   1.757   0.384   2.480 -1.6992 -1.0196 -0.1218
   75c3c    H17  724   1.819   0.221   2.442 -0.6225 -1.1287 -4.3484
   75c3c    H18  725   1.715   0.295   2.326  0.8552 -1.8357 -1.6651
   76c3c      N  726   2.246   2.996   1.807  0.2254 -0.4591 -0.1186
   76c3c     C1  727   2.365   3.073   1.825  0.6248 -0.3004 -0.2271
   76c3c     C2  728   2.158   3.026   1.919 -0.4684 -0.4789 -0.0445
   76c3c     C3  729   2.328   3.202   1.898 -0.0557  0.3389  0.6381
   76c3c     C4  730   2.179   3.181   1.926  0.0379 -0.0591 -0.5327
   76c3c     C5  731   2.187   3.034   1.673 -0.1181  0.4412 -0.2158
   76c3c     C6  732   2.279   2.847   1.789  0.1614  0.0579 -0.1566
   76c3c     H1  733   2.427   3.081   1.736  1.1955  1.3398  0.3040
   76c3c     H2  734   2.415   3.018   1.905  1.0238  0.0529 -0.2311
   76c3c     H3  735   2.054   3.007   1.895  0.0398 -0.8152 -2.0526
   76c3c     H4  736   2.183   2.979   2.014 -0.9374  0.1100  0.3738
   76c3c     H5  737   2.356   3.298   1.854  0.8637 -0.1408  0.1677
   76c3c     H6  738   2.387   3.201   1.990  0.0534 -1.0451  0.5604
   76c3c     H7  739   2.113   3.229   1.854 -0.4890  0.6481  0.4179
   76c3c     H8  740   2.141   3.217   2.021  1.7869 -0.8146  0.4762
   76c3c     H9  741   2.250   3.021   1.585 -0.6946 -1.7174 -0.3544
   76c3c    H10  742   2.103   2.967   1.659  0.6985 -0.6776  0.1368
   76c3c    H11  743   2.153   3.136   1.660 -0.3080  0.5513  1.0475
   76c3c    H12  744   2.188   2.794   1.760  0.8026 -2.0664  1.5616
   76c3c    H13  745   2.354   2.837   1.710  1.0826  0.5688  0.6573
   76c3c     C7  746   2.345   2.768   1.908 -0.1776 -0.3564  0.4220
   76c3c    H14  747   2.288   2.774   2.000  0.9739 -0.7259  1.1711
   76c3c    H15  748   2.446   2.798   1.938 -0.3423 -0.8753  1.5059
   76c3c     C8  749   2.364   2.622   1.868 -0.2137  0.2275 -0.5877
   76c3c    H16  750   2.266   2.574   1.868  1.1864 -2.7288 -1.5047
   76c3c    H17  751   2.429   2.570   1.939 -1.4556  0.7735  0.9917
   76c3c    H18  752   2.400   2.609   1.766 -4.0360 -2.0285 -1.7655
   77c3c      N  753   0.422   2.526   0.059 -0.5256 -0.2878 -0.0448
   77c3c     C1  754   0.547   2.458   0.086  0.1207 -0.0449  0.4928
   77c3c     C2  755   0.354   2.512   0.195 -0.3545 -0.9630 -0.6002
   77c3c     C3  756   0.589   2.506   0.231  0.7564  0.8406 -0.3586
   77c3c     C4  757   0.463   2.558   0.292 -0.3291 -0.7516  0.0380
   77c3c     C5  758   0.451   2.669   0.025 -0.3660  0.4883  0.1581
   77c3c     C6  759   0.354   2.469  -0.053 -0.1370  1.0910 -0.1872
   77c3c     H1  760   0.626   2.478   0.015  0.6210 -1.3671  0.6586
   77c3c     H2  761   0.529   2.350   0.095 -1.3762  0.2458  1.1257
   77c3c     H3  762   0.266   2.576   0.202 -1.5545 -2.8092  2.1021
   77c3c     H4  763   0.341   2.414   0.241  2.2395 -1.0835  0.0065
   77c3c     H5  764   0.674   2.574   0.231  1.5536 -0.1296 -0.2512
   77c3c     H6  765   0.625   2.417   0.283 -0.3392  0.5014 -0.1782
   77c3c     H7  766   0.447   2.666   0.296 -0.1015 -0.7559  1.5515
   77c3c     H8  767   0.456   2.512   0.391 -2.1911 -2.3520 -0.8160
   77c3c     H9  768   0.502   2.679  -0.070  2.5925  0.7833  1.7132
   77c3c    H10  769   0.357   2.724   0.015 -0.6370  0.5285  2.5501
   77c3c    H11  770   0.516   2.715   0.100  1.2026 -2.3263  0.5639
   77c3c    H12  771   0.256   2.518  -0.062 -1.4299 -1.2257  0.8591
   77c3c    H13  772   0.407   2.484  -0.147 -1.4642  2.4166 -0.7483
   77c3c     C7  773   0.333   2.318  -0.057  0.5420 -1.0423 -0.1875
   77c3c    H14  774   0.268   2.292   0.027 -0.5843  0.4109 -0.5924
   77c3c    H15  775   0.421   2.255  -0.044  1.0464 -0.3660 -0.3310
   77c3c     C8  776   0.261   2.277  -0.188 -0.3768 -0.4580  0.5700
   77c3c    H16  777   0.330   2.281  -0.272  0.4975 -2.0020  1.1920
   77c3c    H17  778   0.167   2.329  -0.205  0.1338 -0.1890 -1.6758
   77c3c    H18  779   0.233   2.172  -0.180 -0.9521 -0.5065 -1.7554
   78c3c      N  780   2.201   1.804   2.614 -0.3836 -0.3034 -0.0593
   78c3c     C1  781   2.246   1.665   2.634 -0.1650  0.0695 -0.3162
   78c3c     C2  782   2.208   1.825   2.474 -0.6218 -0.6227 -0.0121
   78c3c     C3  783   2.236   1.590   2.503 -0.4703  0.4403 -0.4693
   78c3c     C4  784   2.175   1.691   2.410 -0.6005  0.0681 -0.1102
   78c3c     C5  785   2.057   1.814   2.658  0.9207 -0.3088 -0.5021
   78c3c     C6  786   2.271   1.909   2.688 -0.0844  0.4517  0.0592
   78c3c     H1  787   2.184   1.617   2.709  0.5768  0.1033  0.3277
   78c3c     H2  788   2.348   1.659   2.672  0.1201  0.3052 -1.0238
   78c3c     H3  789   2.148   1.906   2.432 -2.2542 -1.6448  0.2616
   78c3c     H4  790   2.311   1.842   2.443  0.3556 -2.5126  2.0445
   78c3c     H5  791   2.174   1.500   2.503  2.0135 -1.3667  1.1275
   78c3c     H6  792   2.334   1.560   2.467 -0.2739 -0.0277  0.4435
   78c3c     H7  793   2.068   1.683   2.390 -0.5452  0.4298 -0.5568
   78c3c     H8  794   2.213   1.682   2.308 -0.3294  2.2502 -0.2236
   78c3c     H9  795   2.047   1.783   2.762 -1.9156 -0.7383 -0.8628
   78c3c    H10  796   2.014   1.913   2.649  2.5887  0.5844  0.9211
   78c3c    H11  797   1.989   1.748   2.605  1.3571 -0.1196 -1.3076
   78c3c    H12  798   2.225   2.007   2.681 -0.7447  0.1556  0.1493
   78c3c    H13  799   2.264   1.898   2.796 -2.5926  0.6610 -0.0623
   78c3c     C7  800   2.423   1.925   2.669 -0.1170 -0.1413  0.7650
   78c3c    H14  801   2.444   1.945   2.564  2.2649 -1.3553  0.9714
   78c3c    H15  802   2.471   1.828   2.684  1.1329 -0.1243 -2.6832
   78c3c     C8  803   2.487   2.022   2.766  0.2723  0.1155  0.0497
   78c3c    H16  804   2.596   2.024   2.760  0.4680 -1.7622  2.1778
   78c3c    H17  805   2.450   1.992   2.864 -1.8672  0.8612 -0.4950
   78c3c    H18  806   2.454   2.125   2.757 -1.6502 -0.6007 -1.2458
   79c3c      N  807   2.565   1.392   0.032  0.3921 -0.0815 -0.2340
   79c3c     C1  808   2.662   1.324  -0.057  0.3134  0.0734  0.0868
   79c3c     C2  809   2.630   1.518   0.062  0.1477 -0.1139  0.0120
   79c3c     C3  810   2.719   1.432  -0.137  0.1255  0.5295  0.3066
   79c3c     C4  811   2.701   1.560  -0.069  0.2630 -0.2503 -0.4060
   79c3c     C5  812   2.445   1.412  -0.051 -0.0698 -0.0982 -0.1908
   79c3c     C6  813   2.532   1.314   0.151  0.7409  0.5040  0.1277
   79c3c     H1  814   2.611   1.256  -0.124  1.6178 -0.3500 -0.4942
   79c3c     H2  815   2.743   1.266  -0.012  0.0750  0.6745  1.3205
   79c3c     H3  816   2.560   1.595   0.093 -0.0680 -0.1933 -0.2744
   79c3c     H4  817   2.705   1.526   0.141 -0.7984  0.3563  0.8801
   79c3c     H5  818   2.676   1.436  -0.237 -1.2893 -0.2782  0.8711
   79c3c     H6  819   2.826   1.418  -0.154  0.2304 -0.4276  1.6965
   79c3c     H7  820   2.635   1.622  -0.129 -1.2221 -1.7030 -0.3189
   79c3c     H8  821   2.793   1.615  -0.049 -0.1803 -0.4985  2.4796
   79c3c     H9  822   2.460   1.472  -0.141  2.2404  0.2437  0.3903
   79c3c    H10  823   2.395   1.321  -0.083 -0.3526 -0.6764  1.8153
   79c3c    H11  824   2.370   1.466   0.008  0.8073 -0.9642  1.7322
   79c3c    H12  825   2.444   1.351   0.203  0.8699 -1.5115  1.8693
   79c3c    H13  826   2.495   1.216   0.122  0.5210 -0.2378  2.8116
   79c3c     C7  827   2.652   1.297   0.250  0.2683  0.1978  0.5802
   79c3c    H14  828   2.673   1.394   0.296  1.1728  1.5444 -2.5434
   79c3c    H15  829   2.744   1.263   0.201 -0.6769 -2.5648  0.6808
   79c3c     C8  830   2.614   1.203   0.360  0.1201 -0.0426 -0.1321
   79c3c    H16  831   2.520   1.240   0.402  1.4172  1.6611  1.3530
   79c3c    H17  832   2.678   1.217   0.447 -0.2606  0.1059  0.1255
   79c3c    H18  833   2.614   1.100   0.323  0.7435  0.5947 -1.9516
   80c3c      N  834   1.592   1.002   1.779 -0.9157  0.0894  0.6029
   80c3c     C1  835   1.560   0.872   1.747  0.7484 -0.3659 -0.4859
   80c3c     C2  836   1.737   1.010   1.800  0.0078 -0.2772 -0.7045
   80c3c     C3  837   1.670   0.818   1.659  0.5699 -0.8265 -0.1498
   80c3c     C4  838   1.786   0.923   1.683  0.3489  0.6587 -0.3123
   80c3c     C5  839   1.549   1.094   1.663  0.2263  0.5251 -0.7303
   80c3c     C6  840   1.516   1.047   1.899  0.2218  0.4083 -0.1302
   80c3c     H1  841   1.459   0.855   1.709  0.2852  2.3323 -0.6054
   80c3c     H2  842   1.578   0.807   1.832 -0.0218 -0.6523 -0.5331
   80c3c     H3  843   1.780   1.110   1.809 -2.6480  0.7662  1.0614
   80c3c     H4  844   1.763   0.957   1.892 -0.9562 -4.3739 -2.6621
   80c3c     H5  845   1.653   0.826   1.552  1.0665  0.7900 -0.1172
   80c3c     H6  846   1.699   0.718   1.692 -2.2161 -0.9339  2.1968
   80c3c     H7  847   1.778   0.982   1.593 -0.6411 -1.4524 -1.6546
   80c3c     H8  848   1.886   0.881   1.697 -0.0866 -0.0806  0.7314
   80c3c     H9  849   1.446   1.127   1.653 -0.0549  0.6113  2.0866
   80c3c    H10  850   1.607   1.186   1.674  0.5941 -0.1134  3.4320
   80c3c    H11  851   1.589   1.062   1.567 -0.6650 -0.2971 -0.8264
   80c3c    H12  852   1.532   1.154   1.912  2.5798  0.5751 -3.8784
   80c3c    H13  853   1.410   1.040   1.874  0.6532 -1.3520 -1.5315
   80c3c     C7  854   1.531   0.982   2.041 -0.4742 -0.4682 -0.3307
   80c3c    H14  855   1.630   0.962   2.083 -1.4864 -0.1681  2.3309
   80c3c    H15  856   1.481   0.885   2.040 -0.8845 -0.2443 -1.2127
   80c3c     C8  857   1.468   1.080   2.151  0.1834  0.5204 -0.1097
   80c3c    H16  858   1.536   1.165   2.164 -0.2475  0.5892  1.8492
   80c3c    H17  859   1.484   1.017   2.238  0.3086 -0.3053 -0.7277
   80c3c    H18  860   1.363   1.099   2.130  0.7220  0.9790 -2.5032
   81c3c      N  861   0.458   0.772   0.672  0.1367  0.1596  0.2507
   81c3c     C1  862   0.345   0.847   0.608 -0.2302 -0.7250  0.2413
   81c3c     C2  863   0.403   0.750   0.809 -0.2510  0.1171  0.6441
   81c3c     C3  864   0.214   0.782   0.658  0.3832 -0.1993 -0.4116
   81c3c     C4  865   0.258   0.705   0.782 -0.1007 -0.2033  0.4054
   81c3c     C5  866   0.497   0.647   0.605  0.0063 -1.0252 -0.0563
   81c3c     C6  867   0.584   0.856   0.676 -0.4231 -0.3289 -0.7831
   81c3c     H1  868   0.341   0.848   0.499  4.3232 -0.8310 -0.0283
   81c3c     H2  869   0.341   0.952   0.638  0.2135 -1.2624  2.2450
   81c3c     H3  870   0.454   0.682   0.877 -1.0748 -0.8667  0.2966
   81c3c     H4  871   0.393   0.848   0.856 -2.9014 -0.0465  0.5039
   81c3c     H5  872   0.159   0.713   0.594 -0.5088  0.9252 -0.8759
   81c3c     H6  873   0.129   0.846   0.680 -1.5715 -3.7370  2.9125
   81c3c     H7  874   0.237   0.601   0.758  1.6474 -0.4229 -0.2037
   81c3c     H8  875   0.204   0.716   0.876  1.3559 -0.7508  1.3139
   81c3c     H9  876   0.515   0.661   0.499 -0.7190 -0.6236 -0.1319
   81c3c    H10  877   0.591   0.600   0.632  0.2949  0.1669  1.0691
   81c3c    H11  878   0.425   0.565   0.616 -1.6076 -0.0161 -2.6410
   81c3c    H12  879   0.658   0.806   0.738 -1.6155 -1.8927 -0.5853
   81c3c    H13  880   0.634   0.855   0.578 -0.1264  0.1551 -0.6349
   81c3c     C7  881   0.579   1.000   0.721  0.0752 -0.6989 -0.4706
   81c3c    H14  882   0.527   0.995   0.816  1.4636  0.7065  0.3782
   81c3c    H15  883   0.526   1.056   0.645  1.4260 -0.2596 -1.1137
   81c3c     C8  884   0.716   1.066   0.755 -0.3077  0.0955 -0.3955
   81c3c    H16  885   0.773   1.077   0.663 -3.4142 -2.1156 -2.7052
   81c3c    H17  886   0.766   1.004   0.829 -0.6572  0.5190  0.2004
   81c3c    H18  887   0.709   1.164   0.802 -0.5953  0.0016 -0.2399
   82c3c      N  888   1.397   0.810   2.615  0.0336 -0.2598 -0.2797
   82c3c     C1  889   1.422   0.671   2.575  0.0841 -0.2604  0.1440
   82c3c     C2  890   1.463   0.830   2.744 -0.5616 -0.0177  0.4262
   82c3c     C3  891   1.552   0.623   2.641  0.4280  0.4731  0.0348
   82c3c     C4  892   1.586   0.743   2.728  0.0458 -0.0262 -0.2273
   82c3c     C5  893   1.473   0.886   2.511 -0.3225 -0.6360 -0.0273
   82c3c     C6  894   1.257   0.857   2.625  0.1208 -0.0143  0.1611
   82c3c     H1  895   1.434   0.644   2.470 -0.0166 -0.1470  0.1036
   82c3c     H2  896   1.335   0.615   2.609  1.5834 -2.0982  1.0434
   82c3c     H3  897   1.472   0.933   2.777 -3.2787  0.7348 -1.0113
   82c3c     H4  898   1.400   0.782   2.819 -1.4826  2.7836  1.5245
   82c3c     H5  899   1.633   0.600   2.572 -0.6926 -2.1114 -0.4415
   82c3c     H6  900   1.535   0.537   2.705 -0.4482 -0.1203 -0.9852
   82c3c     H7  901   1.660   0.817   2.697 -1.2162  1.1684 -0.4430
   82c3c     H8  902   1.624   0.703   2.822  1.2834  1.7495  0.0505
   82c3c     H9  903   1.414   0.892   2.419 -0.3045 -0.4176 -0.0235
   82c3c    H10  904   1.480   0.992   2.534  4.6053 -0.6748 -0.9247
   82c3c    H11  905   1.571   0.842   2.494 -0.8043 -1.3381 -1.0347
   82c3c    H12  906   1.263   0.961   2.658  2.8490  0.1545 -0.7583
   82c3c    H13  907   1.217   0.866   2.524 -0.1396 -2.0163  0.0673
   82c3c     C7  908   1.166   0.778   2.728 -0.0284  0.1888 -0.0257
   82c3c    H14  909   1.192   0.803   2.831 -0.2742 -0.8832  0.3009
   82c3c    H15  910   1.184   0.670   2.727 -1.5452 -0.0711 -0.8559
   82c3c     C8  911   1.017   0.795   2.710  0.5092  0.1780  0.1553
   82c3c    H16  912   0.983   0.783   2.607 -0.8076  0.9442  0.4890
   82c3c    H17  913   0.979   0.893   2.739  0.7582  0.3169  0.0101
   82c3c    H18  914   0.952   0.718   2.754 -0.0456  1.2518  1.2315
   83c3c      N  915   2.862   0.365   0.593  0.1401  0.2380 -0.1139
   83c3c     C1  916   2.974   0.374   0.694 -0.5276  0.2211  0.5138
   83c3c     C2  917   2.935   0.316   0.476  1.0658 -0.3276 -0.7435
   83c3c     C3  918   3.070   0.259   0.674 -0.9153  0.5001  0.4903
   83c3c     C4  919   3.048   0.226   0.522  0.2914  0.0998  0.0327
   83c3c     C5  920   2.776   0.245   0.636 -0.2952 -0.2144 -0.4420
   83c3c     C6  921   2.779   0.486   0.573  0.7853  0.0435  0.8297
   83c3c     H1  922   2.941   0.361   0.797  0.6433 -0.1319  0.8500
   83c3c     H2  923   3.037   0.463   0.697  1.0375 -0.8993  1.1310
   83c3c     H3  924   2.874   0.263   0.404  0.6753 -0.9034  0.0058
   83c3c     H4  925   2.979   0.402   0.424 -2.7619  1.8991 -0.5145
   83c3c     H5  926   3.053   0.168   0.730 -0.5320 -0.8023 -1.4518
   83c3c     H6  927   3.172   0.285   0.704 -1.2650  2.4668  0.0246
   83c3c     H7  928   3.006   0.127   0.502 -1.2491  0.6996  0.2260
   83c3c     H8  929   3.134   0.231   0.455  0.7807 -1.2417  0.5371
   83c3c     H9  930   2.741   0.259   0.739  1.7920  1.5687  0.0475
   83c3c    H10  931   2.688   0.236   0.573 -0.6004 -1.3545  0.1161
   83c3c    H11  932   2.828   0.149   0.643  0.1432 -0.0232 -1.0445
   83c3c    H12  933   2.716   0.472   0.485 -0.1643 -1.6058  1.7471
   83c3c    H13  934   2.702   0.506   0.648 -0.4901  0.0344 -0.4407
   83c3c     C7  935   2.855   0.629   0.543 -0.4052  0.3872  0.0881
   83c3c    H14  936   2.924   0.613   0.460 -2.4651  0.4216 -1.6944
   83c3c    H15  937   2.925   0.661   0.620  0.7505  0.2813 -0.8965
   83c3c     C8  938   2.765   0.740   0.488  0.2118 -0.6571 -0.6342
   83c3c    H16  939   2.677   0.745   0.552  0.1960 -1.2968 -0.6036
   83c3c    H17  940   2.727   0.718   0.389  0.1209  0.3938 -0.8321
   83c3c    H18  941   2.809   0.838   0.470  0.5160 -0.2627  2.0969
   84c3c      N  942   1.325   1.971   2.889 -0.6458 -0.1595 -1.2647
   84c3c     C1  943   1.213   2.058   2.860 -0.3290 -0.1341  0.0597
   84c3c     C2  944   1.413   1.997   2.773 -0.3217  0.3251 -0.0282
   84c3c     C3  945   1.276   2.191   2.829  0.3582 -0.0817 -0.7734
   84c3c     C4  946   1.417   2.150   2.779  0.0014  0.1030  0.3558
   84c3c     C5  947   1.383   2.010   3.020 -0.2412 -0.2164  0.2560
   84c3c     C6  948   1.291   1.833   2.893 -0.9545  0.1654 -0.6084
   84c3c     H1  949   1.146   2.076   2.944  1.2051  0.3651  1.1939
   84c3c     H2  950   1.168   2.025   2.766 -1.0966  2.1534 -0.4065
   84c3c     H3  951   1.513   1.959   2.790 -0.0394  1.4095  0.8056
   84c3c     H4  952   1.367   1.963   2.680  1.2891 -2.9260  0.3018
   84c3c     H5  953   1.262   2.256   2.915  0.7873  0.2079 -0.9180
   84c3c     H6  954   1.220   2.252   2.757 -0.4770  0.2164  0.1292
   84c3c     H7  955   1.499   2.185   2.841 -1.3678  0.1024  2.1765
   84c3c     H8  956   1.432   2.171   2.673  1.6374 -1.5655  0.2192
   84c3c     H9  957   1.320   1.978   3.103  0.0916 -1.2877  0.1042
   84c3c    H10  958   1.482   1.968   3.035 -0.4305 -2.3336 -3.6565
   84c3c    H11  959   1.388   2.116   3.043 -2.4859 -0.0111 -0.0847
   84c3c    H12  960   1.377   1.772   2.919 -0.6537  1.5358  1.8398
   84c3c    H13  961   1.223   1.812   2.976  0.5182 -3.4148 -0.2215
   84c3c     C7  962   1.218   1.759   2.784  0.0640 -0.3890  0.0333
   84c3c    H14  963   1.272   1.773   2.691 -1.8072  1.5696 -0.7980
   84c3c    H15  964   1.124   1.811   2.765  0.2018  1.0470  3.0941
   84c3c     C8  965   1.181   1.616   2.798  1.1531 -0.2249 -0.0992
   84c3c    H16  966   1.094   1.611   2.864  1.0244  1.0960 -0.1539
   84c3c    H17  967   1.259   1.566   2.854  1.1348 -0.9494 -0.7206
   84c3c    H18  968   1.157   1.552   2.713  0.3648 -1.7627  1.2522
   85c3c      N  969   2.990   0.001   2.217 -0.0552 -0.0100 -0.6190
   85c3c     C1  970   2.865   0.063   2.175  0.6551  0.8198 -0.3009
   85c3c     C2  971   3.085   0.042   2.106 -0.1310  0.0066  0.0174
   85c3c     C3  972   2.902   0.202   2.129  0.4358  0.7678 -0.3205
   85c3c     C4  973   3.048   0.191   2.077  0.0881  0.1319  0.3647
   85c3c     C5  974   3.030   0.068   2.343  0.3228  0.6442 -0.4189
   85c3c     C6  975   2.989  -0.149   2.240 -1.0229 -0.5663 -0.3191
   85c3c     H1  976   2.781   0.070   2.245  0.0589 -0.1908 -0.8993
   85c3c     H2  977   2.824   0.016   2.086  0.5165  2.0611 -0.9085
   85c3c     H3  978   3.189   0.029   2.134  0.8293  0.2645 -3.2317
   85c3c     H4  979   3.070  -0.010   2.012 -1.1475  1.2096 -0.5027
   85c3c     H5  980   2.884   0.279   2.204  3.4984  1.3626 -0.1521
   85c3c     H6  981   2.839   0.227   2.044  1.6287 -0.1764 -1.5025
   85c3c     H7  982   3.111   0.259   2.134 -0.4247 -0.3062  1.4547
   85c3c     H8  983   3.054   0.212   1.970  0.1690  0.8152  0.5067
   85c3c     H9  984   2.973   0.047   2.433  0.0932 -0.1649 -0.7574
   85c3c    H10  985   3.127   0.026   2.373 -1.6207 -1.8652  2.6596
   85c3c    H11  986   3.046   0.176   2.348  2.2659  0.4105 -1.1242
   85c3c    H12  987   3.092  -0.181   2.255 -0.7665  0.0050 -0.8412
   85c3c    H13  988   2.926  -0.155   2.329 -0.9905 -0.1023 -0.2611
   85c3c     C7  989   2.928  -0.227   2.118  0.7970  0.3065 -0.5869
   85c3c    H14  990   2.989  -0.218   2.029  0.8604  1.5363 -0.4306
   85c3c    H15  991   2.826  -0.193   2.098  1.0785  0.5941 -1.5716
   85c3c     C8  992   2.932  -0.381   2.150  0.1733 -0.3497  0.1458
   85c3c    H16  993   2.906  -0.401   2.254  1.4916 -1.1534  0.3373
   85c3c    H17  994   3.034  -0.416   2.134 -0.4400 -1.4169 -1.5050
   85c3c    H18  995   2.866  -0.431   2.080  1.1204 -1.3759 -0.0357
   86c3c      N  996   0.785   1.388   2.757 -0.3021 -1.0390 -0.1065
   86c3c     C1  997   0.898   1.384   2.659 -0.2885 -0.2159 -0.2747
   86c3c     C2  998   0.799   1.524   2.809 -0.0982  0.2805  0.4686
   86c3c     C3  999   0.893   1.521   2.587  0.1431  0.4349 -0.1122
   86c3c     C4 1000   0.821   1.612   2.688  0.2151 -0.2525  0.0574
   86c3c     C5 1001   0.657   1.360   2.690 -0.2164 -0.0027  0.5271
   86c3c     C6 1002   0.796   1.285   2.856  0.6356 -0.3956  0.0006
   86c3c     H1 1003   0.894   1.302   2.587  1.6656  1.8269 -2.7964
   86c3c     H2 1004   0.997   1.375   2.702  0.1281 -0.2290 -1.2134
   86c3c     H3 1005   0.709   1.541   2.868 -1.6216 -2.5847 -0.9051
   86c3c     H4 1006   0.883   1.544   2.875 -0.1158  1.2344  0.2193
   86c3c     H5 1007   0.828   1.513   2.499 -0.4685  0.8770  0.2947
   86c3c     H6 1008   0.985   1.569   2.553  0.2916 -0.9493 -1.7658
   86c3c     H7 1009   0.718   1.631   2.656  0.3860  1.0297  0.2286
   86c3c     H8 1010   0.874   1.703   2.715 -0.9358  0.1774  0.8894
   86c3c     H9 1011   0.570   1.369   2.755  0.0635 -1.2408  1.1027
   86c3c    H10 1012   0.641   1.432   2.610 -0.4884  0.6099  1.1273
   86c3c    H11 1013   0.663   1.261   2.644  0.1258  0.7669 -1.1029
   86c3c    H12 1014   0.710   1.288   2.922  0.7491  1.6054  0.0870
   86c3c    H13 1015   0.794   1.189   2.805 -1.7173  0.5685 -1.8314
   86c3c     C7 1016   0.916   1.293   2.957  0.5552 -0.0929  0.3714
   86c3c    H14 1017   0.896   1.373   3.029  1.6340  1.5397 -1.1193
   86c3c    H15 1018   1.007   1.334   2.913 -0.2864  0.9316 -0.4498
   86c3c     C8 1019   0.943   1.155   3.035 -0.2544 -0.6119  0.0820
   86c3c    H16 1020   0.966   1.076   2.964 -0.0356 -2.1240  1.7915
   86c3c    H17 1021   0.864   1.119   3.101 -0.7721 -0.2757 -0.3466
   86c3c    H18 1022   1.033   1.169   3.095 -0.4722  1.0614  0.0351
   87c3c      N 1023   0.737   0.201   1.785  0.2225  0.5005  0.3868
   87c3c     C1 1024   0.772   0.079   1.861  0.2467 -0.4844 -0.3318
   87c3c     C2 1025   0.854   0.288   1.805  0.2984  0.2298  0.2987
   87c3c     C3 1026   0.923   0.048   1.834  0.8585 -0.0977  0.4161
   87c3c     C4 1027   0.982   0.188   1.800  0.0210 -0.0760  0.7188
   87c3c     C5 1028   0.728   0.177   1.639 -0.4454 -0.1238 -0.7057
   87c3c     C6 1029   0.604   0.250   1.826 -0.1393 -0.7503  0.2544
   87c3c     H1 1030   0.703  -0.003   1.838 -0.2083  0.4640 -2.5234
   87c3c     H2 1031   0.757   0.088   1.968  0.4190  0.6368 -0.3970
   87c3c     H3 1032   0.856   0.375   1.741  2.5431 -0.2611 -0.3498
   87c3c     H4 1033   0.848   0.331   1.905 -1.3962  1.9058 -0.5003
   87c3c     H5 1034   0.938  -0.017   1.748  1.2717  0.3861  0.1195
   87c3c     H6 1035   0.991   0.009   1.909 -0.6798 -1.8563  0.9273
   87c3c     H7 1036   1.028   0.175   1.702 -0.4225 -0.7478  0.5891
   87c3c     H8 1037   1.064   0.227   1.859  0.6645  1.6441 -1.2937
   87c3c     H9 1038   0.631   0.130   1.620  0.1711 -1.8490  0.2822
   87c3c    H10 1039   0.736   0.272   1.586 -0.4911  0.4159  0.2565
   87c3c    H11 1040   0.799   0.107   1.594  2.0771  1.2297  1.0427
   87c3c    H12 1041   0.560   0.327   1.763 -0.9093 -1.4222 -0.0339
   87c3c    H13 1042   0.541   0.162   1.840  0.4158 -1.3372 -0.8353
   87c3c     C7 1043   0.606   0.324   1.961 -1.1759 -0.1007  0.4958
   87c3c    H14 1044   0.646   0.425   1.958 -0.4006 -0.4650 -2.5745
   87c3c    H15 1045   0.668   0.277   2.038  0.1232  0.9105  0.0836
   87c3c     C8 1046   0.466   0.356   2.009 -0.2138 -0.1048  0.1752
   87c3c    H16 1047   0.417   0.261   2.029  0.2113 -0.5411 -0.8018
   87c3c    H17 1048   0.404   0.403   1.933  1.0394 -2.0708 -2.1265
   87c3c    H18 1049   0.466   0.417   2.099 -0.4106  0.8068 -0.4363
   88c3c      N 1050   1.828   1.226   1.008 -0.4078  0.0111 -0.4358
   88c3c     C1 1051   1.931   1.216   0.899 -0.0623 -0.2593 -0.5912
   88c3c     C2 1052   1.877   1.338   1.086  0.0753  0.9953  0.0714
   88c3c     C3 1053   1.966   1.360   0.854  0.0338  0.3017 -0.1741
   88c3c     C4 1054   1.925   1.439   0.980 -0.0523 -0.0472  0.6821
   88c3c     C5 1055   1.695   1.243   0.951  0.1424 -0.4667 -0.4466
   88c3c     C6 1056   1.821   1.103   1.092 -0.5004  0.4238 -0.8087
   88c3c     H1 1057   1.899   1.159   0.812 -0.1273 -0.3875 -0.4830
   88c3c     H2 1058   2.024   1.173   0.938  0.9723  1.1699 -1.3964
   88c3c     H3 1059   1.806   1.379   1.158 -0.6361  3.1657 -1.8117
   88c3c     H4 1060   1.971   1.303   1.130 -0.6227  0.6888  1.3450
   88c3c     H5 1061   1.907   1.396   0.770  0.3530  0.5645 -0.2843
   88c3c     H6 1062   2.074   1.369   0.842  0.1068  0.9822  0.9300
   88c3c     H7 1063   1.852   1.513   0.949  0.1441  0.2134  0.8448
   88c3c     H8 1064   2.009   1.497   1.019 -0.8888  1.2279  0.6101
   88c3c     H9 1065   1.665   1.163   0.883  1.4225 -0.0865 -1.4872
   88c3c    H10 1066   1.623   1.233   1.032  1.5212  0.1319  0.8707
   88c3c    H11 1067   1.661   1.339   0.912  0.9682  0.8597  2.0021
   88c3c    H12 1068   1.736   1.119   1.158  0.6895 -2.6686  1.5997
   88c3c    H13 1069   1.778   1.024   1.029  1.2525 -1.2917  0.0956
   88c3c     C7 1070   1.949   1.044   1.159  0.4028  0.3182  0.4117
   88c3c    H14 1071   1.973   1.120   1.234  0.7458  0.8607 -0.2379
   88c3c    H15 1072   2.037   1.030   1.098  0.2958  0.2815  0.2661
   88c3c     C8 1073   1.929   0.916   1.248  0.1174  0.2939 -0.7984
   88c3c    H16 1074   1.869   0.945   1.334 -1.6242 -0.8776 -1.5886
   88c3c    H17 1075   2.024   0.888   1.292 -1.5300 -3.1869  0.7390
   88c3c    H18 1076   1.881   0.830   1.201 -0.1242  0.8965 -1.6799
   89c3c      N 1077   2.405   2.680   0.304 -0.1220 -0.0290  0.4688
   89c3c     C1 1078   2.282   2.745   0.348 -0.3762  0.4375  0.6880
   89c3c     C2 1079   2.461   2.768   0.200  1.0727  0.2105 -0.5334
   89c3c     C3 1080   2.328   2.885   0.365  0.7235 -0.0380 -0.3190
   89c3c     C4 1081   2.444   2.900   0.263  0.5710 -0.0464  0.2842
   89c3c     C5 1082   2.494   2.652   0.417 -0.7591  0.6160 -0.4736
   89c3c     C6 1083   2.378   2.549   0.251 -0.2718  0.1435  0.3737
   89c3c     H1 1084   2.251   2.707   0.445  0.1927  1.3017  1.2243
   89c3c     H2 1085   2.205   2.746   0.271  0.7135  1.8644 -0.4259
   89c3c     H3 1086   2.566   2.744   0.187  0.8895 -1.1149  0.3513
   89c3c     H4 1087   2.418   2.766   0.099  1.0105  1.9448 -0.5562
   89c3c     H5 1088   2.361   2.896   0.468  2.0098 -1.1335 -0.6092
   89c3c     H6 1089   2.241   2.952   0.359  0.1012 -0.6174  1.7504
   89c3c     H7 1090   2.537   2.919   0.317  1.7127  0.7026 -1.8865
   89c3c     H8 1091   2.426   2.974   0.186  0.6208 -0.5228 -0.1867
   89c3c     H9 1092   2.449   2.598   0.499  1.0257 -0.6284 -0.2775
   89c3c    H10 1093   2.579   2.589   0.390 -0.3987  0.7646  0.2918
   89c3c    H11 1094   2.541   2.739   0.464 -0.5659 -0.3870  1.2199
   89c3c    H12 1095   2.468   2.523   0.195 -0.7716  1.8857 -1.2694
   89c3c    H13 1096   2.359   2.479   0.333 -0.4053 -0.1550  0.0915
   89c3c     C7 1097   2.265   2.534   0.142 -0.4395  0.0656 -0.3362
   89c3c    H14 1098   2.258   2.623   0.079 -2.3890 -0.0707 -0.3599
   89c3c    H15 1099   2.168   2.523   0.192  0.3160 -0.7667  0.9688
   89c3c     C8 1100   2.294   2.414   0.062  0.1045 -0.6527  0.4280
   89c3c    H16 1101   2.371   2.426  -0.015  2.0191 -1.4368  2.1772
   89c3c    H17 1102   2.206   2.398   0.000 -1.0449 -0.1632  1.9257
   89c3c    H18 1103   2.330   2.327   0.117  2.2326 -0.1873 -0.1822
   90c3c      N 1104   1.117   2.506   1.861  0.1730 -0.0517 -0.0806
   90c3c     C1 1105   1.011   2.421   1.911  0.3186 -0.6155 -0.2695
   90c3c     C2 1106   1.039   2.634   1.829 -0.6673  0.5791  0.2502
   90c3c     C3 1107   0.908   2.504   1.989 -0.2627 -0.3773 -0.0974
   90c3c     C4 1108   0.908   2.631   1.906  0.2053  0.5388 -0.1168
   90c3c     C5 1109   1.200   2.542   1.974 -0.1849 -0.1986  0.4682
   90c3c     C6 1110   1.203   2.440   1.760  0.1647 -0.7151 -0.3615
   90c3c     H1 1111   1.053   2.339   1.970  0.8670  0.6576  1.1227
   90c3c     H2 1112   0.968   2.378   1.820 -1.7051 -0.3826  0.5363
   90c3c     H3 1113   1.105   2.719   1.849 -2.0762  1.5530  0.7700
   90c3c     H4 1114   1.021   2.642   1.722 -1.0243 -0.8462  0.1971
   90c3c     H5 1115   0.948   2.526   2.088 -1.3893  0.7657  0.1200
   90c3c     H6 1116   0.808   2.460   1.997  0.6448 -2.4811 -0.1290
   90c3c     H7 1117   0.898   2.713   1.977 -0.3145 -0.5884  1.1425
   90c3c     H8 1118   0.823   2.631   1.838  0.8884 -0.5507 -0.9897
   90c3c     H9 1119   1.158   2.602   2.054 -0.1301  2.2833 -1.2949
   90c3c    H10 1120   1.250   2.460   2.026  0.2571  0.4483  1.0672
   90c3c    H11 1121   1.276   2.614   1.944 -1.4269  0.8378 -0.2294
   90c3c    H12 1122   1.293   2.501   1.749  0.8424 -1.6679 -0.1858
   90c3c    H13 1123   1.240   2.344   1.799 -2.6770 -1.8134 -0.2891
   90c3c     C7 1124   1.152   2.413   1.619  0.1799 -0.0513 -0.5238
   90c3c    H14 1125   1.128   2.512   1.581 -4.2782  0.0419  2.1689
   90c3c    H15 1126   1.055   2.364   1.624 -0.7288  1.6898 -0.7323
   90c3c     C8 1127   1.253   2.318   1.540  0.4016  0.7918 -0.3116
   90c3c    H16 1128   1.355   2.337   1.573  0.6837 -0.6052 -0.3758
   90c3c    H17 1129   1.242   2.317   1.432  0.3991  2.3737 -0.3392
   90c3c    H18 1130   1.229   2.226   1.593 -1.8182  1.0605 -0.8265
   91c3c      N 1131   2.393   0.922   2.755 -0.7109  0.2718  0.2773
   91c3c     C1 1132   2.412   0.794   2.685  0.7623  0.4920 -0.2018
   91c3c     C2 1133   2.462   0.897   2.883  0.4731 -0.7209 -0.1015
   91c3c     C3 1134   2.552   0.740   2.723  0.0275 -0.0286  0.1152
   91c3c     C4 1135   2.569   0.791   2.860 -0.0480 -0.1707  0.5081
   91c3c     C5 1136   2.468   1.026   2.681  0.2222  0.6405  0.3228
   91c3c     C6 1137   2.259   0.968   2.766 -0.2559 -0.2558  1.3059
   91c3c     H1 1138   2.406   0.809   2.577  1.7309  3.7655  0.1353
   91c3c     H2 1139   2.338   0.723   2.721 -1.8603  3.1649 -0.1108
   91c3c     H3 1140   2.505   0.991   2.918 -0.3818  0.1475 -1.3218
   91c3c     H4 1141   2.388   0.867   2.956  0.0520  0.2931 -0.1006
   91c3c     H5 1142   2.622   0.784   2.653  0.1807  3.2790  2.2101
   91c3c     H6 1143   2.553   0.631   2.714  4.1560 -0.0542  0.0806
   91c3c     H7 1144   2.669   0.825   2.885  0.5475 -0.9838 -0.7334
   91c3c     H8 1145   2.542   0.709   2.926 -1.4270  0.4934  0.7836
   91c3c     H9 1146   2.429   1.032   2.580  0.9316  2.1158  0.1369
   91c3c    H10 1147   2.467   1.121   2.733  2.2465  0.2139  1.2324
   91c3c    H11 1148   2.572   1.000   2.658 -0.3427 -1.5457  0.0746
   91c3c    H12 1149   2.250   1.066   2.814  1.0327  1.0099 -0.9601
   91c3c    H13 1150   2.224   0.986   2.664 -0.5886  0.4103  1.5328
   91c3c     C7 1151   2.148   0.875   2.833  0.3227  0.1903 -0.0768
   91c3c    H14 1152   2.189   0.852   2.931  1.7597 -0.6788 -0.8706
   91c3c    H15 1153   2.137   0.781   2.778 -0.0989  0.3516 -0.2733
   91c3c     C8 1154   2.011   0.942   2.843  0.4263 -0.1316 -0.4056
   91c3c    H16 1155   1.983   0.974   2.742 -0.4162  1.0162  0.1880
   91c3c    H17 1156   2.013   1.034   2.900 -0.4499 -0.3953  0.0583
   91c3c    H18 1157   1.943   0.878   2.900  2.9149 -2.9605 -0.4652
   92c3c      N 1158   0.966   1.994   0.600  0.1751  0.1308  0.3432
   92c3c     C1 1159   0.921   1.986   0.461 -0.3689 -0.4956  0.1529
   92c3c     C2 1160   0.844   1.981   0.672  0.2717 -0.7227 -0.3600
   92c3c     C3 1161   0.806   1.884   0.458  0.0960  0.0860 -0.3843
   92c3c     C4 1162   0.765   1.870   0.608  0.1876 -0.0407 -0.4484
   92c3c     C5 1163   1.049   1.879   0.627  0.2972  0.5163  0.3219
   92c3c     C6 1164   1.045   2.115   0.629  0.4652 -0.1202  0.3008
   92c3c     H1 1165   1.000   1.975   0.386 -1.3335  0.0685 -0.9534
   92c3c     H2 1166   0.875   2.081   0.435 -0.2865 -0.8715 -1.4578
   92c3c     H3 1167   0.852   1.953   0.777  1.1145  1.0120  0.0692
   92c3c     H4 1168   0.789   2.075   0.671  0.7502 -0.4356 -0.1287
   92c3c     H5 1169   0.826   1.787   0.413  0.0218  0.4733 -1.2721
   92c3c     H6 1170   0.717   1.922   0.409 -0.0517  0.3312  0.0657
   92c3c     H7 1171   0.790   1.770   0.642  0.5375 -0.8391 -2.9351
   92c3c     H8 1172   0.658   1.890   0.613 -0.1237 -1.1552 -2.1865
   92c3c     H9 1173   1.057   1.854   0.732 -1.5167  1.3591  0.6749
   92c3c    H10 1174   1.011   1.791   0.575  1.4438  0.3223 -0.2201
   92c3c    H11 1175   1.150   1.884   0.584  0.5571 -0.0062  0.8722
   92c3c    H12 1176   1.075   2.112   0.734 -0.5611  0.4516  0.6220
   92c3c    H13 1177   1.132   2.110   0.564 -0.1177  0.3797 -0.5337
   92c3c     C7 1178   0.973   2.248   0.609 -0.3594 -0.8565 -0.2682
   92c3c    H14 1179   0.885   2.263   0.671 -0.1970  0.0911 -0.2513
   92c3c    H15 1180   0.947   2.265   0.504  1.6755 -1.6890 -0.9293
   92c3c     C8 1181   1.074   2.363   0.643 -0.6727 -0.2926 -0.6687
   92c3c    H16 1182   1.023   2.455   0.672 -1.0033 -0.0616 -1.9418
   92c3c    H17 1183   1.140   2.377   0.557 -1.2971 -1.2344 -1.3183
   92c3c    H18 1184   1.136   2.341   0.729  0.8528 -1.3490 -2.0066
   93c3c      N 1185   0.171   2.704   0.781 -1.1357 -0.0290 -0.2041
   93c3c     C1 1186   0.141   2.836   0.726 -0.3895 -0.3715 -0.1925
   93c3c     C2 1187   0.314   2.683   0.791 -0.2818 -0.2924  0.0315
   93c3c     C3 1188   0.255   2.921   0.780 -0.5373 -0.4034  0.0667
   93c3c     C4 1189   0.369   2.825   0.821 -0.2172 -0.2129 -0.3682
   93c3c     C5 1190   0.121   2.706   0.917  0.3187 -0.1441  0.3233
   93c3c     C6 1191   0.091   2.605   0.705  0.2096  0.0492  0.2275
   93c3c     H1 1192   0.040   2.876   0.738 -0.2200 -0.6025  2.1567
   93c3c     H2 1193   0.159   2.839   0.619 -1.5585 -0.7818 -0.4010
   93c3c     H3 1194   0.342   2.610   0.866  1.3638 -0.8191 -1.0481
   93c3c     H4 1195   0.357   2.659   0.693  0.4985 -0.5985  0.4468
   93c3c     H5 1196   0.211   2.973   0.866  0.4656 -2.7321  2.0511
   93c3c     H6 1197   0.282   3.001   0.711  1.4312 -0.6724  0.5031
   93c3c     H7 1198   0.402   2.829   0.925  0.3687  0.5445 -0.5816
   93c3c     H8 1199   0.463   2.847   0.771  0.6934 -2.1637  0.4486
   93c3c     H9 1200   0.168   2.779   0.982 -0.5369  1.4763 -0.8462
   93c3c    H10 1201   0.013   2.721   0.922  0.1888 -1.2305  0.9603
   93c3c    H11 1202   0.142   2.607   0.959 -0.6188 -0.0335  1.0638
   93c3c    H12 1203   0.097   2.514   0.764 -1.6122  0.0415  0.4226
   93c3c    H13 1204  -0.012   2.639   0.695 -0.4607 -1.3425  2.1289
   93c3c     C7 1205   0.148   2.556   0.562  0.2171  0.5002 -1.1028
   93c3c    H14 1206   0.246   2.511   0.569  0.5804  1.5356  0.8212
   93c3c    H15 1207   0.146   2.642   0.495  0.8490 -0.2170 -2.0398
   93c3c     C8 1208   0.054   2.469   0.486  0.0083  0.5216  0.4860
   93c3c    H16 1209   0.024   2.387   0.552 -1.3394  0.7618  0.1795
   93c3c    H17 1210   0.097   2.422   0.397 -1.0004 -0.0753  0.3067
   93c3c    H18 1211  -0.041   2.518   0.466  0.2114  0.9033  0.4561
   94c3c      N 1212   1.576   0.064   1.875 -0.2546 -0.1035 -0.2175
   94c3c     C1 1213   1.558   0.027   2.014  0.1936  0.1418 -0.1811
   94c3c     C2 1214   1.549   0.210   1.869 -0.8422 -0.4364  0.0076
   94c3c     C3 1215   1.585   0.148   2.099 -0.1278  0.6552  0.5036
   94c3c     C4 1216   1.618   0.256   2.000 -0.5590 -0.8074  0.3090
   94c3c     C5 1217   1.715   0.040   1.835  0.3586  0.2488 -0.4290
   94c3c     C6 1218   1.498  -0.019   1.784  0.1360 -0.1854 -0.2614
   94c3c     H1 1219   1.622  -0.059   2.033  0.3858  0.3020 -0.0967
   94c3c     H2 1220   1.464  -0.015   2.049  0.6116 -0.0050  0.7889
   94c3c     H3 1221   1.598   0.271   1.792 -0.5346 -2.3499 -1.3320
   94c3c     H4 1222   1.445   0.241   1.874 -0.4939  0.5090  2.0181
   94c3c     H5 1223   1.665   0.123   2.168 -0.7478 -1.1849  0.5770
   94c3c     H6 1224   1.497   0.164   2.162 -1.5066 -0.9830 -0.9512
   94c3c     H7 1225   1.726   0.273   2.002 -0.8408  1.4498 -1.9430
   94c3c     H8 1226   1.571   0.344   2.044 -0.6905 -1.4782  1.5572
   94c3c     H9 1227   1.739  -0.063   1.860  0.8300  0.4298 -0.1311
   94c3c    H10 1228   1.717   0.049   1.726 -0.7905 -0.6460 -0.5411
   94c3c    H11 1229   1.793   0.104   1.875  0.7155 -0.4779  0.0427
   94c3c    H12 1230   1.522   0.003   1.680 -2.2534  0.7080 -0.6476
   94c3c    H13 1231   1.522  -0.124   1.802 -0.5637 -0.5458 -1.3978
   94c3c     C7 1232   1.342   0.003   1.793  0.6130  0.1720 -0.0553
   94c3c    H14 1233   1.308   0.106   1.786 -2.2812 -0.8754 -2.6330
   94c3c    H15 1234   1.309  -0.030   1.891  1.1961  1.1892  0.4920
   94c3c     C8 1235   1.255  -0.060   1.676  0.5698  0.0167  0.3272
   94c3c    H16 1236   1.229  -0.165   1.687  0.0579 -0.0916 -1.7140
   94c3c    H17 1237   1.293  -0.050   1.574  1.7520  0.8228  0.8457
   94c3c    H18 1238   1.155  -0.016   1.676 -0.8179 -2.7625 -4.4268
   95c3c      N 1239   0.808   1.897   1.610 -0.1749  0.0804 -0.4468
   95c3c     C1 1240   0.821   1.863   1.753 -0.9221 -0.2331 -0.0254
   95c3c     C2 1241   0.829   2.043   1.608  0.6733 -0.0771  0.0087
   95c3c     C3 1242   0.743   1.967   1.828 -0.8500 -0.0081  0.1320
   95c3c     C4 1243   0.766   2.096   1.744 -0.2203 -0.1364  0.0691
   95c3c     C5 1244   0.924   1.837   1.534  0.1034  0.0610  0.5028
   95c3c     C6 1245   0.690   1.849   1.540 -0.3550 -0.0118  0.1389
   95c3c     H1 1246   0.926   1.874   1.779 -0.7592  0.1401 -0.8358
   95c3c     H2 1247   0.786   1.761   1.771 -0.8472 -0.0580  1.1703
   95c3c     H3 1248   0.934   2.067   1.624 -0.1891  2.8157  1.6142
   95c3c     H4 1249   0.797   2.105   1.525  1.1357  1.7132  1.1469
   95c3c     H5 1250   0.774   1.975   1.932 -1.7509 -1.6323  0.5483
   95c3c     H6 1251   0.639   1.939   1.848 -0.0611 -1.3247  2.6704
   95c3c     H7 1252   0.816   2.172   1.804 -0.0127 -0.7233  0.6430
   95c3c     H8 1253   0.666   2.136   1.727 -1.1036 -2.2799  0.0920
   95c3c     H9 1254   0.906   1.730   1.530 -0.2691  0.0807  1.3520
   95c3c    H10 1255   0.940   1.880   1.435  0.5532 -0.1165  0.4992
   95c3c    H11 1256   1.011   1.856   1.597  0.8305  0.1363 -0.5230
   95c3c    H12 1257   0.702   1.874   1.435 -0.8670  1.9955  0.5550
   95c3c    H13 1258   0.680   1.740   1.547  0.7051 -0.1925 -0.8766
   95c3c     C7 1259   0.552   1.920   1.566  0.3132  0.3212  0.0373
   95c3c    H14 1260   0.542   2.019   1.522  1.0098  0.2510 -0.2828
   95c3c    H15 1261   0.528   1.937   1.672 -1.1869 -3.0439  0.2938
   95c3c     C8 1262   0.432   1.848   1.494  0.4334 -0.3989 -0.2803
   95c3c    H16 1263   0.347   1.909   1.465  0.4319 -0.7021 -0.9378
   95c3c    H17 1264   0.397   1.768   1.558  0.5145  0.6725  1.1156
   95c3c    H18 1265   0.468   1.806   1.399 -0.7377 -1.7152 -0.1493
   96c3c      N 1266   0.385   1.334   1.303 -0.3004  0.3042  0.6433
   96c3c     C1 1267   0.256   1.265   1.326 -0.6059  0.0267  0.4564
   96c3c     C2 1268   0.344   1.479   1.298  0.0301 -0.0056 -0.4468
   96c3c     C3 1269   0.189   1.361   1.430  0.1311  0.6654  0.0546
   96c3c     C4 1270   0.254   1.496   1.427  0.1245  0.2792  0.9437
   96c3c     C5 1271   0.490   1.322   1.400  0.3563 -0.5228 -0.4664
   96c3c     C6 1272   0.443   1.284   1.178  0.3857 -0.5524  0.1075
   96c3c     H1 1273   0.261   1.162   1.360 -0.3401 -0.4958 -1.0926
   96c3c     H2 1274   0.196   1.268   1.235  2.0025  1.5052 -1.2734
   96c3c     H3 1275   0.431   1.543   1.293 -0.1758  0.2094 -1.4449
   96c3c     H4 1276   0.277   1.498   1.213 -2.0049  0.7499  1.2773
   96c3c     H5 1277   0.210   1.324   1.531  0.6483  1.7606  0.3544
   96c3c     H6 1278   0.081   1.353   1.423  0.1807  0.4974 -0.5733
   96c3c     H7 1279   0.311   1.489   1.520 -0.1150  0.0606  1.0724
   96c3c     H8 1280   0.191   1.585   1.429 -0.0463  0.2723 -1.8921
   96c3c     H9 1281   0.514   1.217   1.415 -0.2562 -0.7285 -0.8892
   96c3c    H10 1282   0.583   1.377   1.388  1.0489 -1.2106  1.5788
   96c3c    H11 1283   0.453   1.363   1.495 -1.1005  0.3987 -1.4119
   96c3c    H12 1284   0.550   1.305   1.173  0.2166 -0.1851 -2.8738
   96c3c    H13 1285   0.439   1.176   1.189  0.9201 -0.5817  0.0580
   96c3c     C7 1286   0.379   1.333   1.047 -0.6446  0.7787  0.6901
   96c3c    H14 1287   0.386   1.440   1.027 -1.8458  0.3649 -2.2279
   96c3c    H15 1288   0.276   1.300   1.035 -0.0828  0.0444 -2.3866
   96c3c     C8 1289   0.467   1.277   0.932 -0.1366  0.6095 -0.0549
   96c3c    H16 1290   0.402   1.270   0.845 -1.2791 -1.9767  0.9499
   96c3c    H17 1291   0.494   1.173   0.948 -0.4975  0.5617  0.2532
   96c3c    H18 1292   0.548   1.349   0.921 -1.4222  2.2551  1.0576
   97c3c      N 1293   2.981   1.509   2.530  0.0677  0.0134 -0.2671
   97c3c     C1 1294   3.117   1.551   2.508 -1.0736  0.6790 -0.0443
   97c3c     C2 1295   2.934   1.493   2.397  0.3373 -0.5548  0.0881
   97c3c     C3 1296   3.176   1.470   2.388 -0.0139 -0.4100 -0.0891
   97c3c     C4 1297   3.048   1.440   2.309 -0.5295 -0.0128 -0.2149
   97c3c     C5 1298   2.989   1.374   2.589 -0.8220 -0.7835 -0.1733
   97c3c     C6 1299   2.904   1.600   2.612  0.9943  0.2405 -0.1149
   97c3c     H1 1300   3.192   1.556   2.587 -0.1789  1.6607 -0.9420
   97c3c     H2 1301   3.106   1.657   2.485  0.0066  0.8487  0.2084
   97c3c     H3 1302   2.838   1.442   2.395 -1.2835  2.0806  4.1969
   97c3c     H4 1303   2.906   1.592   2.361 -0.4084 -0.5419  0.7005
   97c3c     H5 1304   3.227   1.380   2.424  2.2040  0.3066 -1.3553
   97c3c     H6 1305   3.248   1.520   2.324  0.7726  0.7570  1.6713
   97c3c     H7 1306   3.030   1.333   2.299 -1.4729  0.0058  1.1028
   97c3c     H8 1307   3.050   1.484   2.209  0.7435  0.6180  0.0700
   97c3c     H9 1308   3.041   1.372   2.685 -1.6920 -1.2547  0.2916
   97c3c    H10 1309   2.888   1.337   2.607 -0.9465 -0.8102 -0.9258
   97c3c    H11 1310   3.045   1.301   2.531 -0.2243 -0.6554  0.2275
   97c3c    H12 1311   2.807   1.556   2.638  0.8797  0.6641  0.1932
   97c3c    H13 1312   2.943   1.601   2.714  0.2782 -2.6846  0.2593
   97c3c     C7 1313   2.875   1.741   2.563 -0.0083 -0.2360 -0.1416
   97c3c    H14 1314   2.819   1.753   2.470 -0.0314  1.4142  0.0592
   97c3c    H15 1315   2.968   1.798   2.555 -0.0150  0.1753  2.4365
   97c3c     C8 1316   2.780   1.810   2.661 -0.8305  0.3280 -0.6898
   97c3c    H16 1317   2.682   1.763   2.660 -0.3404 -0.8113  1.6778
   97c3c    H17 1318   2.763   1.916   2.642 -0.8652  0.7940  1.7329
   97c3c    H18 1319   2.819   1.810   2.763  0.5870 -0.9609 -1.2180
   98c3c      N 1320   1.284   0.895   0.789  0.4724 -0.7070 -0.2472
   98c3c     C1 1321   1.205   0.926   0.911 -0.6486 -0.0169 -0.0927
   98c3c     C2 1322   1.188   0.917   0.681 -0.9134 -0.8178  0.3882
   98c3c     C3 1323   1.108   1.046   0.877  0.0514 -0.5089 -0.3832
   98c3c     C4 1324   1.089   1.026   0.731  0.1972  0.2029 -0.2208
   98c3c     C5 1325   1.394   0.992   0.777  0.8493 -0.1192 -0.2629
   98c3c     C6 1326   1.351   0.767   0.785  0.2550 -0.3868 -0.1664
   98c3c     H1 1327   1.274   0.932   0.995  0.0095 -0.2964 -0.6071
   98c3c     H2 1328   1.144   0.840   0.940 -0.5481  0.7436  2.5525
   98c3c     H3 1329   1.233   0.942   0.586 -2.0023 -0.1533  0.0383
   98c3c     H4 1330   1.121   0.836   0.650 -2.3841  0.4669  0.1735
   98c3c     H5 1331   1.142   1.147   0.898 -1.8453 -0.3971  2.3422
   98c3c     H6 1332   1.011   1.025   0.922 -0.2644  1.7134  0.0179
   98c3c     H7 1333   1.107   1.119   0.676 -0.1665  0.0655 -0.5754
   98c3c     H8 1334   0.988   0.988   0.716 -0.2537  1.3141 -0.0445
   98c3c     H9 1335   1.457   0.970   0.864  0.8571 -0.4356 -0.3499
   98c3c    H10 1336   1.463   0.988   0.692  1.2000 -2.2982  0.0938
   98c3c    H11 1337   1.376   1.097   0.804  0.1043 -0.0543 -1.0376
   98c3c    H12 1338   1.427   0.770   0.707 -0.7895  0.6224 -1.1687
   98c3c    H13 1339   1.407   0.756   0.878  2.7614 -1.8932 -1.7823
   98c3c     C7 1340   1.261   0.646   0.754  0.6026  0.2669 -0.1482
   98c3c    H14 1341   1.221   0.657   0.654  0.6304 -2.1919 -0.4516
   98c3c    H15 1342   1.173   0.638   0.819  1.2016 -0.5767  0.5836
   98c3c     C8 1343   1.343   0.518   0.763 -0.1434  0.1451  0.6260
   98c3c    H16 1344   1.447   0.525   0.729  0.1653 -1.4107  1.2230
   98c3c    H17 1345   1.301   0.433   0.709 -3.6357  1.5493  0.9941
   98c3c    H18 1346   1.371   0.487   0.864  0.0045 -1.7259  0.0242
   99c3c      N 1347   1.448   1.596   1.362 -1.0333  0.4026  0.1515
   99c3c     C1 1348   1.426   1.714   1.270 -0.2941 -0.1500 -0.5775
   99c3c     C2 1349   1.531   1.519   1.265 -0.6571  0.3550 -0.0103
   99c3c     C3 1350   1.551   1.739   1.203  0.2960  0.0976 -0.2727
   99c3c     C4 1351   1.634   1.608   1.211 -0.3974 -0.1422 -0.4401
   99c3c     C5 1352   1.526   1.633   1.481 -0.8876 -0.6375  1.3154
   99c3c     C6 1353   1.329   1.529   1.405  0.5134  0.0106  0.0553
   99c3c     H1 1354   1.400   1.805   1.323  2.3141  0.2066  0.1717
   99c3c     H2 1355   1.349   1.707   1.193 -1.2359  1.2106  0.2266
   99c3c     H3 1356   1.569   1.435   1.324  1.8466  1.1596 -0.3856
   99c3c     H4 1357   1.468   1.478   1.186  1.0548 -0.9988 -0.7352
   99c3c     H5 1358   1.602   1.826   1.245 -2.8977  2.0657 -0.2745
   99c3c     H6 1359   1.543   1.761   1.097 -1.9425  2.2021  0.2827
   99c3c     H7 1360   1.713   1.623   1.284 -0.2927  2.3872 -1.0306
   99c3c     H8 1361   1.670   1.570   1.115  1.2815 -0.4170  0.2990
   99c3c     H9 1362   1.474   1.719   1.524 -0.3029 -0.4188  1.5913
   99c3c    H10 1363   1.523   1.549   1.550 -1.5564 -2.1545 -0.5183
   99c3c    H11 1364   1.628   1.672   1.475  0.2448 -3.2382  2.8454
   99c3c    H12 1365   1.359   1.441   1.461  1.8791 -0.1668 -0.9344
   99c3c    H13 1366   1.272   1.589   1.477 -0.7376 -1.3015  0.1822
   99c3c     C7 1367   1.226   1.483   1.304  0.0775 -0.1228 -0.0548
   99c3c    H14 1368   1.270   1.410   1.236 -0.4453 -1.4249  0.9759
   99c3c    H15 1369   1.184   1.567   1.248  0.3440  0.4084  0.5326
   99c3c     C8 1370   1.108   1.418   1.370  0.8962  0.4768  0.1087
   99c3c    H16 1371   1.147   1.334   1.427 -1.4276 -0.4735  0.3610
   99c3c    H17 1372   1.046   1.388   1.286 -0.8881  1.1654  1.1587
   99c3c    H18 1373   1.048   1.488   1.428 -2.2657 -0.6124 -1.7301
  100c3c      N 1374   0.435   0.340   2.993  0.5161 -0.2244 -0.4977
  100c3c     C1 1375   0.339   0.450   3.008 -0.6546 -0.1204  0.1240
  100c3c     C2 1376   0.364   0.231   3.058  0.1301 -0.5560 -0.2480
  100c3c     C3 1377   0.205   0.393   2.966 -0.3636  0.0977 -0.5496
  100c3c     C4 1378   0.220   0.245   3.022 -0.7406  0.2820  0.0795
  100c3c     C5 1379   0.467   0.309   2.856  0.1261 -0.0551  0.5675
  100c3c     C6 1380   0.568   0.378   3.059  0.7832 -0.0363  0.1181
  100c3c     H1 1381   0.369   0.536   2.947 -1.2443 -0.8466 -1.2212
  100c3c     H2 1382   0.325   0.487   3.109  0.4547  2.4415 -0.6338
  100c3c     H3 1383   0.400   0.136   3.018 -0.4966 -1.3125  0.9798
  100c3c     H4 1384   0.365   0.242   3.166  0.7728 -0.9583 -0.2157
  100c3c     H5 1385   0.201   0.397   2.858  0.4243 -0.1958 -0.5937
  100c3c     H6 1386   0.127   0.455   3.011  0.1352 -0.0723  0.5780
  100c3c     H7 1387   0.195   0.190   2.931 -0.1216 -3.4266  2.0642
  100c3c     H8 1388   0.154   0.229   3.107 -1.1027  1.6112  0.0629
  100c3c     H9 1389   0.504   0.399   2.805 -0.3597  1.4057  2.7276
  100c3c    H10 1390   0.544   0.232   2.847  1.3297  0.4497  5.1635
  100c3c    H11 1391   0.391   0.262   2.794 -0.0939  0.2423  0.6096
  100c3c    H12 1392   0.640   0.298   3.044  2.9832  1.8864  0.1095
  100c3c    H13 1393   0.617   0.458   3.003 -1.5161  2.0986  1.0321
  100c3c     C7 1394   0.569   0.417   3.214  0.0151  0.4252  0.0169
  100c3c    H14 1395   0.525   0.342   3.279  1.1928  0.9456  1.4431
  100c3c    H15 1396   0.505   0.503   3.232 -0.0132  0.4887 -0.3728
  100c3c     C8 1397   0.713   0.447   3.271 -0.0629  0.0228 -0.2697
  100c3c    H16 1398   0.774   0.502   3.199  2.1550 -0.0608  1.5001
  100c3c    H17 1399   0.760   0.351   3.291  1.9168  1.2995  1.4274
  100c3c    H18 1400   0.719   0.483   3.374 -0.0046 -2.4798  0.6427
  101fsi     F1 1401   2.011   2.333   1.064 -0.3252  0.1406  0.6144
  101fsi     S1 1402   1.865   2.284   1.043 -0.0697  0.0607  0.1317
  101fsi      N 1403   1.773   2.400   1.101  0.1882 -0.0945  0.2806
  101fsi     O1 1404   1.860   2.273   0.902  0.3455 -0.1457  0.4664
  101fsi     O2 1405   1.860   2.161   1.114 -0.0187  0.0053 -0.2851
  101fsi     S2 1406   1.732   2.543   1.029 -0.0491 -0.2916 -0.0514
  101fsi     O3 1407   1.601   2.583   1.065  0.4838 -0.2034 -0.2936
  101fsi     O4 1408   1.759   2.543   0.888  0.1907 -0.4650 -0.1225
  101fsi     F2 1409   1.827   2.654   1.080 -0.0260 -0.0819 -0.5285
  102fsi     F1 1410   1.617   2.984   2.456 -0.2280  0.2616 -0.4166
  102fsi     S1 1411   1.528   3.044   2.573 -0.0566 -0.0497  0.4336
  102fsi      N 1412   1.510   3.192   2.527 -0.1497 -0.3884  0.3175
  102fsi     O1 1413   1.414   2.959   2.574 -0.1732 -0.1261 -0.5452
  102fsi     O2 1414   1.615   3.030   2.688  0.6218  0.2441  0.2203
  102fsi     S2 1415   1.377   3.254   2.464  0.1462  0.1937 -0.3971
  102fsi     O3 1416   1.282   3.156   2.409 -0.2481 -0.0391  0.0442
  102fsi     O4 1417   1.405   3.370   2.383 -0.6194  0.0660 -0.6390
  102fsi     F2 1418   1.303   3.323   2.583  0.1517  0.3828 -0.0592
  103fsi     F1 1419   0.229   0.497   1.264  0.1077  0.6833  0.2645
  103fsi     S1 1420   0.263   0.581   1.138  0.3826  0.2213  0.1326
  103fsi      N 1421   0.360   0.696   1.187 -0.4784  0.6556 -0.3462
  103fsi     O1 1422   0.330   0.497   1.037 -0.4487 -0.2962  0.0976
  103fsi     O2 1423   0.133   0.632   1.103 -0.0428 -0.5148 -0.0539
  103fsi     S2 1424   0.323   0.836   1.243  0.0966 -0.1049  0.6221
  103fsi     O3 1425   0.191   0.885   1.216 -0.0598  0.3448 -0.0166
  103fsi     O4 1426   0.432   0.930   1.235 -0.2691  0.2052 -0.2039
  103fsi     F2 1427   0.313   0.798   1.393  0.0296  0.2951  0.3502
  104fsi     F1 1428   0.780   1.796   1.207 -0.3412 -0.1701 -0.0121
  104fsi     S1 1429   0.722   1.648   1.200 -0.4739 -0.0608 -0.6288
  104fsi      N 1430   0.621   1.672   1.083  0.5933  0.3488  0.1320
  104fsi     O1 1431   0.833   1.561   1.177 -0.1172 -0.6346 -0.4808
  104fsi     O2 1432   0.660   1.626   1.325  0.4116  0.2470  0.0992
  104fsi     S2 1433   0.656   1.670   0.936  0.3910 -0.4413 -0.3087
  104fsi     O3 1434   0.545   1.639   0.856  0.1919  0.3829 -0.2079
  104fsi     O4 1435   0.774   1.594   0.908  0.3805 -0.1253 -0.2865
  104fsi     F2 1436   0.689   1.817   0.914  0.1853 -0.4895 -0.4312
  105fsi     F1 1437   0.557   1.839   0.202  0.2652 -0.0021 -0.2622
  105fsi     S1 1438   0.597   1.940   0.092  0.0825  0.0605 -0.1227
  105fsi      N 1439   0.753   1.946   0.111 -0.3238  0.3036 -0.4840
  105fsi     O1 1440   0.564   1.877  -0.035 -0.1010 -0.6459  0.2371
  105fsi     O2 1441   0.522   2.061   0.122  0.1603  0.3436  0.1937
  105fsi     S2 1442   0.868   1.833   0.108  0.1275 -0.4571  0.1745
  105fsi     O3 1443   0.826   1.714   0.168  0.1331 -0.2351 -0.0926
  105fsi     O4 1444   1.003   1.880   0.145  0.1654  0.7116  0.0533
  105fsi     F2 1445   0.877   1.790  -0.048 -0.1666 -0.4756 -0.3265
  106fsi     F1 1446   0.324   1.743   1.792  0.4512  0.0266  0.3266
  106fsi     S1 1447   0.231   1.861   1.839 -0.0879 -0.0147 -0.2932
  106fsi      N 1448   0.183   1.818   1.981  0.7180  0.0274  0.7487
  106fsi     O1 1449   0.312   1.982   1.838 -0.0004  0.4325 -0.0312
  106fsi     O2 1450   0.118   1.853   1.747  0.0308 -0.1584 -0.0501
  106fsi     S2 1451   0.248   1.835   2.126  0.0808  0.2707 -0.1723
  106fsi     O3 1452   0.390   1.813   2.136 -0.4630  0.5487  0.1993
  106fsi     O4 1453   0.163   1.782   2.227 -0.0964  0.4876 -0.3631
  106fsi     F2 1454   0.237   1.989   2.140  0.4780  0.1043 -0.2229
  107fsi     F1 1455   1.371   0.170   0.388  0.1951  0.2121  0.2740
  107fsi     S1 1456   1.259   0.082   0.440  0.0650 -0.2542 -0.1549
  107fsi      N 1457   1.172   0.184   0.528  0.2136  1.2130  0.0073
  107fsi     O1 1458   1.201   0.028   0.318 -0.0480 -0.0336  0.4665
  107fsi     O2 1459   1.318  -0.010   0.534 -0.0211  0.4725  0.3510
  107fsi     S2 1460   1.062   0.282   0.485  0.0973  0.1381  0.1454
  107fsi     O3 1461   1.042   0.283   0.346 -0.3980 -0.1392 -0.4113
  107fsi     O4 1462   1.076   0.414   0.545 -0.1385  0.4338  0.4606
  107fsi     F2 1463   0.928   0.225   0.550 -0.1213  0.1143 -0.0695
  108fsi     F1 1464   1.710   2.266   2.384 -0.2469  0.3166  0.1374
  108fsi     S1 1465   1.633   2.400   2.390  0.0376  0.1814  0.3187
  108fsi      N 1466   1.699   2.468   2.511  0.1238 -0.7038 -0.0103
  108fsi     O1 1467   1.667   2.457   2.261 -0.1236 -0.6660  0.2018
  108fsi     O2 1468   1.497   2.355   2.408  0.3283  0.6044 -0.3308
  108fsi     S2 1469   1.788   2.603   2.520  0.2029  0.0115 -0.6927
  108fsi     O3 1470   1.795   2.672   2.396 -0.1281 -0.2948  0.0601
  108fsi     O4 1471   1.912   2.581   2.592  0.5294  0.2785  0.1529
  108fsi     F2 1472   1.707   2.695   2.617 -0.0692  0.1333  0.4053
  109fsi     F1 1473   2.828   0.685   2.214  0.6821  0.4459 -0.0195
  109fsi     S1 1474   2.709   0.582   2.241 -0.5161 -0.0909  0.0824
  109fsi      N 1475   2.773   0.487   2.346  0.1011  0.0315 -0.0312
  109fsi     O1 1476   2.604   0.674   2.288 -0.2138  0.4419  0.2929
  109fsi     O2 1477   2.692   0.524   2.111  0.1594  0.4604  0.3367
  109fsi     S2 1478   2.733   0.462   2.496 -0.3023 -0.2603  0.2532
  109fsi     O3 1479   2.807   0.350   2.542 -0.2514 -0.2281 -0.2708
  109fsi     O4 1480   2.591   0.469   2.522 -0.0405  0.3960  0.3462
  109fsi     F2 1481   2.795   0.578   2.572 -0.2515 -0.1540  0.4155
  110fsi     F1 1482   2.752   2.457   1.810 -0.0794  0.1869  0.1786
  110fsi     S1 1483   2.909   2.439   1.796  0.0492 -0.1560  0.1195
  110fsi      N 1484   2.941   2.369   1.938  0.2150  0.0723 -0.0592
  110fsi     O1 1485   2.928   2.350   1.683  0.4683  0.0229  0.4255
  110fsi     O2 1486   2.956   2.575   1.787 -0.2092  0.1001  0.2646
  110fsi     S2 1487   2.977   2.213   1.971  0.2306  0.0497 -0.0093
  110fsi     O3 1488   2.969   2.134   1.854 -0.4263  0.2784  0.1507
  110fsi     O4 1489   2.931   2.160   2.099 -0.1093 -0.0707 -0.3090
  110fsi     F2 1490   3.126   2.224   1.988  0.4663 -0.9352  0.4019
  111fsi     F1 1491   0.979   2.628   1.228 -0.5603 -0.2164  0.0980
  111fsi     S1 1492   0.969   2.551   1.088 -0.1629 -0.1026  0.4268
  111fsi      N 1493   0.964   2.673   0.991 -0.1403  0.4744 -0.5077
  111fsi     O1 1494   1.087   2.475   1.076 -1.0744 -0.0967 -0.2528
  111fsi     O2 1495   0.849   2.474   1.102 -0.3787 -0.4237 -0.4830
  111fsi     S2 1496   0.840   2.752   0.948  0.2226  0.3302 -0.7141
  111fsi     O3 1497   0.869   2.880   0.888 -0.3412  0.2507  0.1389
  111fsi     O4 1498   0.731   2.745   1.036 -0.8568 -0.0562 -0.2063
  111fsi     F2 1499   0.783   2.668   0.830 -0.4044 -0.2748  0.0716
  112fsi     F1 1500   2.779   1.465   0.552  0.2357 -0.1973  0.1936
  112fsi     S1 1501   2.746   1.594   0.633  0.0658 -0.5725  0.1337
  112fsi      N 1502   2.591   1.605   0.627  0.2377  0.1090  1.0390
  112fsi     O1 1503   2.793   1.559   0.765  0.1922 -0.6615  0.6466
  112fsi     O2 1504   2.814   1.701   0.566 -0.2980 -0.4200 -0.4319
  112fsi     S2 1505   2.492   1.648   0.509  0.0751 -0.2812 -0.2589
  112fsi     O3 1506   2.553   1.732   0.405  0.1216  0.4659 -0.2153
  112fsi     O4 1507   2.364   1.680   0.566 -0.0009 -0.0316 -0.6025
  112fsi     F2 1508   2.467   1.510   0.435 -0.2659  0.1751  0.0154
  113fsi     F1 1509   1.242   1.142   1.227 -0.0095 -0.1603  0.4221
  113fsi     S1 1510   1.353   1.112   1.333 -0.1381 -0.0157  0.1632
  113fsi      N 1511   1.382   0.960   1.310  0.3333 -0.4546 -0.4154
  113fsi     O1 1512   1.462   1.196   1.299 -0.3041  0.2356  0.6722
  113fsi     O2 1513   1.291   1.140   1.457  0.4904 -0.4529 -0.2612
  113fsi     S2 1514   1.473   0.892   1.200  0.1044  0.0563  0.4398
  113fsi     O3 1515   1.522   0.984   1.098 -0.4254 -0.1783 -0.0537
  113fsi     O4 1516   1.411   0.776   1.152 -0.2753 -0.0363 -0.4030
  113fsi     F2 1517   1.603   0.843   1.271  0.2945 -0.4862 -0.2124
  114fsi     F1 1518   1.749   2.433   0.262 -0.5459 -0.0907  0.2361
  114fsi     S1 1519   1.643   2.325   0.330 -0.0599 -0.2398 -0.3290
  114fsi      N 1520   1.614   2.390   0.470 -0.3188 -0.6365 -0.4938
  114fsi     O1 1521   1.531   2.322   0.238  0.6182  0.7497 -0.3476
  114fsi     O2 1522   1.722   2.208   0.340  0.0885  0.5382  0.4605
  114fsi     S2 1523   1.488   2.465   0.522  0.3525  0.4920  0.1394
  114fsi     O3 1524   1.447   2.571   0.430 -0.0055  0.1234  0.1005
  114fsi     O4 1525   1.504   2.505   0.657  0.2349 -0.0514 -0.7519
  114fsi     F2 1526   1.370   2.362   0.523 -0.5134 -0.2834  0.0673
  115fsi     F1 1527   0.779   1.104   1.747  0.6113 -0.2437 -0.1509
  115fsi     S1 1528   0.779   1.175   1.605 -0.4555  0.6455 -0.2838
  115fsi      N 1529   0.681   1.289   1.624  1.0489 -0.6364 -0.0784
  115fsi     O1 1530   0.914   1.214   1.587  0.1292  0.1994  0.0103
  115fsi     O2 1531   0.720   1.074   1.522 -0.4271 -0.1442  0.0627
  115fsi     S2 1532   0.700   1.425   1.703  0.5106  0.1326 -0.1296
  115fsi     O3 1533   0.787   1.429   1.814 -0.1602  0.4533  0.2125
  115fsi     O4 1534   0.583   1.500   1.729  0.0047  0.1564 -0.3757
  115fsi     F2 1535   0.773   1.514   1.599 -0.1267 -0.2166  0.4026
  116fsi     F1 1536   2.019   2.464   0.420 -0.3258  0.6093 -0.0479
  116fsi     S1 1537   2.015   2.350   0.531 -0.3906  0.0760 -0.0035
  116fsi      N 1538   2.147   2.391   0.614  0.3395  0.3177  1.0943
  116fsi     O1 1539   1.895   2.375   0.606 -0.1516 -0.1699  0.1880
  116fsi     O2 1540   2.031   2.230   0.448  0.0949  0.5708  0.2314
  116fsi     S2 1541   2.179   2.526   0.684  1.0371 -0.5894  0.5754
  116fsi     O3 1542   2.104   2.643   0.643  0.2151 -0.1331 -0.5039
  116fsi     O4 1543   2.312   2.548   0.721  0.1128 -0.0076  0.0145
  116fsi     F2 1544   2.113   2.506   0.823  0.3219 -0.0412 -0.0281
  117fsi     F1 1545   2.218   2.800   2.768  0.4830  0.1407  0.1289
  117fsi     S1 1546   2.279   2.665   2.724  0.0528  0.3779 -0.0716
  117fsi      N 1547   2.404   2.646   2.809  0.1821 -0.2368 -0.0617
  117fsi     O1 1548   2.189   2.564   2.773  0.2539  0.4564 -0.1900
  117fsi     O2 1549   2.306   2.663   2.586 -0.5319 -0.2547  0.4399
  117fsi     S2 1550   2.554   2.682   2.785  0.1135  0.5427 -0.4346
  117fsi     O3 1551   2.625   2.722   2.902  0.4176  0.0649 -0.0872
  117fsi     O4 1552   2.576   2.764   2.670  0.5088  0.3856  0.4522
  117fsi     F2 1553   2.622   2.543   2.759 -0.1707  0.3288 -0.2295
  118fsi     F1 1554   1.963   2.665   2.991 -0.0058 -0.1931  0.0105
  118fsi     S1 1555   1.880   2.790   3.030 -0.2947 -0.2463  0.2674
  118fsi      N 1556   1.985   2.866   3.113 -0.1012  0.2714  0.0239
  118fsi     O1 1557   1.863   2.839   2.897  0.4428 -0.0010 -0.8183
  118fsi     O2 1558   1.765   2.740   3.097  0.3628 -0.2644 -0.4227
  118fsi     S2 1559   2.061   3.000   3.076  0.0418  0.4542 -0.0116
  118fsi     O3 1560   2.080   3.084   3.188 -0.3674  0.7026 -0.0696
  118fsi     O4 1561   2.012   3.067   2.961 -0.8696  0.0552  0.0176
  118fsi     F2 1562   2.204   2.946   3.041 -0.1166 -0.3961  0.1902
  119fsi     F1 1563   1.846   0.491   2.707 -0.8171  0.1536  0.1173
  119fsi     S1 1564   1.855   0.409   2.839  0.4195 -0.2682 -0.0318
  119fsi      N 1565   2.012   0.393   2.860 -0.0828  0.7504 -0.0137
  119fsi     O1 1566   1.789   0.499   2.931 -0.4006  0.6469  0.4027
  119fsi     O2 1567   1.790   0.287   2.811 -0.0558 -0.1032 -0.5018
  119fsi     S2 1568   2.112   0.486   2.928 -0.2065  0.1888  0.1775
  119fsi     O3 1569   2.055   0.601   2.995 -0.5727 -0.1287  0.2353
  119fsi     O4 1570   2.220   0.503   2.835 -0.0884 -0.2660 -0.0683
  119fsi     F2 1571   2.170   0.399   3.048 -0.1815 -0.1251  0.6138
  120fsi     F1 1572   1.308   0.331   2.848  0.5507 -0.0592 -0.0710
  120fsi     S1 1573   1.367   0.307   2.999 -0.2794 -0.3095 -0.1577
  120fsi      N 1574   1.447   0.169   2.979  0.4739  0.3592  0.0794
  120fsi     O1 1575   1.439   0.431   3.021  0.1878  0.2027  0.3338
  120fsi     O2 1576   1.252   0.291   3.082  0.3405 -0.2452 -0.0918
  120fsi     S2 1577   1.586   0.138   3.046  0.0426  0.0866  0.2217
  120fsi     O3 1578   1.664   0.251   3.089 -0.0458  0.5080  0.4425
  120fsi     O4 1579   1.658   0.034   2.984 -0.0467  0.2751  0.7524
  120fsi     F2 1580   1.542   0.070   3.176 -0.3347  0.0403 -0.1952
  121fsi     F1 1581   0.008   1.059   2.681  0.1222 -0.0984 -0.2256
  121fsi     S1 1582  -0.078   0.973   2.787 -0.5613  0.1236  0.0147
  121fsi      N 1583   0.010   0.968   2.916 -0.0220 -0.1221  0.3133
  121fsi     O1 1584  -0.193   1.052   2.794  0.4553 -0.3575  0.0381
  121fsi     O2 1585  -0.084   0.845   2.725 -0.7125  0.3068  0.0238
  121fsi     S2 1586   0.032   1.081   3.027 -0.0367 -0.2201  0.3518
  121fsi     O3 1587  -0.005   1.206   2.977 -0.2732 -0.2665  0.3708
  121fsi     O4 1588   0.157   1.079   3.095  0.4137  0.0841 -0.5366
  121fsi     F2 1589  -0.077   1.035   3.135  0.3338 -0.3795  0.3327
  122fsi     F1 1590   2.563   1.832   1.253  0.4173 -0.3158  0.3658
  122fsi     S1 1591   2.564   1.891   1.103  0.0663  0.1383 -0.4418
  122fsi      N 1592   2.419   1.861   1.044 -0.6146 -0.8120  0.7666
  122fsi     O1 1593   2.578   2.032   1.133  0.0930 -0.2861 -0.1705
  122fsi     O2 1594   2.671   1.822   1.031  0.0031  0.0540  0.0533
  122fsi     S2 1595   2.360   1.734   0.956 -0.1438  0.0679  0.1108
  122fsi     O3 1596   2.461   1.661   0.888 -0.3172 -0.0882  0.2845
  122fsi     O4 1597   2.248   1.769   0.872  0.4757 -0.2658 -0.2572
  122fsi     F2 1598   2.300   1.633   1.058 -0.2426  0.2079 -0.4310
  123fsi     F1 1599   1.640   0.818   0.572  0.1203 -0.2621 -0.3710
  123fsi     S1 1600   1.749   0.847   0.682 -0.0261  0.4549 -0.1125
  123fsi      N 1601   1.875   0.808   0.602 -0.3538 -0.3392 -0.3312
  123fsi     O1 1602   1.755   0.988   0.706  0.3307 -0.4303 -0.4441
  123fsi     O2 1603   1.720   0.757   0.789  0.0417 -0.0624  0.3768
  123fsi     S2 1604   1.937   0.880   0.474  0.2606 -0.0874 -0.1297
  123fsi     O3 1605   1.863   0.989   0.420  0.7799  0.4509  0.9088
  123fsi     O4 1606   2.002   0.784   0.387 -0.0904  0.4115  0.2472
  123fsi     F2 1607   2.055   0.960   0.537 -0.6447  0.2655  0.4041
  124fsi     F1 1608   1.910   1.085   2.145  0.3927 -0.1976 -0.1141
  124fsi     S1 1609   1.886   1.242   2.097  0.2567  0.2113 -0.3988
  124fsi      N 1610   1.874   1.317   2.237  0.3568  0.6611  0.2798
  124fsi     O1 1611   2.002   1.280   2.023 -0.3910  0.2363  0.0869
  124fsi     O2 1612   1.758   1.237   2.030 -0.0010 -0.1481  0.1982
  124fsi     S2 1613   1.969   1.418   2.307  0.1599 -0.1765  0.1236
  124fsi     O3 1614   2.106   1.411   2.266  0.2604  0.3182 -0.3842
  124fsi     O4 1615   1.936   1.422   2.444  0.3014  0.0248 -0.1841
  124fsi     F2 1616   1.926   1.554   2.249 -0.4566 -0.4699 -0.0705
  125fsi     F1 1617   0.641   0.723   1.467 -0.3863 -0.3638  0.4770
  125fsi     S1 1618   0.663   0.581   1.538 -0.0316  0.4551  0.0040
  125fsi      N 1619   0.749   0.488   1.437  0.5086 -0.3399 -0.6756
  125fsi     O1 1620   0.728   0.613   1.665  0.3585 -0.2613  0.4837
  125fsi     O2 1621   0.530   0.526   1.549 -0.0584 -0.2206 -0.2907
  125fsi     S2 1622   0.902   0.466   1.436 -0.2889  0.3344 -0.1636
  125fsi     O3 1623   0.953   0.340   1.391  0.3889  0.6787 -0.3093
  125fsi     O4 1624   0.965   0.517   1.554 -0.2192 -0.1156  0.0394
  125fsi     F2 1625   0.937   0.559   1.316 -0.8255  0.3689 -0.3649
  126fsi     F1 1626   2.811   0.717   0.140 -0.3714 -0.8133  0.2315
  126fsi     S1 1627   2.939   0.623   0.116  0.2120 -0.1596  0.1482
  126fsi      N 1628   3.038   0.650   0.235  0.1643 -0.0140 -0.0958
  126fsi     O1 1629   2.871   0.494   0.121 -0.4348 -0.0894  1.2412
  126fsi     O2 1630   2.993   0.664  -0.011 -0.2304  0.2172  0.1442
  126fsi     S2 1631   3.181   0.704   0.244 -0.6758 -0.0680  0.0033
  126fsi     O3 1632   3.243   0.732   0.120  0.1149 -0.5255  0.3057
  126fsi     O4 1633   3.250   0.621   0.337 -0.4921 -0.1910  0.7136
  126fsi     F2 1634   3.157   0.845   0.317 -0.1457  0.1366  0.2261
  127fsi     F1 1635   2.790   0.001   0.402 -0.2014  0.4413  0.0871
  127fsi     S1 1636   2.869  -0.131   0.401 -0.1445 -0.2334  0.0528
  127fsi      N 1637   2.982  -0.090   0.296  0.3919 -0.2499 -1.1345
  127fsi     O1 1638   2.918  -0.155   0.531  0.2636  0.7295 -0.1395
  127fsi     O2 1639   2.775  -0.223   0.352  0.9603  0.4116 -0.7738
  127fsi     S2 1640   3.020  -0.141   0.158  0.3339 -0.1207 -0.2384
  127fsi     O3 1641   3.049  -0.040   0.064 -0.6854 -0.0083 -0.2753
  127fsi     O4 1642   2.943  -0.248   0.110  0.1736 -0.3150 -0.2293
  127fsi     F2 1643   3.168  -0.197   0.187 -0.0314  0.1861  0.3557
  128fsi     F1 1644   2.859   2.504   0.951 -0.1580 -0.0851  0.4277
  128fsi     S1 1645   2.815   2.386   1.055 -0.0070 -0.1103 -0.0133
  128fsi      N 1646   2.929   2.274   1.032  0.0959  0.3811  0.3069
  128fsi     O1 1647   2.824   2.447   1.185 -0.2125 -0.0275 -0.5808
  128fsi     O2 1648   2.683   2.351   1.009  0.4963  0.0530 -0.3359
  128fsi     S2 1649   2.961   2.185   0.907 -0.2206 -0.2426  0.0366
  128fsi     O3 1650   3.076   2.108   0.926  0.6851 -0.5830 -0.1332
  128fsi     O4 1651   2.948   2.250   0.777 -0.0365 -0.0012 -0.2051
  128fsi     F2 1652   2.848   2.085   0.922  0.2685  0.2287 -0.0016
  129fsi     F1 1653   0.898   2.222   2.413  0.0692  0.9880 -0.2763
  129fsi     S1 1654   0.982   2.216   2.290 -0.0985 -0.1331  0.0380
  129fsi      N 1655   1.066   2.086   2.305 -0.2144  0.1103 -0.2972
  129fsi     O1 1656   0.888   2.206   2.181  0.4461  0.8834  0.6424
  129fsi     O2 1657   1.066   2.335   2.294 -0.2959  0.1755 -0.2843
  129fsi     S2 1658   1.168   2.067   2.424  0.0469 -0.3594 -0.5639
  129fsi     O3 1659   1.232   2.176   2.487 -0.3800 -0.2055 -0.1936
  129fsi     O4 1660   1.255   1.954   2.399  0.8093  0.2720 -0.0153
  129fsi     F2 1661   1.072   2.016   2.537 -0.4115 -0.1493 -0.0368
  130fsi     F1 1662   2.160   2.432   2.131  0.0418 -0.2931 -0.0016
  130fsi     S1 1663   2.064   2.482   2.245  0.3302 -0.1058 -0.2026
  130fsi      N 1664   2.012   2.357   2.326  0.2259 -0.1643  0.0955
  130fsi     O1 1665   2.156   2.563   2.320  0.6765  0.1454  0.4132
  130fsi     O2 1666   1.960   2.552   2.171 -0.1329  0.0343  0.0539
  130fsi     S2 1667   2.061   2.283   2.462  0.3346 -0.2503 -0.4830
  130fsi     O3 1668   1.951   2.243   2.539  0.1851 -0.2999 -0.3729
  130fsi     O4 1669   2.170   2.346   2.536  0.3059 -0.1962  0.2844
  130fsi     F2 1670   2.122   2.145   2.409 -0.0379  0.0573 -0.7983
  131fsi     F1 1671   1.486   2.095   1.508 -0.2097 -0.0871 -0.5139
  131fsi     S1 1672   1.606   2.057   1.606 -0.1146  0.2194 -0.1259
  131fsi      N 1673   1.669   2.200   1.626  0.3563  0.5587  0.3282
  131fsi     O1 1674   1.549   2.005   1.725 -0.0365 -0.2021  0.0613
  131fsi     O2 1675   1.687   1.969   1.530  0.0569 -0.5158 -0.5778
  131fsi     S2 1676   1.793   2.263   1.545  0.1823  0.1353  0.4354
  131fsi     O3 1677   1.832   2.394   1.588  0.5073  0.0873  0.1956
  131fsi     O4 1678   1.773   2.252   1.402  0.1353 -0.5956 -0.6408
  131fsi     F2 1679   1.909   2.165   1.584 -0.0340 -0.0162 -0.6965
  132fsi     F1 1680   1.959   0.693   1.896 -0.1198 -0.3639 -0.6913
  132fsi     S1 1681   2.041   0.561   1.852  0.2057  0.0508  0.1988
  132fsi      N 1682   1.983   0.534   1.707  0.0688  0.3291  0.0672
  132fsi     O1 1683   2.178   0.617   1.846  0.5058 -0.3007 -0.2729
  132fsi     O2 1684   2.006   0.466   1.957 -0.0621 -0.3237 -0.2903
  132fsi     S2 1685   1.874   0.425   1.674 -0.4604  0.2616  0.1654
  132fsi     O3 1686   1.919   0.292   1.698  0.0786 -0.0570  0.4084
  132fsi     O4 1687   1.810   0.444   1.548  0.3250 -0.1685  0.1681
  132fsi     F2 1688   1.765   0.448   1.783  0.1107  0.3375  0.3919
  133fsi     F1 1689   1.250   1.832   1.001  0.3203 -0.0957 -0.4319
  133fsi     S1 1690   1.100   1.822   1.039  0.4139 -0.1658  0.1362
  133fsi      N 1691   1.040   1.958   0.983  0.2426 -1.1355 -0.2984
  133fsi     O1 1692   1.057   1.701   0.967  0.1202  0.1924 -0.2657
  133fsi     O2 1693   1.098   1.812   1.182  0.4282  0.1460 -0.1884
  133fsi     S2 1694   0.998   2.091   1.062 -0.5286  0.0429 -0.1498
  133fsi     O3 1695   0.935   2.068   1.190 -0.3228  0.2544 -0.5146
  133fsi     O4 1696   0.936   2.187   0.972 -0.6950  0.2081  0.6874
  133fsi     F2 1697   1.142   2.152   1.083  0.5534 -0.1930  0.3452
  134fsi     F1 1698   0.202   2.972   2.698  0.1626  0.5770 -0.2170
  134fsi     S1 1699   0.223   2.829   2.631 -0.1553 -0.0961  0.1314
  134fsi      N 1700   0.088   2.800   2.565  0.3380  0.0919 -0.3676
  134fsi     O1 1701   0.318   2.849   2.526 -0.2530 -0.3390  0.2884
  134fsi     O2 1702   0.260   2.738   2.734  0.0825 -0.1593  0.5295
  134fsi     S2 1703  -0.037   2.715   2.615 -0.0542  0.0573  0.2679
  134fsi     O3 1704  -0.074   2.733   2.755 -0.2670 -0.1187  0.2052
  134fsi     O4 1705  -0.034   2.583   2.552 -0.2336 -0.1949  0.6404
  134fsi     F2 1706  -0.157   2.783   2.540  0.4741 -0.5110  0.5917
  135fsi     F1 1707   0.277   2.529   2.569 -0.0842 -0.1293 -0.1303
  135fsi     S1 1708   0.350   2.510   2.434 -0.2799  0.4952 -0.0469
  135fsi      N 1709   0.491   2.564   2.467  0.0491 -0.3792  0.0607
  135fsi     O1 1710   0.341   2.372   2.402  0.0601  0.4195  0.3148
  135fsi     O2 1711   0.281   2.595   2.338 -0.4082 -0.3980 -0.0717
  135fsi     S2 1712   0.610   2.487   2.539  0.0045 -0.2965  0.4988
  135fsi     O3 1713   0.573   2.384   2.633  0.0683  0.0620  0.5481
  135fsi     O4 1714   0.716   2.567   2.587 -0.4344 -0.0237 -0.1804
  135fsi     F2 1715   0.669   2.405   2.420 -0.7855  0.2189  0.2667
  136fsi     F1 1716   0.253   0.077   1.870  0.0710 -0.1290 -0.1062
  136fsi     S1 1717   0.305  -0.063   1.840  0.4595 -0.2749 -0.2194
  136fsi      N 1718   0.340  -0.137   1.973 -0.2460  0.0720 -0.2835
  136fsi     O1 1719   0.188  -0.125   1.782  0.0040  0.2690  0.3054
  136fsi     O2 1720   0.418  -0.032   1.753 -0.8348 -0.1836 -0.0265
  136fsi     S2 1721   0.476  -0.121   2.051  0.3707  0.3184 -0.4743
  136fsi     O3 1722   0.499  -0.202   2.167  0.5556 -0.2610  0.5073
  136fsi     O4 1723   0.512   0.016   2.070 -0.5945  0.0947 -0.0763
  136fsi     F2 1724   0.579  -0.174   1.945 -0.0735 -0.0201 -0.5190
  137fsi     F1 1725   2.122   0.099   2.492  0.1067 -0.1591  0.2038
  137fsi     S1 1726   2.018  -0.014   2.516 -0.2242  0.0010 -0.5380
  137fsi      N 1727   1.938  -0.020   2.383 -0.2698 -0.8395 -0.3369
  137fsi     O1 1728   2.095  -0.135   2.526 -0.2893 -0.2177 -0.4400
  137fsi     O2 1729   1.947   0.020   2.636 -0.0015 -0.5934  0.0914
  137fsi     S2 1730   1.983  -0.071   2.246 -0.1190 -0.2647  0.2229
  137fsi     O3 1731   1.866  -0.105   2.173  0.2930  0.1271 -0.3739
  137fsi     O4 1732   2.096  -0.163   2.242 -0.0202 -0.2570  0.1914
  137fsi     F2 1733   2.026   0.060   2.189  0.3299 -0.7479 -0.1652
  138fsi     F1 1734   0.627   0.257   0.521 -0.3672 -0.0528  0.6977
  138fsi     S1 1735   0.494   0.192   0.569 -0.3865  0.1433 -0.1882
  138fsi      N 1736   0.416   0.133   0.448  0.6248 -0.6253 -0.4112
  138fsi     O1 1737   0.549   0.087   0.654  0.3761  0.0099 -0.7102
  138fsi     O2 1738   0.422   0.297   0.637 -0.0406  0.5376  0.0939
  138fsi     S2 1739   0.387  -0.010   0.399  0.1952 -0.2967 -0.0314
  138fsi     O3 1740   0.445  -0.128   0.467 -0.3192 -0.1095  0.5276
  138fsi     O4 1741   0.388  -0.018   0.257 -0.7028  0.3301  0.3321
  138fsi     F2 1742   0.231  -0.025   0.425 -0.3534 -0.2851 -0.3773
  139fsi     F1 1743   1.060   1.511   0.542  0.5349  0.1299 -0.1321
  139fsi     S1 1744   0.936   1.420   0.602 -0.1779 -0.0064 -0.1403
  139fsi      N 1745   0.970   1.281   0.547 -0.1420 -0.2443 -0.1552
  139fsi     O1 1746   0.948   1.425   0.744  0.5516 -0.5435 -0.1402
  139fsi     O2 1747   0.818   1.484   0.552 -0.1246  0.2777  0.3113
  139fsi     S2 1748   0.971   1.222   0.400 -0.0051  0.0422 -0.3815
  139fsi     O3 1749   1.098   1.162   0.370 -0.4847  0.3409 -0.0613
  139fsi     O4 1750   0.917   1.311   0.299  0.0128  0.0196  0.4432
  139fsi     F2 1751   0.868   1.099   0.413 -0.7803 -0.5271 -0.2107
  140fsi     F1 1752   1.164   1.191   2.768 -0.3147  0.1223  0.2195
  140fsi     S1 1753   1.292   1.178   2.852  0.3124  0.6463 -0.5492
  140fsi      N 1754   1.409   1.178   2.747  0.1576  0.4909 -0.3358
  140fsi     O1 1755   1.296   1.293   2.936  0.2380 -0.1669  0.0596
  140fsi     O2 1756   1.276   1.054   2.923  0.2851 -0.6889  0.3695
  140fsi     S2 1757   1.493   1.296   2.692  0.2690  0.0678  0.1929
  140fsi     O3 1758   1.411   1.400   2.641  0.1708  0.3072 -0.3098
  140fsi     O4 1759   1.603   1.254   2.602  0.7844 -0.3756  0.5547
  140fsi     F2 1760   1.572   1.345   2.821  0.5000  0.4331  0.5076
  141fsi     F1 1761   1.718   2.074   2.970  0.5625 -0.1452 -0.1833
  141fsi     S1 1762   1.828   1.972   2.980  0.1506  0.3428  0.0146
  141fsi      N 1763   1.948   2.041   2.905 -0.2944  0.1260 -0.2962
  141fsi     O1 1764   1.841   1.942   3.121 -0.0493 -0.0484 -0.8604
  141fsi     O2 1765   1.772   1.864   2.900 -0.2975  0.1802  0.7595
  141fsi     S2 1766   2.034   2.157   2.951  0.5318  0.2235 -0.0337
  141fsi     O3 1767   2.005   2.204   3.083 -0.2114  0.2897 -0.0299
  141fsi     O4 1768   2.036   2.250   2.841  0.6988  0.1753  0.3903
  141fsi     F2 1769   2.175   2.098   2.963  0.4062  0.0118  0.1566
  142fsi     F1 1770   2.397   2.902   0.718 -0.0386  0.1771 -0.3422
  142fsi     S1 1771   2.534   2.974   0.738 -0.1274  0.2333 -0.1295
  142fsi      N 1772   2.570   2.935   0.884 -0.2715  0.0964 -0.3673
  142fsi     O1 1773   2.617   2.912   0.635  0.0568 -0.0470  0.2745
  142fsi     O2 1774   2.500   3.111   0.737  0.5589 -0.2271 -0.4732
  142fsi     S2 1775   2.685   2.845   0.928 -0.4787 -0.0081 -0.3538
  142fsi     O3 1776   2.696   2.843   1.071  0.1811  0.2482 -0.3632
  142fsi     O4 1777   2.809   2.864   0.859  0.4010 -0.3996 -0.0291
  142fsi     F2 1778   2.630   2.706   0.899 -0.3354 -0.5205  0.6503
  143fsi     F1 1779   0.731   0.812   1.942  0.4067  0.2755 -0.3004
  143fsi     S1 1780   0.866   0.752   1.987  0.0420  0.5297 -0.1776
  143fsi      N 1781   0.964   0.807   1.875 -0.2725  0.6012  0.6513
  143fsi     O1 1782   0.881   0.806   2.120 -0.5727  0.3252  0.0272
  143fsi     O2 1783   0.857   0.609   1.982  0.2085 -0.1168 -0.2116
  143fsi     S2 1784   1.074   0.917   1.865  0.1901  0.0479  0.5031
  143fsi     O3 1785   1.082   1.013   1.974  0.3773  0.0678  0.4492
  143fsi     O4 1786   1.091   0.970   1.732  0.0874 -0.0214 -0.4512
  143fsi     F2 1787   1.207   0.830   1.882  0.2499  0.3194 -0.1859
  144fsi     F1 1788   1.478   2.692   2.391 -0.4019  0.4907  0.2151
  144fsi     S1 1789   1.340   2.698   2.333 -0.4837 -0.3046 -0.1269
  144fsi      N 1790   1.242   2.726   2.456  0.1357  0.0409 -0.0620
  144fsi     O1 1791   1.344   2.816   2.248 -0.0166  0.5932 -0.3526
  144fsi     O2 1792   1.321   2.567   2.271  0.0971 -0.2295 -0.3736
  144fsi     S2 1793   1.156   2.630   2.544 -0.1659  0.1802 -0.3384
  144fsi     O3 1794   1.089   2.686   2.659  0.0627 -0.3878 -0.1689
  144fsi     O4 1795   1.226   2.505   2.569  0.5931  0.1525 -0.4253
  144fsi     F2 1796   1.038   2.592   2.449  0.0399 -0.3915  0.2982
  145fsi     F1 1797   0.727   1.292   2.317 -0.3055 -0.1111 -0.5127
  145fsi     S1 1798   0.853   1.258   2.229  0.4053  0.0208 -0.2098
  145fsi      N 1799   0.967   1.307   2.326 -0.3570  0.4644  0.1054
  145fsi     O1 1800   0.849   1.116   2.208  0.2602  0.3758  0.5441
  145fsi     O2 1801   0.838   1.351   2.116  0.2428  0.2753  0.1604
  145fsi     S2 1802   1.104   1.247   2.370 -0.3272  0.1948  0.3158
  145fsi     O3 1803   1.106   1.109   2.380  0.1604  0.0186 -0.7296
  145fsi     O4 1804   1.165   1.329   2.469 -0.0930 -0.6527 -0.6740
  145fsi     F2 1805   1.197   1.269   2.242  0.1136 -0.1072  0.0341
  146fsi     F1 1806   2.518   1.648   2.145 -0.3886  0.2857  0.1063
  146fsi     S1 1807   2.559   1.778   2.222  0.2019  0.0842  0.2030
  146fsi      N 1808   2.661   1.842   2.126 -0.5333 -0.1245  0.9564
  146fsi     O1 1809   2.439   1.853   2.222 -0.3991 -0.1142 -0.0633
  146fsi     O2 1810   2.616   1.736   2.344 -0.3209  0.1546  0.1832
  146fsi     S2 1811   2.806   1.795   2.092 -0.0186 -0.4089 -0.3515
  146fsi     O3 1812   2.853   1.848   1.968 -0.0026  0.2725 -0.2436
  146fsi     O4 1813   2.831   1.651   2.113  0.1272 -0.5680 -0.2392
  146fsi     F2 1814   2.889   1.862   2.208 -0.2933  0.0049  0.2243
  147fsi     F1 1815   1.237   0.384   2.054  0.3502  0.2780 -0.0748
  147fsi     S1 1816   1.228   0.528   1.998 -0.1613  0.0521  0.4206
  147fsi      N 1817   1.161   0.610   2.117 -0.2568 -0.1333  0.3904
  147fsi     O1 1818   1.363   0.569   1.969  0.2286  0.1498 -0.4200
  147fsi     O2 1819   1.141   0.521   1.884  0.1769 -0.5257 -0.1346
  147fsi     S2 1820   1.241   0.696   2.219  0.1087 -0.2686 -0.6321
  147fsi     O3 1821   1.190   0.831   2.225  0.0410  0.0940 -0.3844
  147fsi     O4 1822   1.383   0.695   2.229 -0.5610  0.1964  0.4605
  147fsi     F2 1823   1.186   0.639   2.358  0.3722 -0.1415 -0.5222
  148fsi     F1 1824   1.236   1.673   1.896  0.3436  0.7798 -0.3739
  148fsi     S1 1825   1.163   1.633   1.764  0.1106  0.0846  0.0502
  148fsi      N 1826   1.231   1.494   1.734 -0.2649 -0.1748  0.0842
  148fsi     O1 1827   1.021   1.631   1.799  0.0016 -0.2010  0.5267
  148fsi     O2 1828   1.211   1.733   1.674  0.9370 -0.5688  0.0900
  148fsi     S2 1829   1.198   1.352   1.796 -0.3902 -0.1276  0.3031
  148fsi     O3 1830   1.239   1.238   1.720 -0.0712 -0.1862 -0.7497
  148fsi     O4 1831   1.072   1.347   1.860 -0.3816 -0.2235  0.5403
  148fsi     F2 1832   1.300   1.348   1.921 -1.1213  0.0278  0.1306
  149fsi     F1 1833   0.277   1.926   2.955 -0.2498 -0.2284 -0.1607
  149fsi     S1 1834   0.189   1.790   2.954 -0.0352 -0.1223  0.1313
  149fsi      N 1835   0.297   1.678   2.996 -0.1007  0.0504  0.1580
  149fsi     O1 1836   0.096   1.826   3.060  0.7141 -0.3009  0.6719
  149fsi     O2 1837   0.139   1.780   2.819 -0.2857 -0.4515 -0.5709
  149fsi     S2 1838   0.353   1.559   2.904 -0.5557  0.0813  0.0297
  149fsi     O3 1839   0.442   1.474   2.976 -0.1214  0.2836  0.2794
  149fsi     O4 1840   0.406   1.591   2.774 -0.5927 -0.0202 -0.2890
  149fsi     F2 1841   0.231   1.463   2.886 -0.2293 -0.0766 -0.0270
  150fsi     F1 1842   0.511   2.019   1.231  0.1590 -0.0053 -0.0461
  150fsi     S1 1843   0.498   2.091   1.091  0.0951 -0.0164  0.5042
  150fsi      N 1844   0.395   2.203   1.106 -0.3140  0.3631  0.9706
  150fsi     O1 1845   0.628   2.141   1.065 -0.0292 -0.2085  0.2066
  150fsi     O2 1846   0.445   1.990   1.005 -0.4333 -0.3409  0.0189
  150fsi     S2 1847   0.416   2.361   1.137  0.8375  0.0861  0.1878
  150fsi     O3 1848   0.308   2.439   1.084 -0.6119  0.3300  0.0548
  150fsi     O4 1849   0.546   2.414   1.124  0.5612  0.4177  0.0593
  150fsi     F2 1850   0.399   2.365   1.294 -0.5505  0.4385 -0.2855
  151fsi     F1 1851   0.183   1.635   0.705  0.0701 -0.2990 -0.2727
  151fsi     S1 1852   0.152   1.755   0.811  0.0067  0.1000  0.2680
  151fsi      N 1853   0.032   1.695   0.894 -0.8014 -0.4477 -0.1936
  151fsi     O1 1854   0.268   1.771   0.891  0.2111 -0.2705 -0.0239
  151fsi     O2 1855   0.112   1.865   0.725 -0.2424  0.5457 -0.2864
  151fsi     S2 1856   0.035   1.609   1.020 -0.4600 -0.0586  0.1290
  151fsi     O3 1857  -0.096   1.548   1.038  0.6252  0.0494 -0.3593
  151fsi     O4 1858   0.095   1.679   1.125 -0.7740  0.0988 -0.5450
  151fsi     F2 1859   0.125   1.491   0.984 -0.7415 -0.4638  0.0521
  152fsi     F1 1860   0.501   2.955   2.847  0.0358  0.3743 -0.2037
  152fsi     S1 1861   0.662   2.964   2.811 -0.0395 -0.0018 -0.3025
  152fsi      N 1862   0.719   3.058   2.921 -0.1563  0.6442 -0.0699
  152fsi     O1 1863   0.713   2.831   2.824  0.0190 -0.4634 -0.3354
  152fsi     O2 1864   0.669   3.033   2.685 -0.3333  0.7434  0.5621
  152fsi     S2 1865   0.763   3.019   3.074  0.1775  0.4224  0.0791
  152fsi     O3 1866   0.905   3.037   3.101  0.0243 -0.2797 -0.5768
  152fsi     O4 1867   0.710   2.897   3.121  0.1844  0.6902 -0.1061
  152fsi     F2 1868   0.691   3.122   3.170  0.0446 -0.2865  0.5107
  153fsi     F1 1869   0.727   0.850   2.609  0.0881 -0.2372  0.3691
  153fsi     S1 1870   0.755   0.930   2.476  0.3836  0.2822  0.0321
  153fsi      N 1871   0.613   0.937   2.408  0.0088  0.5132  0.6404
  153fsi     O1 1872   0.789   1.062   2.525  0.4780  0.4380 -0.3504
  153fsi     O2 1873   0.856   0.852   2.408 -0.0638  0.1232 -0.1291
  153fsi     S2 1874   0.546   0.859   2.285  0.0380 -0.4400 -0.0401
  153fsi     O3 1875   0.401   0.884   2.276  0.7219 -0.0121 -0.2053
  153fsi     O4 1876   0.593   0.725   2.263 -0.6615  0.3969  0.3725
  153fsi     F2 1877   0.595   0.953   2.165 -0.4066 -0.1274 -0.1700
  154fsi     F1 1878   2.827   0.483   0.945  0.4199  0.3411  0.4905
  154fsi     S1 1879   2.730   0.593   1.010 -0.3755 -0.1622  0.2264
  154fsi      N 1880   2.710   0.547   1.152  0.1109  0.1330 -0.4357
  154fsi     O1 1881   2.795   0.719   0.993 -0.0131 -0.0034  0.4649
  154fsi     O2 1882   2.603   0.579   0.945 -0.1808 -0.0087 -0.1136
  154fsi     S2 1883   2.811   0.561   1.276  0.1135  0.2618  0.1380
  154fsi     O3 1884   2.748   0.525   1.402 -0.0439 -0.1405  0.6992
  154fsi     O4 1885   2.890   0.679   1.265  0.6464  0.5150 -0.0763
  154fsi     F2 1886   2.928   0.456   1.250  0.3722 -0.3111  0.3640
  155fsi     F1 1887   1.398   1.762   0.787 -0.0249  0.6970 -0.1165
  155fsi     S1 1888   1.460   1.618   0.824  0.1114  0.2569  0.0413
  155fsi      N 1889   1.358   1.552   0.921 -0.1634 -0.1217 -0.3361
  155fsi     O1 1890   1.466   1.553   0.694 -0.0240 -0.0658 -0.5152
  155fsi     O2 1891   1.592   1.648   0.886  0.2449 -0.2671  0.2884
  155fsi     S2 1892   1.271   1.422   0.903  0.3837  0.2335  0.1436
  155fsi     O3 1893   1.245   1.388   0.768  0.3651  0.3161  0.1807
  155fsi     O4 1894   1.155   1.415   0.989  0.1019 -0.1398 -0.1372
  155fsi     F2 1895   1.370   1.308   0.953  0.2594  0.0221 -0.3855
  156fsi     F1 1896   0.992   0.325   1.079 -0.1786  0.4010 -0.0866
  156fsi     S1 1897   1.035   0.453   1.009  0.2963  0.2632  0.3582
  156fsi      N 1898   0.925   0.559   1.030 -0.2293 -0.3109  0.3010
  156fsi     O1 1899   1.157   0.486   1.080  0.4056  0.1620 -0.5570
  156fsi     O2 1900   1.048   0.404   0.872  0.5282  0.1246  0.3745
  156fsi     S2 1901   0.838   0.643   0.927 -0.2701  0.0823  0.1015
  156fsi     O3 1902   0.896   0.706   0.815 -0.1179 -0.1737  0.3048
  156fsi     O4 1903   0.748   0.733   1.002 -0.2366  0.5572 -0.3420
  156fsi     F2 1904   0.727   0.544   0.864 -0.1023 -0.4245  0.0526
  157fsi     F1 1905   1.202   1.601   0.176  0.0209 -0.0111  0.2334
  157fsi     S1 1906   1.297   1.653   0.294 -0.3012  0.3263  0.4560
  157fsi      N 1907   1.426   1.692   0.218  0.1941  0.1278  0.5117
  157fsi     O1 1908   1.219   1.761   0.341  0.8579  0.3463 -0.2872
  157fsi     O2 1909   1.313   1.543   0.382 -0.1858  0.5970  0.2832
  157fsi     S2 1910   1.549   1.604   0.163 -0.1924  0.0051  0.0351
  157fsi     O3 1911   1.601   1.653   0.036  0.1252  0.5198 -0.2022
  157fsi     O4 1912   1.533   1.461   0.169 -0.1219  0.0383  0.2446
  157fsi     F2 1913   1.672   1.630   0.262 -0.4129  0.2489  0.0413
  158fsi     F1 1914   0.278   2.252   0.577  0.0011  0.6237  0.7941
  158fsi     S1 1915   0.389   2.180   0.657 -0.1899 -0.7469  0.3798
  158fsi      N 1916   0.456   2.299   0.735  0.4003 -0.0574 -0.0828
  158fsi     O1 1917   0.321   2.092   0.743 -0.2376  0.2381 -0.0099
  158fsi     O2 1918   0.462   2.116   0.550 -0.5829  0.3475  0.1392
  158fsi     S2 1919   0.590   2.378   0.710  0.2577  0.0544  0.4376
  158fsi     O3 1920   0.633   2.408   0.577  0.1300  0.3400 -0.0889
  158fsi     O4 1921   0.693   2.327   0.799 -0.8090  0.2283 -0.4072
  158fsi     F2 1922   0.560   2.518   0.775 -0.2857 -0.1839  0.9574
  159fsi     F1 1923   2.040   1.087   1.775  0.2009  0.0786 -0.3227
  159fsi     S1 1924   2.097   1.195   1.663 -0.3439 -0.3288  0.2434
  159fsi      N 1925   1.986   1.179   1.548 -0.8688  0.4983 -0.1590
  159fsi     O1 1926   2.084   1.323   1.728  0.4674  0.6490  0.4318
  159fsi     O2 1927   2.231   1.153   1.623 -0.2413  0.4263 -0.1313
  159fsi     S2 1928   1.867   1.275   1.516  0.3896  0.3500 -0.2356
  159fsi     O3 1929   1.811   1.329   1.638  0.3582 -0.1511  0.1098
  159fsi     O4 1930   1.782   1.216   1.419  0.6604 -0.0161  0.4044
  159fsi     F2 1931   1.925   1.392   1.439 -0.4243  0.7904  0.0111
  160fsi     F1 1932   2.161   0.888   1.976 -0.4413  0.2390  0.4570
  160fsi     S1 1933   2.307   0.957   2.006  0.3240  0.0439  0.1468
  160fsi      N 1934   2.403   0.908   1.890  0.5787  0.0593  0.3494
  160fsi     O1 1935   2.276   1.097   1.998  0.5185 -0.0707 -0.3990
  160fsi     O2 1936   2.342   0.915   2.139 -0.1026  0.5601  0.8462
  160fsi     S2 1937   2.544   0.847   1.908 -0.2422 -0.2831 -0.3180
  160fsi     O3 1938   2.601   0.859   2.035 -0.5208 -0.3690  0.0348
  160fsi     O4 1939   2.631   0.884   1.795 -0.9097  0.0402 -0.2333
  160fsi     F2 1940   2.510   0.693   1.887  0.0904 -0.4002 -0.3823
  161fsi     F1 1941   1.022   2.905   2.101 -0.5468  0.0148  0.3072
  161fsi     S1 1942   0.970   2.986   2.224 -0.2101 -0.0508  0.3995
  161fsi      N 1943   0.831   2.930   2.253 -0.3467 -0.4777  0.1330
  161fsi     O1 1944   1.071   2.963   2.322  0.4421  0.0009 -0.1198
  161fsi     O2 1945   0.964   3.121   2.179  0.8090  0.2833 -0.0864
  161fsi     S2 1946   0.786   2.839   2.373 -0.5248 -0.1376  0.4286
  161fsi     O3 1947   0.654   2.878   2.413  0.2901 -0.5936 -0.1044
  161fsi     O4 1948   0.881   2.819   2.473  0.1751 -0.0305 -0.4196
  161fsi     F2 1949   0.770   2.702   2.297  0.1991 -0.2687  0.0232
  162fsi     F1 1950   1.329   2.618   1.513 -0.0562 -0.3543 -0.6532
  162fsi     S1 1951   1.411   2.641   1.383  0.6858  0.1849  0.0027
  162fsi      N 1952   1.409   2.796   1.373  0.5639 -0.3683  0.6755
  162fsi     O1 1953   1.539   2.581   1.415 -0.0066 -0.3897  0.7350
  162fsi     O2 1954   1.326   2.581   1.283 -0.2187 -0.5452  0.2321
  162fsi     S2 1955   1.536   2.889   1.370 -0.1059  0.1980  0.2245
  162fsi     O3 1956   1.638   2.856   1.465  0.0851  0.2692  0.8183
  162fsi     O4 1957   1.495   3.025   1.348  1.0053 -0.0340 -0.0766
  162fsi     F2 1958   1.594   2.847   1.233  0.0953 -0.0135 -0.1083
  163fsi     F1 1959   1.957   0.293   0.346 -0.0050  0.3362 -0.0607
  163fsi     S1 1960   1.934   0.442   0.352 -0.2496  0.2410  0.3585
  163fsi      N 1961   1.836   0.461   0.473  0.1432  0.6421  0.5507
  163fsi     O1 1962   2.069   0.493   0.363  0.1868  0.1931  0.5347
  163fsi     O2 1963   1.873   0.476   0.231  0.0319 -0.1994  0.7756
  163fsi     S2 1964   1.681   0.421   0.481  0.0307  0.3968 -0.3997
  163fsi     O3 1965   1.657   0.327   0.587  0.5478 -0.2070  0.7762
  163fsi     O4 1966   1.618   0.396   0.353  0.3102 -0.1834 -0.6118
  163fsi     F2 1967   1.610   0.554   0.535  0.0186  0.3134  0.3129
  164fsi     F1 1968   2.219   1.145   0.094 -0.0866 -0.2913 -0.8212
  164fsi     S1 1969   2.170   1.074   0.223  0.2433 -0.0584  0.4683
  164fsi      N 1970   2.305   1.046   0.290  0.0719  0.0348 -0.5535
  164fsi     O1 1971   2.090   1.174   0.289  0.4497  0.1009  0.4688
  164fsi     O2 1972   2.095   0.965   0.166 -0.1144  0.1656  0.3720
  164fsi     S2 1973   2.383   0.911   0.314 -0.3578  0.4978  0.0242
  164fsi     O3 1974   2.487   0.903   0.220  0.2501 -0.0356  0.8698
  164fsi     O4 1975   2.308   0.788   0.345  0.3893  0.4128 -0.4286
  164fsi     F2 1976   2.444   0.940   0.455 -0.0341  0.5294 -0.3445
  165fsi     F1 1977   1.741   0.578   1.176  0.4219  0.2521 -0.5837
  165fsi     S1 1978   1.665   0.453   1.116 -0.0810 -0.2128 -0.1475
  165fsi      N 1979   1.729   0.422   0.982 -0.0012  0.0468 -0.0499
  165fsi     O1 1980   1.659   0.352   1.221  0.0693 -0.3252 -0.2953
  165fsi     O2 1981   1.540   0.515   1.088 -0.2614 -0.5642 -0.4967
  165fsi     S2 1982   1.876   0.382   0.957 -0.1554 -0.4209  0.2359
  165fsi     O3 1983   1.951   0.334   1.069 -0.4361 -0.4683  0.0544
  165fsi     O4 1984   1.941   0.456   0.853 -0.1953  0.0196 -0.3469
  165fsi     F2 1985   1.845   0.245   0.887 -0.5432  0.6276  0.3246
  166fsi     F1 1986   1.890   0.028   1.222 -0.2708  0.0267  0.7772
  166fsi     S1 1987   1.938   0.037   1.374 -0.6342 -0.4358  0.4548
  166fsi      N 1988   1.919  -0.113   1.419 -0.6123  0.0673 -0.1894
  166fsi     O1 1989   2.076   0.086   1.371 -0.2561  0.6169  0.1657
  166fsi     O2 1990   1.840   0.120   1.439  0.0227 -0.2210 -0.0440
  166fsi     S2 1991   1.998  -0.238   1.379  0.0723  0.0193  0.2683
  166fsi     O3 1992   1.921  -0.361   1.382  0.8410 -0.0985  0.0405
  166fsi     O4 1993   2.136  -0.239   1.422 -0.6854 -0.0727  0.1380
  166fsi     F2 1994   2.024  -0.212   1.223  0.0406 -0.5166  0.5137
  167fsi     F1 1995   0.285   1.252   2.646 -0.0285 -0.0937  0.3408
  167fsi     S1 1996   0.332   1.140   2.548 -0.3635  0.1314  0.1761
  167fsi      N 1997   0.373   1.033   2.651  0.8988  0.1064  0.0652
  167fsi     O1 1998   0.213   1.108   2.468  0.3106 -0.1785  0.3016
  167fsi     O2 1999   0.440   1.201   2.481  0.1912 -0.3150  0.1257
  167fsi     S2 2000   0.326   0.890   2.684  0.1280  0.0682 -0.4647
  167fsi     O3 2001   0.207   0.850   2.614 -0.2945  0.3364  0.3910
  167fsi     O4 2002   0.340   0.860   2.821  0.0789  0.4716  0.9301
  167fsi     F2 2003   0.428   0.792   2.624  0.1528 -0.3374  0.2847
  168fsi     F1 2004   0.422   2.861   1.393  0.0357 -0.1120  0.1844
  168fsi     S1 2005   0.356   2.786   1.271  0.1793  0.0677 -0.0387
  168fsi      N 2006   0.280   2.665   1.347 -0.0840  0.2119 -0.4272
  168fsi     O1 2007   0.269   2.887   1.212  0.1633 -0.1884  0.5450
  168fsi     O2 2008   0.466   2.741   1.189 -0.3233  0.4172  1.2363
  168fsi     S2 2009   0.119   2.658   1.357 -0.1294 -0.2085 -0.0351
  168fsi     O3 2010   0.038   2.716   1.254 -0.0386  0.1417 -0.1872
  168fsi     O4 2011   0.076   2.692   1.489 -0.2535 -0.5205  0.5342
  168fsi     F2 2012   0.091   2.499   1.342  0.2180 -0.3934 -0.2162
  169fsi     F1 2013   1.461   1.034   0.457  0.0936  0.0183 -0.0331
  169fsi     S1 2014   1.464   1.181   0.423 -0.1117  0.2476  0.1437
  169fsi      N 2015   1.614   1.222   0.403  0.1739 -0.0055 -0.0237
  169fsi     O1 2016   1.396   1.187   0.296  0.0665 -0.4651  0.3628
  169fsi     O2 2017   1.394   1.244   0.533  0.0171 -0.6635 -0.0955
  169fsi     S2 2018   1.702   1.310   0.500  0.5442  0.5502  0.2963
  169fsi     O3 2019   1.841   1.276   0.484  0.4680 -0.6453  0.3835
  169fsi     O4 2020   1.663   1.289   0.635 -0.4882 -0.3651 -0.2124
  169fsi     F2 2021   1.684   1.463   0.472  0.1079 -0.4084  0.4218
  170fsi     F1 2022   2.216   2.094   1.172 -0.2791  0.3928  0.1836
  170fsi     S1 2023   2.145   1.987   1.270  0.0274 -0.1706 -0.3489
  170fsi      N 2024   2.075   1.889   1.165 -0.3541  0.7032  0.2981
  170fsi     O1 2025   2.248   1.927   1.349  0.3716  0.7984  0.2768
  170fsi     O2 2026   2.054   2.076   1.341  0.0526  0.5844  0.5881
  170fsi     S2 2027   1.937   1.809   1.188 -0.3946  0.1789  0.0457
  170fsi     O3 2028   1.860   1.795   1.067 -0.4498 -0.3486  0.4186
  170fsi     O4 2029   1.869   1.846   1.311 -0.8043  0.8760  0.3079
  170fsi     F2 2030   1.973   1.662   1.219 -0.7709  0.0294  0.0529
  171fsi     F1 2031   2.579   2.133   1.863  0.6273 -0.3321  0.1381
  171fsi     S1 2032   2.583   2.064   1.717  0.1742  0.1314  0.0842
  171fsi      N 2033   2.499   1.929   1.732  0.1164 -0.5577 -0.0966
  171fsi     O1 2034   2.520   2.155   1.626 -0.2816 -0.4364  0.4881
  171fsi     O2 2035   2.724   2.041   1.705 -0.3606 -0.0786  0.1362
  171fsi     S2 2036   2.543   1.787   1.692  0.0640 -0.1052  0.5815
  171fsi     O3 2037   2.684   1.777   1.662  0.0541 -0.0186 -0.4752
  171fsi     O4 2038   2.460   1.722   1.593  0.0368  0.3328 -0.2777
  171fsi     F2 2039   2.525   1.710   1.826  0.2985  0.1008 -0.1787
  172fsi     F1 2040   1.434   2.182   1.956  0.3730  0.2461  0.3422
  172fsi     S1 2041   1.346   2.140   2.086  0.1410  0.2867 -0.0368
  172fsi      N 2042   1.205   2.129   2.033 -0.2031 -0.2682 -0.0091
  172fsi     O1 2043   1.392   2.015   2.133 -0.0287 -0.1267  0.0893
  172fsi     O2 2044   1.370   2.254   2.172  0.2167 -0.5652 -0.1991
  172fsi     S2 2045   1.158   2.041   1.916  0.0455  0.0131  0.0651
  172fsi     O3 2046   1.258   1.955   1.856  0.0421  0.4899 -0.0078
  172fsi     O4 2047   1.076   2.117   1.830 -0.0170 -1.2141  0.1054
  172fsi     F2 2048   1.057   1.941   1.979  0.0390 -0.1672  0.3782
  173fsi     F1 2049   0.094   0.959   1.474 -0.2310 -0.4846 -0.2605
  173fsi     S1 2050  -0.048   1.005   1.529  0.1299  0.2309  0.1951
  173fsi      N 2051  -0.085   1.120   1.425 -0.3453 -0.0881 -0.1327
  173fsi     O1 2052  -0.121   0.874   1.519 -0.2063  0.0177  0.4008
  173fsi     O2 2053  -0.016   1.058   1.658 -0.0920 -0.0983 -0.0295
  173fsi     S2 2054  -0.148   1.116   1.280  0.1157  0.2190  0.0772
  173fsi     O3 2055  -0.119   0.995   1.211 -0.1237 -0.3201 -0.0358
  173fsi     O4 2056  -0.125   1.237   1.207  0.5413 -0.3205 -0.6107
  173fsi     F2 2057  -0.301   1.130   1.301 -0.2918 -0.1743 -0.0844
  174fsi     F1 2058   0.913   2.228   0.176  0.6947 -0.2435 -0.9184
  174fsi     S1 2059   1.008   2.359   0.170 -0.2141  0.5804 -0.6191
  174fsi      N 2060   0.926   2.446   0.072  0.6430  0.9377  0.5022
  174fsi     O1 2061   0.994   2.412   0.300  0.3001 -0.7009 -0.4883
  174fsi     O2 2062   1.139   2.320   0.131 -0.4393 -0.4636 -0.2175
  174fsi     S2 2063   0.932   2.473  -0.083 -0.3376  0.2109 -0.1305
  174fsi     O3 2064   1.040   2.406  -0.150 -0.3133  0.5049  0.5755
  174fsi     O4 2065   0.912   2.611  -0.117  0.4453  0.7389  0.1519
  174fsi     F2 2066   0.796   2.413  -0.133 -0.2446 -0.1378 -0.1311
  175fsi     F1 2067   2.260   1.668   0.190 -0.5363 -0.4027 -0.4426
  175fsi     S1 2068   2.255   1.777   0.075  0.1057  0.3988 -0.0167
  175fsi      N 2069   2.305   1.907   0.151  0.0100  0.0435  0.7433
  175fsi     O1 2070   2.349   1.719  -0.025  0.7674 -0.6551  0.6176
  175fsi     O2 2071   2.117   1.791   0.032  0.0125  0.9098  0.2655
  175fsi     S2 2072   2.240   1.992   0.261 -0.1957 -0.0390 -0.3373
  175fsi     O3 2073   2.097   1.972   0.274  0.3005 -0.1221 -0.2783
  175fsi     O4 2074   2.298   2.125   0.273 -0.1745  0.2058 -0.1713
  175fsi     F2 2075   2.279   1.913   0.388  0.3883 -0.5723 -0.4556
  176fsi     F1 2076   2.897   2.420   0.218  0.3117 -0.2758 -0.1587
  176fsi     S1 2077   2.760   2.380   0.159  0.3103  0.3876 -0.2176
  176fsi      N 2078   2.802   2.271   0.053  0.0502  0.0966  0.6892
  176fsi     O1 2079   2.680   2.319   0.262 -0.0755  0.0446 -0.3624
  176fsi     O2 2080   2.722   2.507   0.108 -0.2780 -0.0071  0.3254
  176fsi     S2 2081   2.864   2.299  -0.081 -0.2875 -0.2863 -0.0392
  176fsi     O3 2082   2.938   2.182  -0.121  0.2361  0.8728 -0.6672
  176fsi     O4 2083   2.926   2.432  -0.100 -0.2108 -0.6199 -0.8823
  176fsi     F2 2084   2.732   2.295  -0.176 -0.2121 -0.3518  0.3970
  177fsi     F1 2085   2.855   1.104   2.460 -0.0444 -0.2200  0.1080
  177fsi     S1 2086   2.847   0.968   2.379 -0.0098 -0.1375 -0.0714
  177fsi      N 2087   2.839   1.019   2.236  0.0534  0.3014  0.3448
  177fsi     O1 2088   2.971   0.900   2.417 -0.0419  0.0797 -0.6331
  177fsi     O2 2089   2.723   0.917   2.431 -0.0753  0.0129 -0.2127
  177fsi     S2 2090   2.958   1.037   2.131 -0.3289 -0.0507  0.0281
  177fsi     O3 2091   3.089   0.995   2.171  0.4943 -0.0675  0.1339
  177fsi     O4 2092   2.944   1.161   2.061 -0.8921 -0.2978  0.4742
  177fsi     F2 2093   2.923   0.927   2.024  0.2066  0.0134 -0.2592
  178fsi     F1 2094   2.154   1.831   1.703  0.3477 -0.8957 -0.2986
  178fsi     S1 2095   2.126   1.681   1.689 -0.0794 -0.0082 -0.1866
  178fsi      N 2096   2.231   1.611   1.788 -0.0754 -0.0989  0.2419
  178fsi     O1 2097   1.990   1.671   1.730 -0.1072  0.2648  0.4595
  178fsi     O2 2098   2.158   1.653   1.549  0.4897 -0.0707 -0.1790
  178fsi     S2 2099   2.203   1.569   1.935  0.1676  0.0214  0.2038
  178fsi     O3 2100   2.262   1.445   1.975  0.4145  0.0238  0.2568
  178fsi     O4 2101   2.067   1.578   1.982  0.0324  0.5211 -0.2863
  178fsi     F2 2102   2.270   1.680   2.026  0.1784  0.8266 -0.3515
  179fsi     F1 2103   1.108   0.885   1.198  0.4458 -0.2338 -0.4021
  179fsi     S1 2104   0.997   0.949   1.299 -0.4672 -0.0989  0.1201
  179fsi      N 2105   0.973   1.097   1.242 -0.0177  0.3635 -0.8301
  179fsi     O1 2106   0.885   0.859   1.290 -0.0242 -0.3470  0.0773
  179fsi     O2 2107   1.067   0.947   1.428  0.7253 -0.3408  0.4531
  179fsi     S2 2108   0.832   1.150   1.176 -0.2655  0.3557  0.1695
  179fsi     O3 2109   0.722   1.058   1.169  0.5334  0.0125 -0.0837
  179fsi     O4 2110   0.859   1.237   1.065 -0.2693 -0.3300  0.0915
  179fsi     F2 2111   0.782   1.251   1.283  0.1774 -0.3492 -0.2320
  180fsi     F1 2112   1.425   0.713   1.499 -0.2828 -0.0506  0.0058
  180fsi     S1 2113   1.286   0.628   1.509 -0.0237 -0.0968 -0.2292
  180fsi      N 2114   1.321   0.479   1.555  0.0575 -0.2639  0.0643
  180fsi     O1 2115   1.220   0.697   1.614  0.3280 -0.2285 -0.6406
  180fsi     O2 2116   1.229   0.634   1.377  0.0261 -0.3920 -0.7120
  180fsi     S2 2117   1.365   0.350   1.475 -0.0106 -0.2877  0.1200
  180fsi     O3 2118   1.490   0.298   1.531  0.8163  0.1436  0.2372
  180fsi     O4 2119   1.367   0.363   1.329 -0.2131  1.0603  0.5681
  180fsi     F2 2120   1.247   0.248   1.500 -0.8000 -0.2731 -0.4102
  181fsi     F1 2121   1.647   1.548   2.515 -0.3469  0.6645 -1.0191
  181fsi     S1 2122   1.598   1.683   2.580 -0.1003 -0.0036  0.3641
  181fsi      N 2123   1.714   1.784   2.558  0.1010 -0.4397 -0.2666
  181fsi     O1 2124   1.480   1.715   2.498  0.7717 -0.4122  0.2359
  181fsi     O2 2125   1.577   1.640   2.713  0.0666  0.5742  0.3302
  181fsi     S2 2126   1.727   1.902   2.455  0.1029  0.3280  0.0937
  181fsi     O3 2127   1.634   1.903   2.344  0.4583 -0.0389  0.0265
  181fsi     O4 2128   1.863   1.927   2.416 -0.4338 -0.2611 -0.0083
  181fsi     F2 2129   1.681   2.027   2.541  0.0890  0.3973 -0.5763
  182fsi     F1 2130   0.163   0.296   2.619  0.0256 -0.0461  0.1068
  182fsi     S1 2131   0.170   0.447   2.570 -0.2239 -0.0327  0.5535
  182fsi      N 2132   0.157   0.443   2.415 -0.3611 -0.4311  0.2793
  182fsi     O1 2133   0.057   0.503   2.634  0.1459  0.2056  0.3343
  182fsi     O2 2134   0.294   0.488   2.624 -0.0010 -0.2958 -0.8577
  182fsi     S2 2135   0.197   0.556   2.310  0.3465  0.1679  0.0060
  182fsi     O3 2136   0.187   0.693   2.358  0.0115 -0.2076 -0.1958
  182fsi     O4 2137   0.137   0.529   2.182  0.3939 -0.2260 -0.0750
  182fsi     F2 2138   0.347   0.538   2.301  0.0929  0.0015 -0.1060
  183fsi     F1 2139   2.787   2.552   1.531  0.2641 -0.2323 -0.3130
  183fsi     S1 2140   2.734   2.698   1.512 -0.2906 -0.0372 -0.1912
  183fsi      N 2141   2.811   2.778   1.624 -0.2510  0.6100  0.3312
  183fsi     O1 2142   2.770   2.726   1.378  0.2660 -0.7185  0.6656
  183fsi     O2 2143   2.591   2.686   1.537 -0.0278 -0.1114  0.1492
  183fsi     S2 2144   2.757   2.849   1.747  0.0131  0.2913 -0.6588
  183fsi     O3 2145   2.653   2.941   1.722 -0.5525  0.7864 -0.6351
  183fsi     O4 2146   2.860   2.885   1.833  0.8292 -0.0741  0.0518
  183fsi     F2 2147   2.685   2.743   1.836  0.7187  0.0430  0.3376
  184fsi     F1 2148   1.360   2.150   0.840 -0.3839  0.7145 -0.5159
  184fsi     S1 2149   1.501   2.211   0.876  0.0018  0.0544 -0.0026
  184fsi      N 2150   1.548   2.125   0.996 -0.8079  0.4900  0.2796
  184fsi     O1 2151   1.571   2.192   0.752  0.0027 -0.1184 -0.3412
  184fsi     O2 2152   1.471   2.346   0.908  0.4105  0.3320  0.1463
  184fsi     S2 2153   1.510   2.133   1.149 -0.2410 -0.2530  0.0794
  184fsi     O3 2154   1.452   2.254   1.194 -0.0546  0.6578  0.4694
  184fsi     O4 2155   1.615   2.080   1.228 -0.4649 -0.5160 -0.4900
  184fsi     F2 2156   1.392   2.030   1.177 -0.0076  0.2558 -0.0531
  185fsi     F1 2157   2.571   1.502   2.517  0.2901  0.1459  0.0804
  185fsi     S1 2158   2.514   1.351   2.518 -0.1988  0.2382  0.4608
  185fsi      N 2159   2.468   1.330   2.375  0.0226 -0.3861 -0.2171
  185fsi     O1 2160   2.622   1.269   2.563  0.0907 -0.2143  0.4898
  185fsi     O2 2161   2.404   1.357   2.612 -0.0679 -0.3559  1.1756
  185fsi     S2 2162   2.536   1.237   2.270  0.3210  0.2743  0.3418
  185fsi     O3 2163   2.492   1.272   2.135  0.1020  0.1289 -0.2252
  185fsi     O4 2164   2.532   1.096   2.312  0.3101  0.1523  0.7130
  185fsi     F2 2165   2.684   1.283   2.275 -0.7873  0.0949  0.4485
  186fsi     F1 2166   0.932   2.800   1.500  0.0806 -0.0019  0.1490
  186fsi     S1 2167   0.787   2.757   1.525  0.2487 -0.6753 -0.2515
  186fsi      N 2168   0.802   2.608   1.565 -0.6076 -0.2106  0.3815
  186fsi     O1 2169   0.755   2.842   1.634  0.4639 -0.2097 -0.1943
  186fsi     O2 2170   0.718   2.778   1.402  0.4626 -0.1736  0.2695
  186fsi     S2 2171   0.742   2.481   1.494 -0.1502 -0.0733  0.0717
  186fsi     O3 2172   0.669   2.510   1.375 -0.4332 -0.0246 -0.1861
  186fsi     O4 2173   0.681   2.383   1.585 -0.2860  0.4037 -0.6215
  186fsi     F2 2174   0.874   2.412   1.443 -0.0402  0.0523 -0.1260
  187fsi     F1 2175   1.690   1.033   2.877 -0.3402  0.3181  0.4324
  187fsi     S1 2176   1.691   1.045   3.035 -0.2626  0.4510  0.5271
  187fsi      N 2177   1.621   0.910   3.087  0.0131 -0.3059 -0.1692
  187fsi     O1 2178   1.819   1.072   3.079  0.0370 -0.6761  0.2604
  187fsi     O2 2179   1.604   1.156   3.054  0.2564 -0.0345  0.4593
  187fsi     S2 2180   1.674   0.783   3.162  0.0613 -0.1047 -0.0758
  187fsi     O3 2181   1.815   0.758   3.138 -0.2276 -0.2897 -0.4212
  187fsi     O4 2182   1.592   0.668   3.143  0.0683 -0.3474  0.4565
  187fsi     F2 2183   1.660   0.827   3.318 -0.3723 -0.1570 -0.1625
  188fsi     F1 2184   2.898   0.193   1.497  0.2521  0.3328 -0.6768
  188fsi     S1 2185   2.949   0.074   1.402  0.2084 -0.0991 -0.0858
  188fsi      N 2186   3.026   0.150   1.284  0.3512  0.2881 -0.3071
  188fsi     O1 2187   3.033  -0.010   1.488 -0.2073 -0.0266  0.5801
  188fsi     O2 2188   2.826   0.018   1.360 -0.2960 -0.6196  0.0750
  188fsi     S2 2189   3.011   0.118   1.132  0.3658  0.0165  0.2362
  188fsi     O3 2190   2.962  -0.010   1.089  0.2260 -0.0931 -0.1919
  188fsi     O4 2191   3.127   0.167   1.070  0.6457  1.0260 -0.0857
  188fsi     F2 2192   2.907   0.215   1.086 -0.1422 -0.1364 -0.0947
  189fsi     F1 2193   2.572   0.591   0.190 -0.0746  0.6164  0.0109
  189fsi     S1 2194   2.442   0.516   0.144 -0.0438 -0.1602 -0.0251
  189fsi      N 2195   2.386   0.449   0.281 -0.4281  0.2315  0.5567
  189fsi     O1 2196   2.352   0.626   0.106 -0.4313 -0.1595  0.2076
  189fsi     O2 2197   2.487   0.427   0.037  0.1818  0.3399  0.6091
  189fsi     S2 2198   2.428   0.312   0.337 -0.1741 -0.2434 -0.2884
  189fsi     O3 2199   2.390   0.296   0.475  0.2070  0.3142  0.2002
  189fsi     O4 2200   2.563   0.272   0.297 -0.0232  0.1895 -0.0701
  189fsi     F2 2201   2.331   0.208   0.263 -0.7472  0.1736 -0.1927
  190fsi     F1 2202   1.538   1.447   1.817 -0.0644  0.4214 -0.1079
  190fsi     S1 2203   1.616   1.540   1.914  0.0238 -0.2713 -0.8044
  190fsi      N 2204   1.570   1.496   2.055  0.9968 -0.3675  0.1185
  190fsi     O1 2205   1.755   1.505   1.894  0.8307 -0.0486 -0.0376
  190fsi     O2 2206   1.574   1.677   1.883 -0.1521  0.0793  0.2126
  190fsi     S2 2207   1.516   1.570   2.180  0.3551  0.1797  0.0768
  190fsi     O3 2208   1.441   1.489   2.274  0.0718 -0.2607 -0.1560
  190fsi     O4 2209   1.458   1.694   2.137 -0.3856  0.1078  0.2833
  190fsi     F2 2210   1.647   1.605   2.254  0.2308 -0.5921 -0.3007
  191fsi     F1 2211   0.030   1.167   0.949 -0.4120 -0.7396 -0.4118
  191fsi     S1 2212   0.077   1.051   0.874  0.0348  0.6156 -0.2557
  191fsi      N 2213   0.024   1.071   0.729  0.1877  0.1924  0.2244
  191fsi     O1 2214   0.218   1.044   0.887 -0.3750  0.7272  0.2606
  191fsi     O2 2215   0.004   0.944   0.944 -0.2611 -0.1982  0.2751
  191fsi     S2 2216   0.095   1.167   0.624  0.0923  0.1865  0.0341
  191fsi     O3 2217   0.050   1.141   0.489 -0.4443  0.6356  0.7213
  191fsi     O4 2218   0.237   1.182   0.633 -0.0041 -0.3360  0.1102
  191fsi     F2 2219   0.046   1.308   0.665  0.2354 -0.2194  0.1881
  192fsi     F1 2220   1.604   2.409   1.945 -0.6770 -0.0409 -0.1837
  192fsi     S1 2221   1.596   2.568   1.932  0.4857 -0.2596  0.1435
  192fsi      N 2222   1.741   2.621   1.959 -0.0556 -0.3948  1.1083
  192fsi     O1 2223   1.550   2.589   1.801 -0.3559  0.2680 -0.3614
  192fsi     O2 2224   1.508   2.609   2.038  0.2342 -0.6739  0.9932
  192fsi     S2 2225   1.854   2.660   1.856 -0.3959  0.1696 -0.3680
  192fsi     O3 2226   1.946   2.751   1.913  0.3516 -0.0894 -0.3153
  192fsi     O4 2227   1.796   2.689   1.729  0.1519  0.4419 -0.4143
  192fsi     F2 2228   1.943   2.528   1.828  0.0126  0.1538  0.2374
  193fsi     F1 2229   2.058   1.468   0.112 -0.5254  0.2662  0.3816
  193fsi     S1 2230   1.910   1.435   0.056 -0.1110  0.1168  0.0455
  193fsi      N 2231   1.937   1.325  -0.054 -0.9453 -0.1334 -0.3348
  193fsi     O1 2232   1.848   1.385   0.178 -0.2959  0.1141  0.2701
  193fsi     O2 2233   1.866   1.564   0.011  0.3067  0.3046 -0.2420
  193fsi     S2 2234   1.928   1.333  -0.214 -0.4118 -0.0813 -0.5565
  193fsi     O3 2235   1.863   1.444  -0.267 -0.1860  0.2787 -0.4073
  193fsi     O4 2236   1.890   1.211  -0.271 -0.0302 -0.1162 -0.3794
  193fsi     F2 2237   2.076   1.357  -0.254  0.3385  0.7819 -0.1748
  194fsi     F1 2238   1.021   0.448   2.817  0.4347 -0.3195  0.0034
  194fsi     S1 2239   0.929   0.321   2.865 -0.0249 -0.2368  0.0342
  194fsi      N 2240   0.963   0.200   2.767 -0.5243 -1.2317 -0.1145
  194fsi     O1 2241   0.964   0.296   3.002 -0.0254  0.7146 -0.2888
  194fsi     O2 2242   0.796   0.368   2.834 -0.0503 -0.5772 -0.0474
  194fsi     S2 2243   1.064   0.082   2.777  0.0002  0.2479 -0.2555
  194fsi     O3 2244   1.146   0.082   2.895 -0.3460 -0.2175  0.1837
  194fsi     O4 2245   1.122   0.057   2.645 -0.5629  0.2756 -0.6880
  194fsi     F2 2246   0.977  -0.047   2.798  0.0119  0.2061 -0.0228
  195fsi     F1 2247   2.625   1.415   1.344  0.4074  0.3070 -0.7283
  195fsi     S1 2248   2.528   1.468   1.236 -0.1151  0.1330 -0.0979
  195fsi      N 2249   2.447   1.340   1.196 -0.0548 -0.4763 -0.8196
  195fsi     O1 2250   2.462   1.573   1.306  0.6104  0.2972  0.0202
  195fsi     O2 2251   2.616   1.508   1.126  0.4472  0.0470 -0.0688
  195fsi     S2 2252   2.294   1.316   1.208  0.2468 -0.3883  0.4027
  195fsi     O3 2253   2.243   1.238   1.097  0.1382 -0.0872  0.5573
  195fsi     O4 2254   2.215   1.425   1.248  0.8024 -0.2536  0.4214
  195fsi     F2 2255   2.284   1.218   1.332 -0.3506 -0.4167 -0.1368
  196fsi     F1 2256   2.231   0.965   2.441 -0.0849  0.4581  0.4584
  196fsi     S1 2257   2.111   1.048   2.392  0.2215 -0.6560 -0.1755
  196fsi      N 2258   2.010   0.927   2.370  0.4572 -0.7762 -0.9906
  196fsi     O1 2259   2.077   1.130   2.504 -0.6481 -0.0737  0.6325
  196fsi     O2 2260   2.163   1.114   2.275 -0.4292  0.4557  0.2659
  196fsi     S2 2261   1.863   0.910   2.434  0.0394  0.4242 -0.2683
  196fsi     O3 2262   1.796   1.031   2.464  0.1030 -0.6208 -0.2457
  196fsi     O4 2263   1.864   0.804   2.535 -0.3480 -0.4864 -0.8369
  196fsi     F2 2264   1.780   0.857   2.317 -0.1994  0.4481  0.4728
  197fsi     F1 2265   1.154   1.767   2.173 -0.2913  0.0950  0.1620
  197fsi     S1 2266   1.092   1.640   2.249 -0.4351  0.1008 -0.0088
  197fsi      N 2267   0.950   1.698   2.269 -0.1711  0.7600  0.0713
  197fsi     O1 2268   1.100   1.538   2.151 -0.5539 -0.5911 -0.2609
  197fsi     O2 2269   1.170   1.628   2.371  0.0373  0.0671  0.1832
  197fsi     S2 2270   0.823   1.702   2.179  0.1449 -0.2597  0.0269
  197fsi     O3 2271   0.695   1.665   2.238 -0.2884 -0.8384 -0.3929
  197fsi     O4 2272   0.854   1.664   2.041  0.3554  0.0869 -0.4095
  197fsi     F2 2273   0.818   1.855   2.176 -0.3933 -0.2549 -0.2124
  198fsi     F1 2274   2.536   0.047   2.400 -0.3455 -0.3213  0.5045
  198fsi     S1 2275   2.446   0.001   2.288 -0.1120 -0.3405 -0.0627
  198fsi      N 2276   2.526  -0.104   2.205 -0.0500  0.7442 -0.6766
  198fsi     O1 2277   2.328  -0.055   2.345  0.4349 -0.4076 -0.2776
  198fsi     O2 2278   2.422   0.125   2.217 -0.5662 -0.2465 -0.5161
  198fsi     S2 2279   2.552  -0.255   2.240  0.1868  0.0239  0.3259
  198fsi     O3 2280   2.609  -0.324   2.128 -1.0824  0.1388 -0.0630
  198fsi     O4 2281   2.436  -0.314   2.302  0.8896 -0.0765  0.1214
  198fsi     F2 2282   2.662  -0.261   2.351 -0.3267 -0.2254  0.4673
  199fsi     F1 2283   0.653   1.015   0.234 -0.0142  0.5068 -0.0240
  199fsi     S1 2284   0.549   0.905   0.211 -0.0781  0.2617  0.1209
  199fsi      N 2285   0.562   0.887   0.057  0.9474  0.0275  0.1395
  199fsi     O1 2286   0.587   0.794   0.283 -0.5648 -0.1608 -0.0212
  199fsi     O2 2287   0.431   0.969   0.251  0.2334 -0.1993  0.3657
  199fsi     S2 2288   0.691   0.851  -0.021 -0.1689 -0.0425 -0.0706
  199fsi     O3 2289   0.672   0.746  -0.111  0.3271  0.0554  0.4505
  199fsi     O4 2290   0.807   0.845   0.060 -0.8398 -0.1265 -0.3425
  199fsi     F2 2291   0.710   0.973  -0.119 -0.6214 -0.2383  0.3885
  200fsi     F1 2292   2.299   0.476   0.777 -0.0063 -0.4744 -0.2280
  200fsi     S1 2293   2.270   0.615   0.707  0.1994 -0.5482 -0.1339
  200fsi      N 2294   2.286   0.723   0.818 -0.1230 -0.5635 -0.5490
  200fsi     O1 2295   2.380   0.634   0.610 -0.3230  0.5231  0.1048
  200fsi     O2 2296   2.137   0.599   0.652 -0.2491 -0.2490 -0.4087
  200fsi     S2 2297   2.181   0.799   0.904 -0.3486  0.4636  0.2709
  200fsi     O3 2298   2.243   0.851   1.023 -0.2920 -0.0909 -0.1160
  200fsi     O4 2299   2.057   0.740   0.913  0.6983  0.2739 -0.5259
  200fsi     F2 2300   2.150   0.922   0.813 -0.6509 -0.0971 -0.0041
   3.00218   3.00218   3.00218
