L1P2 short trajectory practice
 2050
    1Li+     Li    1   5.074   4.767   1.726
    2Li+     Li    2   4.269   1.386   3.987
    3Li+     Li    3   1.935   2.065   4.858
    4Li+     Li    4   2.244   5.851   1.136
    5Li+     Li    5   4.494   1.470   4.232
    6Li+     Li    6   1.796   4.632   4.235
    7Li+     Li    7   4.813   2.187   3.102
    8Li+     Li    8   2.909   1.697   0.962
    9Li+     Li    9   3.392   6.088   4.562
   10Li+     Li   10   2.359   4.016   2.457
   11Li+     Li   11   6.224   0.895   0.646
   12Li+     Li   12   4.452   0.335   1.353
   13Li+     Li   13   6.143   1.121   4.482
   14Li+     Li   14   4.378   4.141   2.961
   15Li+     Li   15   2.603   1.537   2.626
   16Li+     Li   16   1.715   2.442   1.571
   17Li+     Li   17   5.410   0.823   1.596
   18Li+     Li   18   5.262   5.246   3.021
   19Li+     Li   19   0.836   4.529   5.592
   20Li+     Li   20   2.835   1.290   6.098
   21Li+     Li   21   5.040   5.958   2.961
   22Li+     Li   22   1.188   5.295   4.835
   23Li+     Li   23   5.522   5.874   4.736
   24Li+     Li   24   1.754   2.324   1.219
   25Li+     Li   25   1.732   6.218   4.652
   26c3c     N4   26   3.102   2.938   4.601
   26c3c     C1   27   3.249   2.936   4.597
   26c3c     C1   28   3.057   2.983   4.734
   26c3c     C2   29   3.302   2.972   4.736
   26c3c     C2   30   3.180   3.002   4.823
   26c3c     C1   31   3.054   3.034   4.501
   26c3c     C1   32   3.048   2.805   4.570
   26c3c     H1   33   3.290   3.005   4.523
   26c3c     H1   34   3.290   2.840   4.565
   26c3c     H1   35   2.999   3.075   4.730
   26c3c     H1   36   2.987   2.913   4.781
   26c3c     HC   37   3.367   3.059   4.730
   26c3c     HC   38   3.361   2.890   4.778
   26c3c     HC   39   3.183   3.104   4.861
   26c3c     HC   40   3.176   2.935   4.909
   26c3c     H1   41   3.086   3.007   4.401
   26c3c     H1   42   2.945   3.041   4.501
   26c3c     H1   43   3.092   3.134   4.522
   26c3c     H1   44   2.939   2.809   4.569
   26c3c     H1   45   3.078   2.775   4.470
   26c3c     C2   46   3.094   2.698   4.672
   26c3c     HC   47   3.065   2.723   4.774
   26c3c     HC   48   3.203   2.689   4.676
   26c3c     CT   49   3.038   2.562   4.638
   26c3c     HC   50   3.071   2.531   4.539
   26c3c     HC   51   2.929   2.566   4.641
   26c3c     HC   52   3.073   2.490   4.712
   27c3c     N4   53   3.106   1.440   2.300
   27c3c     C1   54   3.188   1.411   2.418
   27c3c     C1   55   3.022   1.322   2.267
   27c3c     C2   56   3.165   1.266   2.459
   27c3c     C2   57   3.059   1.210   2.364
   27c3c     C1   58   3.017   1.552   2.330
   27c3c     C1   59   3.190   1.475   2.185
   27c3c     H1   60   3.167   1.478   2.502
   27c3c     H1   61   3.295   1.428   2.401
   27c3c     H1   62   2.916   1.343   2.273
   27c3c     H1   63   3.034   1.289   2.164
   27c3c     HC   64   3.130   1.262   2.562
   27c3c     HC   65   3.257   1.208   2.453
   27c3c     HC   66   2.971   1.177   2.418
   27c3c     HC   67   3.098   1.123   2.310
   27c3c     H1   68   3.074   1.642   2.356
   27c3c     H1   69   2.953   1.577   2.246
   27c3c     H1   70   2.953   1.529   2.415
   27c3c     H1   71   3.129   1.500   2.099
   27c3c     H1   72   3.249   1.565   2.207
   27c3c     C2   73   3.287   1.361   2.146
   27c3c     HC   74   3.234   1.269   2.120
   27c3c     HC   75   3.353   1.332   2.228
   27c3c     CT   76   3.373   1.399   2.029
   27c3c     HC   77   3.433   1.487   2.053
   27c3c     HC   78   3.310   1.421   1.942
   27c3c     HC   79   3.439   1.316   2.004
   28c3c     N4   80   0.643   2.132   2.469
   28c3c     C1   81   0.760   2.221   2.462
   28c3c     C1   82   0.520   2.208   2.439
   28c3c     C2   83   0.710   2.363   2.435
   28c3c     C2   84   0.559   2.355   2.420
   28c3c     C1   85   0.658   2.026   2.369
   28c3c     C1   86   0.633   2.070   2.602
   28c3c     H1   87   0.831   2.191   2.385
   28c3c     H1   88   0.820   2.219   2.553
   28c3c     H1   89   0.468   2.171   2.351
   28c3c     H1   90   0.444   2.199   2.517
   28c3c     HC   91   0.756   2.401   2.344
   28c3c     HC   92   0.738   2.430   2.516
   28c3c     HC   93   0.527   2.389   2.322
   28c3c     HC   94   0.509   2.418   2.494
   28c3c     H1   95   0.748   1.967   2.386
   28c3c     H1   96   0.573   1.958   2.369
   28c3c     H1   97   0.665   2.069   2.269
   28c3c     H1   98   0.549   2.001   2.606
   28c3c     H1   99   0.722   2.010   2.622
   28c3c     C2  100   0.617   2.176   2.714
   28c3c     HC  101   0.528   2.237   2.701
   28c3c     HC  102   0.700   2.246   2.717
   28c3c     CT  103   0.607   2.110   2.850
   28c3c     HC  104   0.698   2.053   2.871
   28c3c     HC  105   0.521   2.044   2.854
   28c3c     HC  106   0.596   2.187   2.926
   29c3c     N4  107   4.797   3.660   5.723
   29c3c     C1  108   4.718   3.751   5.809
   29c3c     C1  109   4.727   3.530   5.712
   29c3c     C2  110   4.597   3.675   5.862
   29c3c     C2  111   4.603   3.535   5.801
   29c3c     C1  112   4.808   3.719   5.590
   29c3c     C1  113   4.931   3.641   5.779
   29c3c     H1  114   4.686   3.841   5.755
   29c3c     H1  115   4.776   3.793   5.891
   29c3c     H1  116   4.700   3.507   5.609
   29c3c     H1  117   4.790   3.446   5.740
   29c3c     HC  118   4.505   3.726   5.833
   29c3c     HC  119   4.599   3.670   5.971
   29c3c     HC  120   4.514   3.515   5.741
   29c3c     HC  121   4.608   3.459   5.879
   29c3c     H1  122   4.857   3.816   5.592
   29c3c     H1  123   4.864   3.655   5.522
   29c3c     H1  124   4.709   3.735   5.546
   29c3c     H1  125   4.990   3.578   5.713
   29c3c     H1  126   4.984   3.737   5.782
   29c3c     C2  127   4.928   3.579   5.921
   29c3c     HC  128   4.879   3.482   5.922
   29c3c     HC  129   4.872   3.641   5.991
   29c3c     CT  130   5.067   3.561   5.976
   29c3c     HC  131   5.118   3.657   5.983
   29c3c     HC  132   5.125   3.494   5.911
   29c3c     HC  133   5.061   3.517   6.076
   30c3c     N4  134   4.002   1.477   5.542
   30c3c     C1  135   3.875   1.545   5.510
   30c3c     C1  136   4.084   1.464   5.421
   30c3c     C2  137   3.871   1.569   5.359
   30c3c     C2  138   4.004   1.518   5.302
   30c3c     C1  139   4.075   1.559   5.640
   30c3c     C1  140   3.976   1.345   5.601
   30c3c     H1  141   3.863   1.639   5.563
   30c3c     H1  142   3.787   1.488   5.541
   30c3c     H1  143   4.179   1.517   5.429
   30c3c     H1  144   4.116   1.362   5.402
   30c3c     HC  145   3.859   1.675   5.338
   30c3c     HC  146   3.787   1.516   5.313
   30c3c     HC  147   4.059   1.598   5.254
   30c3c     HC  148   3.987   1.440   5.228
   30c3c     H1  149   4.018   1.573   5.731
   30c3c     H1  150   4.170   1.514   5.667
   30c3c     H1  151   4.095   1.658   5.599
   30c3c     H1  152   4.070   1.298   5.630
   30c3c     H1  153   3.919   1.355   5.694
   30c3c     C2  154   3.899   1.252   5.504
   30c3c     HC  155   3.953   1.236   5.411
   30c3c     HC  156   3.803   1.294   5.474
   30c3c     CT  157   3.874   1.117   5.566
   30c3c     HC  158   3.814   1.128   5.656
   30c3c     HC  159   3.968   1.069   5.591
   30c3c     HC  160   3.820   1.054   5.495
   31c3c     N4  161   5.250   5.382   0.652
   31c3c     C1  162   5.207   5.510   0.711
   31c3c     C1  163   5.189   5.270   0.726
   31c3c     C2  164   5.121   5.479   0.834
   31c3c     C2  165   5.110   5.327   0.843
   31c3c     C1  166   5.205   5.377   0.513
   31c3c     C1  167   5.397   5.371   0.655
   31c3c     H1  168   5.151   5.572   0.641
   31c3c     H1  169   5.290   5.574   0.739
   31c3c     H1  170   5.124   5.209   0.662
   31c3c     H1  171   5.262   5.197   0.762
   31c3c     HC  172   5.023   5.525   0.822
   31c3c     HC  173   5.166   5.520   0.924
   31c3c     HC  174   5.005   5.295   0.836
   31c3c     HC  175   5.149   5.291   0.938
   31c3c     H1  176   5.246   5.459   0.454
   31c3c     H1  177   5.233   5.283   0.464
   31c3c     H1  178   5.096   5.385   0.508
   31c3c     H1  179   5.429   5.279   0.607
   31c3c     H1  180   5.441   5.452   0.597
   31c3c     C2  181   5.453   5.375   0.799
   31c3c     HC  182   5.413   5.295   0.862
   31c3c     HC  183   5.426   5.467   0.851
   31c3c     CT  184   5.603   5.364   0.800
   31c3c     HC  185   5.647   5.447   0.745
   31c3c     HC  186   5.634   5.270   0.755
   31c3c     HC  187   5.639   5.368   0.903
   32c3c     N4  188   1.402   1.248   3.140
   32c3c     C1  189   1.437   1.105   3.146
   32c3c     C1  190   1.448   1.316   3.263
   32c3c     C2  191   1.500   1.077   3.282
   32c3c     C2  192   1.507   1.210   3.356
   32c3c     C1  193   1.471   1.309   3.026
   32c3c     C1  194   1.257   1.265   3.123
   32c3c     H1  195   1.504   1.075   3.065
   32c3c     H1  196   1.351   1.040   3.129
   32c3c     H1  197   1.521   1.394   3.244
   32c3c     H1  198   1.368   1.370   3.314
   32c3c     HC  199   1.600   1.034   3.268
   32c3c     HC  200   1.441   1.004   3.338
   32c3c     HC  201   1.610   1.235   3.381
   32c3c     HC  202   1.451   1.205   3.450
   32c3c     H1  203   1.441   1.262   2.932
   32c3c     H1  204   1.449   1.415   3.018
   32c3c     H1  205   1.579   1.298   3.036
   32c3c     H1  206   1.232   1.371   3.114
   32c3c     H1  207   1.224   1.219   3.030
   32c3c     C2  208   1.177   1.203   3.241
   32c3c     HC  209   1.204   1.248   3.337
   32c3c     HC  210   1.196   1.097   3.252
   32c3c     CT  211   1.029   1.222   3.222
   32c3c     HC  212   0.996   1.173   3.130
   32c3c     HC  213   1.004   1.328   3.216
   32c3c     HC  214   0.976   1.177   3.306
   33c3c     N4  215   5.609   3.590   4.321
   33c3c     C1  216   5.722   3.685   4.326
   33c3c     C1  217   5.483   3.665   4.311
   33c3c     C2  218   5.665   3.827   4.327
   33c3c     C2  219   5.514   3.814   4.317
   33c3c     C1  220   5.624   3.506   4.203
   33c3c     C1  221   5.609   3.506   4.441
   33c3c     H1  222   5.791   3.673   4.242
   33c3c     H1  223   5.787   3.670   4.412
   33c3c     H1  224   5.428   3.641   4.219
   33c3c     H1  225   5.411   3.638   4.388
   33c3c     HC  226   5.705   3.884   4.242
   33c3c     HC  227   5.694   3.880   4.418
   33c3c     HC  228   5.476   3.864   4.228
   33c3c     HC  229   5.465   3.860   4.403
   33c3c     H1  230   5.717   3.449   4.206
   33c3c     H1  231   5.543   3.434   4.195
   33c3c     H1  232   5.625   3.566   4.112
   33c3c     H1  233   5.529   3.432   4.436
   33c3c     H1  234   5.701   3.447   4.446
   33c3c     C2  235   5.594   3.588   4.571
   33c3c     HC  236   5.502   3.646   4.573
   33c3c     HC  237   5.674   3.661   4.584
   33c3c     CT  238   5.594   3.499   4.693
   33c3c     HC  239   5.688   3.444   4.699
   33c3c     HC  240   5.511   3.429   4.688
   33c3c     HC  241   5.583   3.561   4.783
   34c3c     N4  242   1.988   2.290   0.391
   34c3c     C1  243   2.098   2.193   0.397
   34c3c     C1  244   2.042   2.427   0.388
   34c3c     C2  245   2.230   2.270   0.408
   34c3c     C2  246   2.194   2.419   0.402
   34c3c     C1  247   1.912   2.267   0.268
   34c3c     C1  248   1.898   2.273   0.506
   34c3c     H1  249   2.100   2.127   0.311
   34c3c     H1  250   2.089   2.123   0.480
   34c3c     H1  251   2.015   2.481   0.298
   34c3c     H1  252   2.001   2.491   0.466
   34c3c     HC  253   2.295   2.243   0.325
   34c3c     HC  254   2.282   2.246   0.500
   34c3c     HC  255   2.241   2.467   0.316
   34c3c     HC  256   2.228   2.470   0.492
   34c3c     H1  257   1.870   2.167   0.264
   34c3c     H1  258   1.829   2.338   0.258
   34c3c     H1  259   1.976   2.280   0.180
   34c3c     H1  260   1.814   2.342   0.499
   34c3c     H1  261   1.854   2.173   0.505
   34c3c     C2  262   1.971   2.296   0.641
   34c3c     HC  263   2.014   2.396   0.648
   34c3c     HC  264   2.055   2.227   0.655
   34c3c     CT  265   1.877   2.278   0.758
   34c3c     HC  266   1.837   2.177   0.758
   34c3c     HC  267   1.795   2.349   0.751
   34c3c     HC  268   1.932   2.294   0.851
   35c3c     N4  269   3.011   1.946   5.486
   35c3c     C1  270   2.886   1.871   5.466
   35c3c     C1  271   3.064   1.919   5.621
   35c3c     C2  272   2.852   1.799   5.596
   35c3c     C2  273   2.964   1.829   5.694
   35c3c     C1  274   3.110   1.901   5.388
   35c3c     C1  275   2.987   2.090   5.468
   35c3c     H1  276   2.894   1.799   5.384
   35c3c     H1  277   2.803   1.934   5.435
   35c3c     H1  278   3.163   1.873   5.619
   35c3c     H1  279   3.082   2.010   5.679
   35c3c     HC  280   2.844   1.691   5.578
   35c3c     HC  281   2.756   1.832   5.635
   35c3c     HC  282   3.014   1.738   5.727
   35c3c     HC  283   2.926   1.879   5.783
   35c3c     H1  284   3.075   1.918   5.286
   35c3c     H1  285   3.205   1.954   5.399
   35c3c     H1  286   3.129   1.795   5.399
   35c3c     H1  287   3.081   2.145   5.479
   35c3c     H1  288   2.953   2.110   5.367
   35c3c     C2  289   2.884   2.145   5.569
   35c3c     HC  290   2.915   2.130   5.673
   35c3c     HC  291   2.787   2.095   5.561
   35c3c     CT  292   2.861   2.293   5.549
   35c3c     HC  293   2.823   2.312   5.449
   35c3c     HC  294   2.954   2.348   5.563
   35c3c     HC  295   2.788   2.328   5.622
   36c3c     N4  296   3.120   4.511   4.658
   36c3c     C1  297   3.102   4.365   4.674
   36c3c     C1  298   3.257   4.539   4.611
   36c3c     C2  299   3.236   4.297   4.645
   36c3c     C2  300   3.334   4.408   4.605
   36c3c     C1  301   3.025   4.558   4.557
   36c3c     C1  302   3.094   4.580   4.785
   36c3c     H1  303   3.024   4.325   4.609
   36c3c     H1  304   3.067   4.337   4.773
   36c3c     H1  305   3.258   4.589   4.514
   36c3c     H1  306   3.309   4.611   4.674
   36c3c     HC  307   3.224   4.225   4.564
   36c3c     HC  308   3.272   4.243   4.732
   36c3c     HC  309   3.371   4.392   4.504
   36c3c     HC  310   3.420   4.410   4.672
   36c3c     H1  311   2.922   4.539   4.586
   36c3c     H1  312   3.034   4.666   4.540
   36c3c     H1  313   3.042   4.509   4.461
   36c3c     H1  314   3.102   4.688   4.771
   36c3c     H1  315   2.991   4.562   4.817
   36c3c     C2  316   3.191   4.535   4.897
   36c3c     HC  317   3.295   4.553   4.871
   36c3c     HC  318   3.184   4.428   4.916
   36c3c     CT  319   3.162   4.607   5.026
   36c3c     HC  320   3.060   4.586   5.059
   36c3c     HC  321   3.174   4.714   5.013
   36c3c     HC  322   3.232   4.573   5.102
   37c3c     N4  323   2.368   1.223   1.369
   37c3c     C1  324   2.462   1.249   1.259
   37c3c     C1  325   2.441   1.216   1.497
   37c3c     C2  326   2.604   1.251   1.317
   37c3c     C2  327   2.590   1.231   1.468
   37c3c     C1  328   2.271   1.333   1.376
   37c3c     C1  329   2.295   1.097   1.345
   37c3c     H1  330   2.441   1.343   1.208
   37c3c     H1  331   2.456   1.175   1.179
   37c3c     H1  332   2.409   1.293   1.568
   37c3c     H1  333   2.422   1.124   1.553
   37c3c     HC  334   2.651   1.347   1.296
   37c3c     HC  335   2.665   1.173   1.273
   37c3c     HC  336   2.631   1.316   1.523
   37c3c     HC  337   2.645   1.142   1.500
   37c3c     H1  338   2.215   1.343   1.283
   37c3c     H1  339   2.200   1.319   1.456
   37c3c     H1  340   2.322   1.428   1.394
   37c3c     H1  341   2.222   1.080   1.425
   37c3c     H1  342   2.237   1.104   1.253
   37c3c     C2  343   2.391   0.975   1.337
   37c3c     HC  344   2.449   0.962   1.429
   37c3c     HC  345   2.464   0.986   1.258
   37c3c     CT  346   2.314   0.847   1.313
   37c3c     HC  347   2.260   0.854   1.219
   37c3c     HC  348   2.244   0.830   1.394
   37c3c     HC  349   2.384   0.764   1.308
   38c3c     N4  350   2.446   4.113   5.495
   38c3c     C1  351   2.562   4.202   5.511
   38c3c     C1  352   2.452   4.004   5.594
   38c3c     C2  353   2.652   4.144   5.620
   38c3c     C2  354   2.583   4.019   5.672
   38c3c     C1  355   2.323   4.190   5.518
   38c3c     C1  356   2.442   4.057   5.359
   38c3c     H1  357   2.533   4.304   5.536
   38c3c     H1  358   2.618   4.216   5.419
   38c3c     H1  359   2.367   4.005   5.663
   38c3c     H1  360   2.446   3.905   5.550
   38c3c     HC  361   2.666   4.218   5.699
   38c3c     HC  362   2.751   4.121   5.580
   38c3c     HC  363   2.561   4.029   5.779
   38c3c     HC  364   2.646   3.931   5.660
   38c3c     H1  365   2.314   4.273   5.448
   38c3c     H1  366   2.234   4.128   5.509
   38c3c     H1  367   2.323   4.233   5.619
   38c3c     H1  368   2.353   3.995   5.346
   38c3c     H1  369   2.432   4.138   5.286
   38c3c     C2  370   2.568   3.974   5.326
   38c3c     HC  371   2.581   3.890   5.395
   38c3c     HC  372   2.660   4.032   5.335
   38c3c     CT  373   2.563   3.918   5.186
   38c3c     HC  374   2.556   3.999   5.114
   38c3c     HC  375   2.476   3.853   5.176
   38c3c     HC  376   2.653   3.860   5.167
   39c3c     N4  377   5.999   4.162   0.347
   39c3c     C1  378   5.864   4.122   0.303
   39c3c     C1  379   6.075   4.043   0.391
   39c3c     C2  380   5.848   3.972   0.329
   39c3c     C2  381   5.981   3.922   0.384
   39c3c     C1  382   6.069   4.222   0.233
   39c3c     C1  383   5.991   4.261   0.455
   39c3c     H1  384   5.845   4.145   0.198
   39c3c     H1  385   5.785   4.177   0.354
   39c3c     H1  386   6.164   4.025   0.331
   39c3c     H1  387   6.116   4.053   0.491
   39c3c     HC  388   5.823   3.921   0.236
   39c3c     HC  389   5.767   3.953   0.399
   39c3c     HC  390   6.024   3.846   0.319
   39c3c     HC  391   5.968   3.878   0.483
   39c3c     H1  392   6.017   4.310   0.195
   39c3c     H1  393   6.170   4.252   0.259
   39c3c     H1  394   6.077   4.151   0.151
   39c3c     H1  395   6.091   4.293   0.483
   39c3c     H1  396   5.940   4.350   0.420
   39c3c     C2  397   5.918   4.205   0.580
   39c3c     HC  398   5.968   4.116   0.620
   39c3c     HC  399   5.817   4.173   0.557
   39c3c     CT  400   5.911   4.308   0.690
   39c3c     HC  401   5.856   4.396   0.656
   39c3c     HC  402   6.011   4.337   0.720
   39c3c     HC  403   5.860   4.265   0.776
   40c3c     N4  404   2.459   1.198   0.667
   40c3c     C1  405   2.461   1.240   0.525
   40c3c     C1  406   2.597   1.178   0.715
   40c3c     C2  407   2.607   1.239   0.478
   40c3c     C2  408   2.693   1.200   0.597
   40c3c     C1  409   2.397   1.304   0.746
   40c3c     C1  410   2.382   1.074   0.682
   40c3c     H1  411   2.417   1.339   0.511
   40c3c     H1  412   2.400   1.177   0.461
   40c3c     H1  413   2.623   1.245   0.797
   40c3c     H1  414   2.614   1.080   0.758
   40c3c     HC  415   2.634   1.338   0.441
   40c3c     HC  416   2.620   1.169   0.395
   40c3c     HC  417   2.764   1.279   0.622
   40c3c     HC  418   2.750   1.110   0.576
   40c3c     H1  419   2.295   1.323   0.714
   40c3c     H1  420   2.394   1.278   0.852
   40c3c     H1  421   2.452   1.397   0.737
   40c3c     H1  422   2.377   1.046   0.787
   40c3c     H1  423   2.279   1.090   0.651
   40c3c     C2  424   2.442   0.957   0.601
   40c3c     HC  425   2.545   0.935   0.630
   40c3c     HC  426   2.447   0.979   0.494
   40c3c     CT  427   2.361   0.831   0.618
   40c3c     HC  428   2.259   0.847   0.583
   40c3c     HC  429   2.359   0.802   0.723
   40c3c     HC  430   2.406   0.751   0.560
   41c3c     N4  431   5.074   5.826   4.122
   41c3c     C1  432   4.946   5.900   4.132
   41c3c     C1  433   5.187   5.920   4.133
   41c3c     C2  434   4.978   6.049   4.141
   41c3c     C2  435   5.130   6.062   4.142
   41c3c     C1  436   5.081   5.730   4.233
   41c3c     C1  437   5.081   5.752   3.995
   41c3c     H1  438   4.886   5.868   4.217
   41c3c     H1  439   4.879   5.880   4.048
   41c3c     H1  440   5.250   5.899   4.220
   41c3c     H1  441   5.257   5.912   4.051
   41c3c     HC  442   4.935   6.090   4.232
   41c3c     HC  443   4.935   6.103   4.057
   41c3c     HC  444   5.165   6.110   4.234
   41c3c     HC  445   5.165   6.122   4.058
   41c3c     H1  446   4.999   5.659   4.231
   41c3c     H1  447   5.174   5.673   4.232
   41c3c     H1  448   5.075   5.782   4.329
   41c3c     H1  449   5.173   5.694   3.991
   41c3c     H1  450   5.000   5.680   3.990
   41c3c     C2  451   5.074   5.847   3.873
   41c3c     HC  452   5.154   5.920   3.872
   41c3c     HC  453   4.982   5.905   3.871
   41c3c     CT  454   5.081   5.769   3.743
   41c3c     HC  455   4.998   5.700   3.737
   41c3c     HC  456   5.175   5.714   3.738
   41c3c     HC  457   5.076   5.839   3.659
   42c3c     N4  458   2.463   2.194   3.165
   42c3c     C1  459   2.416   2.114   3.280
   42c3c     C1  460   2.354   2.207   3.066
   42c3c     C2  461   2.274   2.066   3.250
   42c3c     C2  462   2.235   2.124   3.114
   42c3c     C1  463   2.499   2.328   3.212
   42c3c     C1  464   2.581   2.132   3.103
   42c3c     H1  465   2.418   2.170   3.373
   42c3c     H1  466   2.480   2.029   3.301
   42c3c     H1  467   2.324   2.310   3.050
   42c3c     H1  468   2.383   2.175   2.966
   42c3c     HC  469   2.207   2.100   3.328
   42c3c     HC  470   2.270   1.957   3.248
   42c3c     HC  471   2.148   2.189   3.124
   42c3c     HC  472   2.211   2.045   3.044
   42c3c     H1  473   2.578   2.325   3.287
   42c3c     H1  474   2.532   2.392   3.131
   42c3c     H1  475   2.413   2.377   3.258
   42c3c     H1  476   2.617   2.193   3.021
   42c3c     H1  477   2.662   2.127   3.176
   42c3c     C2  478   2.551   1.989   3.050
   42c3c     HC  479   2.471   1.989   2.976
   42c3c     HC  480   2.515   1.922   3.129
   42c3c     CT  481   2.673   1.927   2.988
   42c3c     HC  482   2.753   1.919   3.062
   42c3c     HC  483   2.707   1.987   2.904
   42c3c     HC  484   2.648   1.827   2.952
   43c3c     N4  485   3.129   2.784   2.941
   43c3c     C1  486   3.183   2.698   2.834
   43c3c     C1  487   3.211   2.769   3.063
   43c3c     C2  488   3.299   2.617   2.891
   43c3c     C2  489   3.317   2.662   3.036
   43c3c     C1  490   3.136   2.923   2.897
   43c3c     C1  491   2.989   2.749   2.969
   43c3c     H1  492   3.215   2.755   2.747
   43c3c     H1  493   3.108   2.631   2.791
   43c3c     H1  494   3.258   2.862   3.093
   43c3c     H1  495   3.152   2.743   3.151
   43c3c     HC  496   3.389   2.636   2.833
   43c3c     HC  497   3.279   2.510   2.886
   43c3c     HC  498   3.416   2.704   3.052
   43c3c     HC  499   3.306   2.578   3.105
   43c3c     H1  500   3.078   2.940   2.807
   43c3c     H1  501   3.098   2.992   2.973
   43c3c     H1  502   3.239   2.952   2.876
   43c3c     H1  503   2.948   2.816   3.045
   43c3c     H1  504   2.928   2.765   2.880
   43c3c     C2  505   2.973   2.603   3.017
   43c3c     HC  506   3.030   2.582   3.107
   43c3c     HC  507   3.010   2.531   2.943
   43c3c     CT  508   2.829   2.569   3.045
   43c3c     HC  509   2.769   2.582   2.955
   43c3c     HC  510   2.790   2.634   3.123
   43c3c     HC  511   2.821   2.465   3.078
   44c3c     N4  512   2.427   5.023   3.411
   44c3c     C1  513   2.529   4.931   3.466
   44c3c     C1  514   2.489   5.153   3.381
   44c3c     C2  515   2.660   5.008   3.480
   44c3c     C2  516   2.635   5.148   3.426
   44c3c     C1  517   2.375   4.966   3.287
   44c3c     C1  518   2.317   5.040   3.507
   44c3c     H1  519   2.543   4.843   3.404
   44c3c     H1  520   2.500   4.888   3.562
   44c3c     H1  521   2.483   5.179   3.275
   44c3c     H1  522   2.438   5.237   3.429
   44c3c     HC  523   2.739   4.958   3.423
   44c3c     HC  524   2.693   5.011   3.584
   44c3c     HC  525   2.701   5.170   3.342
   44c3c     HC  526   2.655   5.223   3.503
   44c3c     H1  527   2.329   4.869   3.304
   44c3c     H1  528   2.300   5.031   3.242
   44c3c     H1  529   2.455   4.953   3.214
   44c3c     H1  530   2.240   5.104   3.464
   44c3c     H1  531   2.269   4.944   3.525
   44c3c     C2  532   2.365   5.099   3.641
   44c3c     HC  533   2.412   5.197   3.629
   44c3c     HC  534   2.440   5.037   3.690
   44c3c     CT  535   2.250   5.116   3.738
   44c3c     HC  536   2.204   5.019   3.759
   44c3c     HC  537   2.175   5.183   3.696
   44c3c     HC  538   2.287   5.158   3.831
   45c3c     N4  539   5.059   3.080   3.161
   45c3c     C1  540   5.101   3.150   3.284
   45c3c     C1  541   5.066   2.934   3.183
   45c3c     C2  542   5.145   3.046   3.387
   45c3c     C2  543   5.123   2.909   3.323
   45c3c     C1  544   4.920   3.116   3.131
   45c3c     C1  545   5.144   3.119   3.048
   45c3c     H1  546   5.021   3.213   3.325
   45c3c     H1  547   5.181   3.222   3.266
   45c3c     H1  548   4.969   2.886   3.173
   45c3c     H1  549   5.126   2.883   3.108
   45c3c     HC  550   5.086   3.057   3.478
   45c3c     HC  551   5.249   3.060   3.414
   45c3c     HC  552   5.052   2.850   3.381
   45c3c     HC  553   5.216   2.854   3.317
   45c3c     H1  554   4.909   3.223   3.116
   45c3c     H1  555   4.884   3.066   3.042
   45c3c     H1  556   4.855   3.089   3.214
   45c3c     H1  557   5.110   3.070   2.957
   45c3c     H1  558   5.135   3.226   3.029
   45c3c     C2  559   5.293   3.083   3.072
   45c3c     HC  560   5.308   2.977   3.089
   45c3c     HC  561   5.333   3.132   3.161
   45c3c     CT  562   5.379   3.124   2.955
   45c3c     HC  563   5.372   3.231   2.939
   45c3c     HC  564   5.346   3.072   2.865
   45c3c     HC  565   5.482   3.097   2.975
   46c3c     N4  566   3.181   1.046   3.501
   46c3c     C1  567   3.285   1.150   3.516
   46c3c     C1  568   3.245   0.913   3.495
   46c3c     C2  569   3.422   1.083   3.510
   46c3c     C2  570   3.397   0.933   3.497
   46c3c     C1  571   3.093   1.050   3.618
   46c3c     C1  572   3.102   1.070   3.380
   46c3c     H1  573   3.274   1.206   3.608
   46c3c     H1  574   3.278   1.228   3.440
   46c3c     H1  575   3.214   0.848   3.576
   46c3c     H1  576   3.216   0.856   3.406
   46c3c     HC  577   3.477   1.105   3.601
   46c3c     HC  578   3.480   1.120   3.426
   46c3c     HC  579   3.439   0.878   3.581
   46c3c     HC  580   3.442   0.894   3.406
   46c3c     H1  581   3.044   1.147   3.628
   46c3c     H1  582   3.016   0.974   3.612
   46c3c     H1  583   3.150   1.032   3.709
   46c3c     H1  584   3.023   0.995   3.372
   46c3c     H1  585   3.051   1.166   3.387
   46c3c     C2  586   3.188   1.067   3.251
   46c3c     HC  587   3.239   0.972   3.238
   46c3c     HC  588   3.268   1.142   3.253
   46c3c     CT  589   3.104   1.092   3.128
   46c3c     HC  590   3.057   1.190   3.134
   46c3c     HC  591   3.028   1.015   3.119
   46c3c     HC  592   3.168   1.089   3.040
   47c3c     N4  593   3.147   2.115   3.296
   47c3c     C1  594   3.043   2.012   3.277
   47c3c     C1  595   3.281   2.051   3.295
   47c3c     C2  596   3.112   1.875   3.273
   47c3c     C2  597   3.262   1.900   3.284
   47c3c     C1  598   3.140   2.209   3.184
   47c3c     C1  599   3.126   2.187   3.422
   47c3c     H1  600   2.985   2.027   3.186
   47c3c     H1  601   2.967   2.013   3.355
   47c3c     H1  602   3.344   2.087   3.214
   47c3c     H1  603   3.340   2.075   3.383
   47c3c     HC  604   3.088   1.825   3.179
   47c3c     HC  605   3.077   1.811   3.354
   47c3c     HC  606   3.314   1.862   3.196
   47c3c     HC  607   3.303   1.849   3.371
   47c3c     H1  608   3.043   2.258   3.179
   47c3c     H1  609   3.216   2.287   3.193
   47c3c     H1  610   3.156   2.158   3.090
   47c3c     H1  611   3.200   2.266   3.433
   47c3c     H1  612   3.029   2.237   3.420
   47c3c     C2  613   3.132   2.093   3.545
   47c3c     HC  614   3.228   2.042   3.553
   47c3c     HC  615   3.058   2.013   3.540
   47c3c     CT  616   3.110   2.169   3.673
   47c3c     HC  617   3.012   2.216   3.672
   47c3c     HC  618   3.186   2.246   3.685
   47c3c     HC  619   3.115   2.100   3.757
   48c3c     N4  620   1.685   2.112   2.449
   48c3c     C1  621   1.784   2.009   2.412
   48c3c     C1  622   1.622   2.076   2.577
   48c3c     C2  623   1.779   1.898   2.517
   48c3c     C2  624   1.676   1.940   2.621
   48c3c     C1  625   1.754   2.240   2.464
   48c3c     C1  626   1.583   2.125   2.344
   48c3c     H1  627   1.885   2.049   2.405
   48c3c     H1  628   1.768   1.968   2.312
   48c3c     H1  629   1.640   2.151   2.654
   48c3c     H1  630   1.513   2.073   2.572
   48c3c     HC  631   1.877   1.885   2.562
   48c3c     HC  632   1.751   1.803   2.471
   48c3c     HC  633   1.722   1.949   2.720
   48c3c     HC  634   1.596   1.867   2.629
   48c3c     H1  635   1.804   2.271   2.372
   48c3c     H1  636   1.685   2.320   2.493
   48c3c     H1  637   1.830   2.234   2.542
   48c3c     H1  638   1.513   2.204   2.369
   48c3c     H1  639   1.630   2.155   2.250
   48c3c     C2  640   1.506   1.993   2.321
   48c3c     HC  641   1.455   1.959   2.411
   48c3c     HC  642   1.571   1.910   2.293
   48c3c     CT  643   1.402   2.008   2.213
   48c3c     HC  644   1.449   2.035   2.119
   48c3c     HC  645   1.330   2.085   2.240
   48c3c     HC  646   1.349   1.913   2.200
   49c3c     N4  647   2.062   3.580   1.485
   49c3c     C1  648   1.985   3.459   1.449
   49c3c     C1  649   2.201   3.566   1.437
   49c3c     C2  650   2.080   3.360   1.382
   49c3c     C2  651   2.217   3.428   1.375
   49c3c     C1  652   2.001   3.696   1.420
   49c3c     C1  653   2.060   3.600   1.631
   49c3c     H1  654   1.901   3.481   1.383
   49c3c     H1  655   1.936   3.412   1.534
   49c3c     H1  656   2.227   3.644   1.365
   49c3c     H1  657   2.275   3.581   1.516
   49c3c     HC  658   2.043   3.335   1.283
   49c3c     HC  659   2.086   3.267   1.439
   49c3c     HC  660   2.250   3.438   1.272
   49c3c     HC  661   2.292   3.370   1.428
   49c3c     H1  662   1.897   3.709   1.451
   49c3c     H1  663   2.055   3.788   1.443
   49c3c     H1  664   2.001   3.684   1.312
   49c3c     H1  665   2.112   3.692   1.657
   49c3c     H1  666   1.957   3.614   1.665
   49c3c     C2  667   2.123   3.481   1.707
   49c3c     HC  668   2.227   3.463   1.678
   49c3c     HC  669   2.072   3.387   1.687
   49c3c     CT  670   2.120   3.503   1.856
   49c3c     HC  671   2.017   3.514   1.890
   49c3c     HC  672   2.176   3.593   1.882
   49c3c     HC  673   2.165   3.418   1.907
   50c3c     N4  674   4.683   2.135   5.616
   50c3c     C1  675   4.684   1.995   5.662
   50c3c     C1  676   4.552   2.167   5.556
   50c3c     C2  677   4.551   1.931   5.622
   50c3c     C2  678   4.468   2.039   5.555
   50c3c     C1  679   4.704   2.223   5.732
   50c3c     C1  680   4.791   2.158   5.519
   50c3c     H1  681   4.700   1.987   5.770
   50c3c     H1  682   4.768   1.938   5.622
   50c3c     H1  683   4.500   2.246   5.609
   50c3c     H1  684   4.561   2.207   5.455
   50c3c     HC  685   4.501   1.892   5.711
   50c3c     HC  686   4.568   1.847   5.555
   50c3c     HC  687   4.375   2.056   5.609
   50c3c     HC  688   4.442   2.011   5.453
   50c3c     H1  689   4.799   2.203   5.780
   50c3c     H1  690   4.703   2.328   5.703
   50c3c     H1  691   4.625   2.208   5.806
   50c3c     H1  692   4.793   2.263   5.489
   50c3c     H1  693   4.888   2.140   5.565
   50c3c     C2  694   4.776   2.069   5.393
   50c3c     HC  695   4.682   2.086   5.341
   50c3c     HC  696   4.777   1.963   5.418
   50c3c     CT  697   4.887   2.094   5.295
   50c3c     HC  698   4.984   2.072   5.341
   50c3c     HC  699   4.887   2.198   5.262
   50c3c     HC  700   4.874   2.030   5.208
   51c3c     N4  701   4.386   2.541   2.683
   51c3c     C1  702   4.421   2.579   2.821
   51c3c     C1  703   4.396   2.660   2.595
   51c3c     C2  704   4.445   2.730   2.825
   51c3c     C2  705   4.429   2.781   2.682
   51c3c     C1  706   4.482   2.441   2.636
   51c3c     C1  707   4.251   2.484   2.678
   51c3c     H1  708   4.509   2.526   2.858
   51c3c     H1  709   4.344   2.551   2.893
   51c3c     H1  710   4.470   2.648   2.516
   51c3c     H1  711   4.305   2.678   2.538
   51c3c     HC  712   4.545   2.750   2.862
   51c3c     HC  713   4.375   2.779   2.892
   51c3c     HC  714   4.521   2.827   2.646
   51c3c     HC  715   4.350   2.856   2.676
   51c3c     H1  716   4.480   2.351   2.698
   51c3c     H1  717   4.462   2.410   2.533
   51c3c     H1  718   4.584   2.481   2.638
   51c3c     H1  719   4.228   2.452   2.576
   51c3c     H1  720   4.246   2.394   2.738
   51c3c     C2  721   4.143   2.585   2.725
   51c3c     HC  722   4.143   2.676   2.666
   51c3c     HC  723   4.161   2.618   2.828
   51c3c     CT  724   4.005   2.525   2.719
   51c3c     HC  725   4.000   2.436   2.783
   51c3c     HC  726   3.981   2.496   2.617
   51c3c     HC  727   3.932   2.598   2.754
   52c3c     N4  728   3.165   3.763   3.814
   52c3c     C1  729   3.048   3.765   3.903
   52c3c     C1  730   3.173   3.634   3.744
   52c3c     C2  731   2.981   3.628   3.898
   52c3c     C2  732   3.060   3.544   3.797
   52c3c     C1  733   3.149   3.869   3.714
   52c3c     C1  734   3.288   3.787   3.890
   52c3c     H1  735   2.976   3.843   3.876
   52c3c     H1  736   3.073   3.791   4.006
   52c3c     H1  737   3.165   3.644   3.636
   52c3c     H1  738   3.269   3.584   3.756
   52c3c     HC  739   2.877   3.638   3.866
   52c3c     HC  740   2.981   3.580   3.996
   52c3c     HC  741   2.997   3.512   3.715
   52c3c     HC  742   3.101   3.455   3.844
   52c3c     H1  743   3.142   3.968   3.760
   52c3c     H1  744   3.233   3.872   3.644
   52c3c     H1  745   3.058   3.854   3.656
   52c3c     H1  746   3.374   3.791   3.823
   52c3c     H1  747   3.284   3.885   3.938
   52c3c     C2  748   3.312   3.679   3.998
   52c3c     HC  749   3.319   3.579   3.956
   52c3c     HC  750   3.230   3.674   4.070
   52c3c     CT  751   3.439   3.705   4.076
   52c3c     HC  752   3.432   3.802   4.126
   52c3c     HC  753   3.524   3.705   4.009
   52c3c     HC  754   3.452   3.628   4.151
   53c3c     N4  755   3.514   5.106   1.060
   53c3c     C1  756   3.503   5.253   1.056
   53c3c     C1  757   3.379   5.046   1.057
   53c3c     C2  758   3.355   5.290   1.060
   53c3c     C2  759   3.276   5.159   1.061
   53c3c     C1  760   3.587   5.061   0.941
   53c3c     C1  761   3.586   5.062   1.180
   53c3c     H1  762   3.550   5.296   0.968
   53c3c     H1  763   3.556   5.302   1.138
   53c3c     H1  764   3.362   4.984   0.969
   53c3c     H1  765   3.361   4.977   1.139
   53c3c     HC  766   3.330   5.350   0.973
   53c3c     HC  767   3.332   5.350   1.149
   53c3c     HC  768   3.211   5.153   0.974
   53c3c     HC  769   3.214   5.152   1.150
   53c3c     H1  770   3.687   5.104   0.937
   53c3c     H1  771   3.596   4.953   0.937
   53c3c     H1  772   3.535   5.092   0.850
   53c3c     H1  773   3.598   4.954   1.179
   53c3c     H1  774   3.688   5.103   1.179
   53c3c     C2  775   3.515   5.106   1.310
   53c3c     HC  776   3.414   5.066   1.317
   53c3c     HC  777   3.503   5.214   1.317
   53c3c     CT  778   3.592   5.060   1.432
   53c3c     HC  779   3.691   5.104   1.432
   53c3c     HC  780   3.600   4.952   1.433
   53c3c     HC  781   3.539   5.093   1.522
   54c3c     N4  782   0.497   1.938   3.777
   54c3c     C1  783   0.504   1.817   3.862
   54c3c     C1  784   0.356   1.977   3.758
   54c3c     C2  785   0.362   1.771   3.891
   54c3c     C2  786   0.268   1.872   3.825
   54c3c     C1  787   0.566   2.048   3.846
   54c3c     C1  788   0.561   1.914   3.648
   54c3c     H1  789   0.558   1.835   3.955
   54c3c     H1  790   0.561   1.737   3.816
   54c3c     H1  791   0.334   2.076   3.798
   54c3c     H1  792   0.329   1.987   3.653
   54c3c     HC  793   0.346   1.767   3.999
   54c3c     HC  794   0.345   1.671   3.852
   54c3c     HC  795   0.204   1.919   3.900
   54c3c     HC  796   0.203   1.823   3.753
   54c3c     H1  797   0.671   2.024   3.864
   54c3c     H1  798   0.563   2.140   3.788
   54c3c     H1  799   0.521   2.068   3.943
   54c3c     H1  800   0.560   2.005   3.588
   54c3c     H1  801   0.667   1.890   3.662
   54c3c     C2  802   0.493   1.800   3.569
   54c3c     HC  803   0.388   1.820   3.549
   54c3c     HC  804   0.495   1.705   3.623
   54c3c     CT  805   0.561   1.776   3.436
   54c3c     HC  806   0.666   1.749   3.451
   54c3c     HC  807   0.556   1.867   3.375
   54c3c     HC  808   0.511   1.695   3.383
   55c3c     N4  809   3.553   2.576   2.413
   55c3c     C1  810   3.693   2.534   2.396
   55c3c     C1  811   3.465   2.458   2.414
   55c3c     C2  812   3.695   2.382   2.377
   55c3c     C2  813   3.550   2.334   2.388
   55c3c     C1  814   3.540   2.645   2.542
   55c3c     C1  815   3.514   2.668   2.305
   55c3c     H1  816   3.756   2.562   2.481
   55c3c     H1  817   3.742   2.583   2.312
   55c3c     H1  818   3.410   2.447   2.508
   55c3c     H1  819   3.385   2.464   2.340
   55c3c     HC  820   3.757   2.336   2.453
   55c3c     HC  821   3.737   2.356   2.280
   55c3c     HC  822   3.539   2.263   2.470
   55c3c     HC  823   3.519   2.284   2.297
   55c3c     H1  824   3.604   2.733   2.546
   55c3c     H1  825   3.437   2.678   2.559
   55c3c     H1  826   3.568   2.579   2.623
   55c3c     H1  827   3.411   2.703   2.320
   55c3c     H1  828   3.576   2.758   2.307
   55c3c     C2  829   3.525   2.602   2.166
   55c3c     HC  830   3.462   2.513   2.156
   55c3c     HC  831   3.626   2.568   2.144
   55c3c     CT  832   3.484   2.698   2.057
   55c3c     HC  833   3.549   2.786   2.057
   55c3c     HC  834   3.381   2.730   2.071
   55c3c     HC  835   3.493   2.649   1.960
   56c3c     N4  836   4.228   1.080   3.100
   56c3c     C1  837   4.111   1.170   3.093
   56c3c     C1  838   4.283   1.080   3.237
   56c3c     C2  839   4.096   1.238   3.229
   56c3c     C2  840   4.204   1.181   3.320
   56c3c     C1  841   4.185   0.944   3.067
   56c3c     C1  842   4.331   1.122   3.003
   56c3c     H1  843   4.020   1.117   3.066
   56c3c     H1  844   4.119   1.245   3.014
   56c3c     H1  845   4.280   0.982   3.283
   56c3c     H1  846   4.390   1.104   3.240
   56c3c     HC  847   3.996   1.217   3.269
   56c3c     HC  848   4.105   1.346   3.219
   56c3c     HC  849   4.161   1.131   3.407
   56c3c     HC  850   4.269   1.261   3.357
   56c3c     H1  851   4.142   0.938   2.967
   56c3c     H1  852   4.267   0.873   3.072
   56c3c     H1  853   4.108   0.910   3.137
   56c3c     H1  854   4.415   1.053   3.005
   56c3c     H1  855   4.291   1.117   2.902
   56c3c     C2  856   4.382   1.265   3.031
   56c3c     HC  857   4.425   1.275   3.131
   56c3c     HC  858   4.302   1.339   3.028
   56c3c     CT  859   4.487   1.306   2.931
   56c3c     HC  860   4.446   1.304   2.831
   56c3c     HC  861   4.572   1.238   2.936
   56c3c     HC  862   4.521   1.407   2.954
   57c3c     N4  863   6.002   0.611   3.356
   57c3c     C1  864   6.110   0.655   3.445
   57c3c     C1  865   5.956   0.725   3.274
   57c3c     C2  866   6.129   0.806   3.428
   57c3c     C2  867   6.031   0.850   3.319
   57c3c     C1  868   6.054   0.508   3.266
   57c3c     C1  869   5.890   0.555   3.433
   57c3c     H1  870   6.204   0.603   3.426
   57c3c     H1  871   6.091   0.631   3.550
   57c3c     H1  872   5.970   0.709   3.167
   57c3c     H1  873   5.848   0.742   3.281
   57c3c     HC  874   6.232   0.827   3.398
   57c3c     HC  875   6.111   0.858   3.521
   57c3c     HC  876   6.084   0.894   3.235
   57c3c     HC  877   5.963   0.925   3.358
   57c3c     H1  878   6.092   0.421   3.321
   57c3c     H1  879   5.979   0.473   3.196
   57c3c     H1  880   6.137   0.547   3.207
   57c3c     H1  881   5.813   0.519   3.366
   57c3c     H1  882   5.924   0.468   3.489
   57c3c     C2  883   5.829   0.659   3.531
   57c3c     HC  884   5.792   0.747   3.479
   57c3c     HC  885   5.903   0.697   3.602
   57c3c     CT  886   5.715   0.599   3.610
   57c3c     HC  887   5.750   0.515   3.668
   57c3c     HC  888   5.636   0.566   3.542
   57c3c     HC  889   5.675   0.675   3.677
   58c3c     N4  890   3.578   2.482   3.713
   58c3c     C1  891   3.654   2.358   3.695
   58c3c     C1  892   3.668   2.591   3.754
   58c3c     C2  893   3.800   2.385   3.734
   58c3c     C2  894   3.808   2.533   3.772
   58c3c     C1  895   3.516   2.518   3.585
   58c3c     C1  896   3.472   2.463   3.813
   58c3c     H1  897   3.650   2.320   3.593
   58c3c     H1  898   3.615   2.274   3.753
   58c3c     H1  899   3.671   2.673   3.682
   58c3c     H1  900   3.637   2.641   3.846
   58c3c     HC  901   3.866   2.362   3.650
   58c3c     HC  902   3.830   2.322   3.818
   58c3c     HC  903   3.879   2.585   3.707
   58c3c     HC  904   3.843   2.545   3.874
   58c3c     H1  905   3.449   2.440   3.549
   58c3c     H1  906   3.459   2.611   3.593
   58c3c     H1  907   3.593   2.533   3.509
   58c3c     H1  908   3.413   2.554   3.823
   58c3c     H1  909   3.403   2.386   3.780
   58c3c     C2  910   3.529   2.425   3.952
   58c3c     HC  911   3.598   2.500   3.991
   58c3c     HC  912   3.588   2.333   3.948
   58c3c     CT  913   3.419   2.406   4.053
   58c3c     HC  914   3.352   2.326   4.022
   58c3c     HC  915   3.363   2.498   4.065
   58c3c     HC  916   3.463   2.379   4.149
   59c3c     N4  917   0.658   1.195   5.526
   59c3c     C1  918   0.734   1.310   5.475
   59c3c     C1  919   0.736   1.071   5.508
   59c3c     C2  920   0.864   1.257   5.413
   59c3c     C2  921   0.864   1.106   5.433
   59c3c     C1  922   0.634   1.214   5.670
   59c3c     C1  923   0.528   1.185   5.457
   59c3c     H1  924   0.757   1.383   5.553
   59c3c     H1  925   0.679   1.369   5.402
   59c3c     H1  926   0.759   1.022   5.602
   59c3c     H1  927   0.681   0.994   5.454
   59c3c     HC  928   0.950   1.304   5.461
   59c3c     HC  929   0.869   1.282   5.307
   59c3c     HC  930   0.951   1.075   5.492
   59c3c     HC  931   0.870   1.054   5.338
   59c3c     H1  932   0.578   1.306   5.689
   59c3c     H1  933   0.579   1.131   5.713
   59c3c     H1  934   0.729   1.222   5.723
   59c3c     H1  935   0.470   1.103   5.499
   59c3c     H1  936   0.470   1.275   5.475
   59c3c     C2  937   0.545   1.164   5.305
   59c3c     HC  938   0.601   1.074   5.281
   59c3c     HC  939   0.600   1.245   5.258
   59c3c     CT  940   0.411   1.154   5.236
   59c3c     HC  941   0.354   1.245   5.252
   59c3c     HC  942   0.355   1.069   5.276
   59c3c     HC  943   0.426   1.139   5.129
   60c3c     N4  944   4.631   5.212   6.058
   60c3c     C1  945   4.614   5.236   5.914
   60c3c     C1  946   4.706   5.087   6.079
   60c3c     C2  947   4.672   5.116   5.838
   60c3c     C2  948   4.730   5.022   5.943
   60c3c     C1  949   4.709   5.323   6.114
   60c3c     C1  950   4.501   5.206   6.125
   60c3c     H1  951   4.661   5.328   5.880
   60c3c     H1  952   4.510   5.251   5.885
   60c3c     H1  953   4.801   5.103   6.131
   60c3c     H1  954   4.655   5.017   6.145
   60c3c     HC  955   4.749   5.150   5.769
   60c3c     HC  956   4.595   5.066   5.779
   60c3c     HC  957   4.837   5.008   5.927
   60c3c     HC  958   4.683   4.924   5.937
   60c3c     H1  959   4.658   5.419   6.100
   60c3c     H1  960   4.726   5.310   6.221
   60c3c     H1  961   4.806   5.330   6.066
   60c3c     H1  962   4.514   5.193   6.233
   60c3c     H1  963   4.448   5.301   6.113
   60c3c     C2  964   4.413   5.091   6.071
   60c3c     HC  965   4.460   4.993   6.083
   60c3c     HC  966   4.394   5.100   5.964
   60c3c     CT  967   4.279   5.086   6.141
   60c3c     HC  968   4.225   5.180   6.126
   60c3c     HC  969   4.293   5.070   6.248
   60c3c     HC  970   4.220   5.004   6.100
   61c3c     N4  971   2.218   1.596   3.989
   61c3c     C1  972   2.325   1.496   4.008
   61c3c     C1  973   2.216   1.641   3.849
   61c3c     C2  974   2.401   1.483   3.876
   61c3c     C2  975   2.332   1.574   3.775
   61c3c     C1  976   2.090   1.533   4.021
   61c3c     C1  977   2.239   1.710   4.079
   61c3c     H1  978   2.287   1.400   4.040
   61c3c     H1  979   2.394   1.522   4.088
   61c3c     H1  980   2.121   1.618   3.799
   61c3c     H1  981   2.222   1.749   3.839
   61c3c     HC  982   2.398   1.379   3.842
   61c3c     HC  983   2.506   1.510   3.888
   61c3c     HC  984   2.294   1.517   3.690
   61c3c     HC  985   2.401   1.649   3.736
   61c3c     H1  986   2.086   1.497   4.123
   61c3c     H1  987   2.007   1.602   4.008
   61c3c     H1  988   2.072   1.447   3.955
   61c3c     H1  989   2.156   1.781   4.069
   61c3c     H1  990   2.235   1.677   4.183
   61c3c     C2  991   2.373   1.783   4.052
   61c3c     HC  992   2.380   1.820   3.950
   61c3c     HC  993   2.459   1.716   4.064
   61c3c     CT  994   2.392   1.900   4.146
   61c3c     HC  995   2.392   1.865   4.249
   61c3c     HC  996   2.311   1.972   4.132
   61c3c     HC  997   2.487   1.948   4.124
   62c3c     N4  998   0.914   1.864   1.682
   62c3c     C1  999   0.911   1.717   1.689
   62c3c     C1 1000   0.776   1.915   1.667
   62c3c     C2 1001   0.767   1.670   1.670
   62c3c     C2 1002   0.681   1.796   1.656
   62c3c     C1 1003   0.970   1.916   1.807
   62c3c     C1 1004   0.997   1.908   1.569
   62c3c     H1 1005   0.951   1.679   1.784
   62c3c     H1 1006   0.976   1.669   1.616
   62c3c     H1 1007   0.746   1.980   1.750
   62c3c     H1 1008   0.764   1.981   1.581
   62c3c     HC 1009   0.735   1.611   1.756
   62c3c     HC 1010   0.758   1.607   1.581
   62c3c     HC 1011   0.606   1.801   1.735
   62c3c     HC 1012   0.629   1.797   1.561
   62c3c     H1 1013   1.072   1.880   1.823
   62c3c     H1 1014   0.973   2.025   1.807
   62c3c     H1 1015   0.910   1.884   1.892
   62c3c     H1 1016   1.002   2.017   1.567
   62c3c     H1 1017   1.100   1.874   1.583
   62c3c     C2 1018   0.944   1.857   1.434
   62c3c     HC 1019   0.842   1.891   1.414
   62c3c     HC 1020   0.939   1.748   1.429
   62c3c     CT 1021   1.031   1.903   1.319
   62c3c     HC 1022   1.132   1.866   1.332
   62c3c     HC 1023   1.033   2.012   1.316
   62c3c     HC 1024   0.990   1.866   1.225
   63c3c     N4 1025   2.927   0.471   1.477
   63c3c     C1 1026   3.030   0.370   1.508
   63c3c     C1 1027   2.818   0.463   1.575
   63c3c     C2 1028   2.982   0.288   1.627
   63c3c     C2 1029   2.847   0.346   1.670
   63c3c     C1 1030   2.988   0.604   1.484
   63c3c     C1 1031   2.875   0.450   1.341
   63c3c     H1 1032   3.127   0.415   1.530
   63c3c     H1 1033   3.054   0.305   1.424
   63c3c     H1 1034   2.806   0.555   1.632
   63c3c     H1 1035   2.720   0.450   1.530
   63c3c     HC 1036   3.054   0.294   1.708
   63c3c     HC 1037   2.971   0.183   1.600
   63c3c     HC 1038   2.851   0.382   1.773
   63c3c     HC 1039   2.769   0.271   1.665
   63c3c     H1 1040   3.070   0.615   1.414
   63c3c     H1 1041   2.916   0.683   1.463
   63c3c     H1 1042   3.028   0.622   1.584
   63c3c     H1 1043   2.803   0.528   1.316
   63c3c     H1 1044   2.956   0.460   1.268
   63c3c     C2 1045   2.809   0.311   1.325
   63c3c     HC 1046   2.726   0.296   1.394
   63c3c     HC 1047   2.878   0.229   1.345
   63c3c     CT 1048   2.756   0.291   1.185
   63c3c     HC 1049   2.837   0.298   1.113
   63c3c     HC 1050   2.681   0.367   1.162
   63c3c     HC 1051   2.710   0.192   1.177
   64c3c     N4 1052   2.554   0.495   3.092
   64c3c     C1 1053   2.661   0.596   3.092
   64c3c     C1 1054   2.557   0.420   2.965
   64c3c     C2 1055   2.730   0.592   2.956
   64c3c     C2 1056   2.665   0.481   2.876
   64c3c     C1 1057   2.577   0.401   3.202
   64c3c     C1 1058   2.423   0.559   3.110
   64c3c     H1 1059   2.733   0.580   3.172
   64c3c     H1 1060   2.624   0.697   3.113
   64c3c     H1 1061   2.576   0.313   2.980
   64c3c     H1 1062   2.461   0.419   2.913
   64c3c     HC 1063   2.837   0.573   2.970
   64c3c     HC 1064   2.721   0.688   2.905
   64c3c     HC 1065   2.738   0.404   2.848
   64c3c     HC 1066   2.622   0.519   2.783
   64c3c     H1 1067   2.577   0.452   3.299
   64c3c     H1 1068   2.501   0.323   3.206
   64c3c     H1 1069   2.674   0.352   3.191
   64c3c     H1 1070   2.344   0.483   3.114
   64c3c     H1 1071   2.419   0.610   3.206
   64c3c     C2 1072   2.390   0.659   2.997
   64c3c     HC 1073   2.389   0.612   2.899
   64c3c     HC 1074   2.464   0.739   2.990
   64c3c     CT 1075   2.255   0.724   3.018
   64c3c     HC 1076   2.254   0.778   3.113
   64c3c     HC 1077   2.177   0.647   3.019
   64c3c     HC 1078   2.236   0.793   2.937
   65c3c     N4 1079   5.346   1.154   3.732
   65c3c     C1 1080   5.483   1.208   3.738
   65c3c     C1 1081   5.249   1.265   3.719
   65c3c     C2 1082   5.474   1.361   3.738
   65c3c     C2 1083   5.326   1.397   3.725
   65c3c     C1 1084   5.335   1.068   3.614
   65c3c     C1 1085   5.317   1.075   3.852
   65c3c     H1 1086   5.545   1.174   3.655
   65c3c     H1 1087   5.539   1.174   3.825
   65c3c     H1 1088   5.192   1.259   3.626
   65c3c     H1 1089   5.171   1.263   3.795
   65c3c     HC 1090   5.531   1.401   3.653
   65c3c     HC 1091   5.517   1.403   3.829
   65c3c     HC 1092   5.308   1.455   3.635
   65c3c     HC 1093   5.294   1.457   3.810
   65c3c     H1 1094   5.405   0.985   3.618
   65c3c     H1 1095   5.234   1.026   3.604
   65c3c     H1 1096   5.356   1.124   3.523
   65c3c     H1 1097   5.217   1.031   3.845
   65c3c     H1 1098   5.386   0.991   3.859
   65c3c     C2 1099   5.327   1.159   3.982
   65c3c     HC 1100   5.258   1.244   3.981
   65c3c     HC 1101   5.425   1.203   3.995
   65c3c     CT 1102   5.296   1.076   4.104
   65c3c     HC 1103   5.368   0.994   4.112
   65c3c     HC 1104   5.195   1.036   4.098
   65c3c     HC 1105   5.304   1.139   4.193
   66c3c     N4 1106   5.265   4.785   4.835
   66c3c     C1 1107   5.325   4.713   4.949
   66c3c     C1 1108   5.245   4.693   4.722
   66c3c     C2 1109   5.354   4.570   4.905
   66c3c     C2 1110   5.303   4.557   4.761
   66c3c     C1 1111   5.135   4.837   4.877
   66c3c     C1 1112   5.351   4.898   4.795
   66c3c     H1 1113   5.261   4.713   5.037
   66c3c     H1 1114   5.416   4.760   4.986
   66c3c     H1 1115   5.140   4.683   4.695
   66c3c     H1 1116   5.290   4.728   4.630
   66c3c     HC 1117   5.302   4.500   4.971
   66c3c     HC 1118   5.460   4.547   4.910
   66c3c     HC 1119   5.225   4.480   4.754
   66c3c     HC 1120   5.384   4.528   4.694
   66c3c     H1 1121   5.142   4.906   4.961
   66c3c     H1 1122   5.084   4.891   4.796
   66c3c     H1 1123   5.068   4.756   4.908
   66c3c     H1 1124   5.303   4.954   4.714
   66c3c     H1 1125   5.361   4.968   4.877
   66c3c     C2 1126   5.491   4.851   4.749
   66c3c     HC 1127   5.486   4.782   4.665
   66c3c     HC 1128   5.544   4.796   4.827
   66c3c     CT 1129   5.578   4.967   4.708
   66c3c     HC 1130   5.590   5.036   4.792
   66c3c     HC 1131   5.531   5.021   4.625
   66c3c     HC 1132   5.675   4.931   4.676
   67c3c     N4 1133   2.786   3.487   2.917
   67c3c     C1 1134   2.759   3.585   3.023
   67c3c     C1 1135   2.781   3.350   2.973
   67c3c     C2 1136   2.743   3.510   3.155
   67c3c     C2 1137   2.758   3.361   3.124
   67c3c     C1 1138   2.683   3.498   2.814
   67c3c     C1 1139   2.918   3.512   2.856
   67c3c     H1 1140   2.669   3.644   3.003
   67c3c     H1 1141   2.835   3.662   3.032
   67c3c     H1 1142   2.703   3.290   2.927
   67c3c     H1 1143   2.872   3.293   2.953
   67c3c     HC 1144   2.646   3.531   3.198
   67c3c     HC 1145   2.819   3.542   3.227
   67c3c     HC 1146   2.667   3.307   3.151
   67c3c     HC 1147   2.841   3.318   3.179
   67c3c     H1 1148   2.681   3.598   2.769
   67c3c     H1 1149   2.698   3.427   2.733
   67c3c     H1 1150   2.584   3.480   2.855
   67c3c     H1 1151   2.936   3.442   2.775
   67c3c     H1 1152   2.919   3.611   2.811
   67c3c     C2 1153   3.033   3.502   2.960
   67c3c     HC 1154   3.037   3.403   3.006
   67c3c     HC 1155   3.021   3.572   3.042
   67c3c     CT 1156   3.167   3.528   2.896
   67c3c     HC 1157   3.169   3.629   2.853
   67c3c     HC 1158   3.186   3.456   2.816
   67c3c     HC 1159   3.245   3.520   2.971
   68c3c     N4 1160   4.083   1.800   4.182
   68c3c     C1 1161   4.031   1.681   4.253
   68c3c     C1 1162   4.050   1.921   4.259
   68c3c     C2 1163   3.953   1.729   4.376
   68c3c     C2 1164   3.965   1.881   4.379
   68c3c     C1 1165   4.229   1.788   4.173
   68c3c     C1 1166   4.027   1.807   4.047
   68c3c     H1 1167   4.109   1.612   4.284
   68c3c     H1 1168   3.967   1.619   4.190
   68c3c     H1 1169   4.139   1.976   4.292
   68c3c     H1 1170   3.998   1.996   4.200
   68c3c     HC 1171   3.995   1.684   4.466
   68c3c     HC 1172   3.849   1.698   4.370
   68c3c     HC 1173   4.014   1.914   4.471
   68c3c     HC 1174   3.867   1.928   4.376
   68c3c     H1 1175   4.259   1.700   4.118
   68c3c     H1 1176   4.273   1.875   4.123
   68c3c     H1 1177   4.273   1.783   4.273
   68c3c     H1 1178   4.070   1.893   3.994
   68c3c     H1 1179   4.055   1.720   3.989
   68c3c     C2 1180   3.873   1.820   4.048
   68c3c     HC 1181   3.839   1.908   4.102
   68c3c     HC 1182   3.825   1.736   4.098
   68c3c     CT 1183   3.817   1.828   3.908
   68c3c     HC 1184   3.843   1.738   3.852
   68c3c     HC 1185   3.858   1.915   3.857
   68c3c     HC 1186   3.709   1.836   3.913
   69c3c     N4 1187   1.842   1.020   5.023
   69c3c     C1 1188   1.977   1.032   4.967
   69c3c     C1 1189   1.751   0.961   4.923
   69c3c     C2 1190   1.973   0.988   4.820
   69c3c     C2 1191   1.830   0.943   4.793
   69c3c     C1 1192   1.847   0.930   5.139
   69c3c     C1 1193   1.792   1.151   5.066
   69c3c     H1 1194   2.051   0.973   5.021
   69c3c     H1 1195   2.018   1.133   4.973
   69c3c     H1 1196   1.709   0.866   4.955
   69c3c     H1 1197   1.662   1.021   4.905
   69c3c     HC 1198   2.043   0.906   4.804
   69c3c     HC 1199   2.001   1.069   4.754
   69c3c     HC 1200   1.827   0.838   4.762
   69c3c     HC 1201   1.785   1.001   4.712
   69c3c     H1 1202   1.914   0.968   5.216
   69c3c     H1 1203   1.749   0.916   5.184
   69c3c     H1 1204   1.884   0.832   5.110
   69c3c     H1 1205   1.694   1.140   5.112
   69c3c     H1 1206   1.857   1.192   5.144
   69c3c     C2 1207   1.783   1.252   4.949
   69c3c     HC 1208   1.717   1.217   4.869
   69c3c     HC 1209   1.880   1.268   4.900
   69c3c     CT 1210   1.732   1.386   4.995
   69c3c     HC 1211   1.799   1.428   5.070
   69c3c     HC 1212   1.632   1.375   5.038
   69c3c     HC 1213   1.727   1.454   4.910
   70c3c     N4 1214   4.238   0.941   2.090
   70c3c     C1 1215   4.162   0.828   2.035
   70c3c     C1 1216   4.148   1.057   2.108
   70c3c     C2 1217   4.019   0.874   2.007
   70c3c     C2 1218   4.010   1.019   2.054
   70c3c     C1 1219   4.291   0.903   2.221
   70c3c     C1 1220   4.350   0.977   2.002
   70c3c     H1 1221   4.162   0.741   2.101
   70c3c     H1 1222   4.207   0.787   1.944
   70c3c     H1 1223   4.140   1.088   2.212
   70c3c     H1 1224   4.185   1.147   2.059
   70c3c     HC 1225   3.949   0.811   2.062
   70c3c     HC 1226   3.995   0.866   1.901
   70c3c     HC 1227   3.935   1.031   2.132
   70c3c     HC 1228   3.982   1.085   1.971
   70c3c     H1 1229   4.357   0.817   2.214
   70c3c     H1 1230   4.347   0.984   2.268
   70c3c     H1 1231   4.210   0.876   2.289
   70c3c     H1 1232   4.408   1.058   2.046
   70c3c     H1 1233   4.418   0.892   1.993
   70c3c     C2 1234   4.302   1.019   1.861
   70c3c     HC 1235   4.235   1.105   1.864
   70c3c     HC 1236   4.245   0.940   1.812
   70c3c     CT 1237   4.418   1.055   1.772
   70c3c     HC 1238   4.484   0.969   1.760
   70c3c     HC 1239   4.474   1.138   1.814
   70c3c     HC 1240   4.380   1.084   1.674
   71c3c     N4 1241   5.370   4.718   0.870
   71c3c     C1 1242   5.463   4.604   0.883
   71c3c     C1 1243   5.448   4.844   0.861
   71c3c     C2 1244   5.605   4.658   0.891
   71c3c     C2 1245   5.596   4.810   0.877
   71c3c     C1 1246   5.293   4.702   0.747
   71c3c     C1 1247   5.279   4.723   0.985
   71c3c     H1 1248   5.454   4.534   0.800
   71c3c     H1 1249   5.442   4.541   0.969
   71c3c     H1 1250   5.431   4.896   0.767
   71c3c     H1 1251   5.418   4.918   0.936
   71c3c     HC 1252   5.666   4.616   0.811
   71c3c     HC 1253   5.652   4.631   0.986
   71c3c     HC 1254   5.651   4.845   0.790
   71c3c     HC 1255   5.638   4.860   0.965
   71c3c     H1 1256   5.235   4.610   0.748
   71c3c     H1 1257   5.223   4.785   0.732
   71c3c     H1 1258   5.359   4.698   0.660
   71c3c     H1 1259   5.208   4.804   0.973
   71c3c     H1 1260   5.219   4.632   0.988
   71c3c     C2 1261   5.354   4.740   1.119
   71c3c     HC 1262   5.414   4.831   1.122
   71c3c     HC 1263   5.424   4.659   1.138
   71c3c     CT 1264   5.258   4.744   1.236
   71c3c     HC 1265   5.201   4.652   1.240
   71c3c     HC 1266   5.189   4.828   1.224
   71c3c     HC 1267   5.314   4.756   1.328
   72c3c     N4 1268   2.509   5.387   2.730
   72c3c     C1 1269   2.495   5.414   2.875
   72c3c     C1 1270   2.649   5.356   2.698
   72c3c     C2 1271   2.635   5.407   2.938
   72c3c     C2 1272   2.732   5.370   2.826
   72c3c     C1 1273   2.426   5.272   2.696
   72c3c     C1 1274   2.464   5.504   2.653
   72c3c     H1 1275   2.428   5.343   2.924
   72c3c     H1 1276   2.449   5.510   2.896
   72c3c     H1 1277   2.661   5.256   2.657
   72c3c     H1 1278   2.691   5.418   2.620
   72c3c     HC 1279   2.636   5.332   3.017
   72c3c     HC 1280   2.661   5.503   2.983
   72c3c     HC 1281   2.783   5.276   2.848
   72c3c     HC 1282   2.809   5.447   2.814
   72c3c     H1 1283   2.321   5.290   2.718
   72c3c     H1 1284   2.433   5.248   2.590
   72c3c     H1 1285   2.457   5.184   2.752
   72c3c     H1 1286   2.470   5.482   2.546
   72c3c     H1 1287   2.359   5.524   2.673
   72c3c     C2 1288   2.548   5.630   2.684
   72c3c     HC 1289   2.654   5.616   2.662
   72c3c     HC 1290   2.543   5.658   2.789
   72c3c     CT 1291   2.500   5.749   2.603
   72c3c     HC 1292   2.396   5.771   2.626
   72c3c     HC 1293   2.509   5.728   2.497
   72c3c     HC 1294   2.561   5.836   2.627
   73c3c     N4 1295   5.517   3.812   3.587
   73c3c     C1 1296   5.401   3.764   3.665
   73c3c     C1 1297   5.642   3.774   3.656
   73c3c     C2 1298   5.453   3.699   3.793
   73c3c     C2 1299   5.605   3.705   3.788
   73c3c     C1 1300   5.515   3.749   3.455
   73c3c     C1 1301   5.511   3.958   3.571
   73c3c     H1 1302   5.340   3.693   3.609
   73c3c     H1 1303   5.330   3.843   3.689
   73c3c     H1 1304   5.704   3.708   3.595
   73c3c     H1 1305   5.708   3.858   3.674
   73c3c     HC 1306   5.418   3.596   3.799
   73c3c     HC 1307   5.415   3.752   3.881
   73c3c     HC 1308   5.648   3.605   3.791
   73c3c     HC 1309   5.645   3.761   3.873
   73c3c     H1 1310   5.424   3.773   3.401
   73c3c     H1 1311   5.599   3.780   3.394
   73c3c     H1 1312   5.520   3.640   3.465
   73c3c     H1 1313   5.594   3.992   3.510
   73c3c     H1 1314   5.420   3.985   3.516
   73c3c     C2 1315   5.513   4.032   3.706
   73c3c     HC 1316   5.602   4.010   3.764
   73c3c     HC 1317   5.430   4.003   3.771
   73c3c     CT 1318   5.506   4.182   3.687
   73c3c     HC 1319   5.414   4.209   3.635
   73c3c     HC 1320   5.591   4.216   3.629
   73c3c     HC 1321   5.508   4.231   3.785
   74c3c     N4 1322   6.089   2.913   5.108
   74c3c     C1 1323   6.189   2.806   5.125
   74c3c     C1 1324   5.955   2.853   5.091
   74c3c     C2 1325   6.119   2.671   5.110
   74c3c     C2 1326   5.971   2.701   5.088
   74c3c     C1 1327   6.088   2.995   5.229
   74c3c     C1 1328   6.123   2.997   4.993
   74c3c     H1 1329   6.239   2.811   5.222
   74c3c     H1 1330   6.272   2.814   5.055
   74c3c     H1 1331   5.886   2.881   5.170
   74c3c     H1 1332   5.904   2.887   5.001
   74c3c     HC 1333   6.133   2.611   5.199
   74c3c     HC 1334   6.160   2.615   5.026
   74c3c     HC 1335   5.910   2.656   5.167
   74c3c     HC 1336   5.936   2.660   4.993
   74c3c     H1 1337   6.185   3.041   5.248
   74c3c     H1 1338   6.014   3.075   5.223
   74c3c     H1 1339   6.063   2.935   5.317
   74c3c     H1 1340   6.050   3.078   4.984
   74c3c     H1 1341   6.219   3.045   5.009
   74c3c     C2 1342   6.126   2.917   4.861
   74c3c     HC 1343   6.030   2.869   4.840
   74c3c     HC 1344   6.198   2.835   4.864
   74c3c     CT 1345   6.161   3.005   4.744
   74c3c     HC 1346   6.259   3.049   4.758
   74c3c     HC 1347   6.087   3.084   4.733
   74c3c     HC 1348   6.162   2.945   4.652
   75c3c     N4 1349   4.987   1.882   1.184
   75c3c     C1 1350   4.953   2.021   1.222
   75c3c     C1 1351   5.129   1.874   1.146
   75c3c     C2 1352   5.077   2.108   1.199
   75c3c     C2 1353   5.188   2.015   1.151
   75c3c     C1 1354   4.965   1.795   1.300
   75c3c     C1 1355   4.902   1.837   1.073
   75c3c     H1 1356   4.920   2.029   1.325
   75c3c     H1 1357   4.868   2.061   1.166
   75c3c     H1 1358   5.186   1.807   1.211
   75c3c     H1 1359   5.145   1.830   1.048
   75c3c     HC 1360   5.105   2.157   1.292
   75c3c     HC 1361   5.057   2.185   1.125
   75c3c     HC 1362   5.273   2.018   1.220
   75c3c     HC 1363   5.225   2.046   1.053
   75c3c     H1 1364   4.861   1.798   1.334
   75c3c     H1 1365   4.989   1.691   1.278
   75c3c     H1 1366   5.027   1.826   1.384
   75c3c     H1 1367   4.924   1.733   1.049
   75c3c     H1 1368   4.797   1.838   1.104
   75c3c     C2 1369   4.920   1.924   0.947
   75c3c     HC 1370   5.023   1.924   0.911
   75c3c     HC 1371   4.897   2.029   0.965
   75c3c     CT 1372   4.832   1.876   0.834
   75c3c     HC 1373   4.727   1.881   0.864
   75c3c     HC 1374   4.857   1.773   0.808
   75c3c     HC 1375   4.847   1.939   0.747
   76fsi    FSI 1376   3.047   0.981   1.862
   76fsi    SBT 1377   3.055   1.042   1.717
   76fsi    NBT 1378   2.920   1.122   1.711
   76fsi    OBT 1379   3.172   1.125   1.718
   76fsi    OBT 1380   3.053   0.928   1.630
   76fsi    SBT 1381   2.902   1.265   1.769
   76fsi    OBT 1382   2.998   1.302   1.869
   76fsi    OBT 1383   2.764   1.294   1.798
   76fsi    FSI 1384   2.935   1.355   1.644
   77fsi    FSI 1385   1.878   3.177   2.215
   77fsi    SBT 1386   1.920   3.309   2.288
   77fsi    NBT 1387   1.788   3.392   2.279
   77fsi    OBT 1388   1.956   3.266   2.420
   77fsi    OBT 1389   2.025   3.362   2.205
   77fsi    SBT 1390   1.669   3.376   2.378
   77fsi    OBT 1391   1.667   3.252   2.450
   77fsi    OBT 1392   1.544   3.419   2.320
   77fsi    FSI 1393   1.702   3.486   2.486
   78fsi    FSI 1394   5.496   1.123   2.170
   78fsi    SBT 1395   5.357   1.193   2.146
   78fsi    NBT 1396   5.272   1.132   2.261
   78fsi    OBT 1397   5.384   1.334   2.159
   78fsi    OBT 1398   5.317   1.146   2.016
   78fsi    SBT 1399   5.273   1.185   2.407
   78fsi    OBT 1400   5.388   1.264   2.442
   78fsi    OBT 1401   5.234   1.084   2.501
   78fsi    FSI 1402   5.153   1.287   2.405
   79fsi    FSI 1403   3.162   3.186   2.081
   79fsi    SBT 1404   3.005   3.196   2.072
   79fsi    NBT 1405   2.965   3.045   2.072
   79fsi    OBT 1406   2.966   3.268   2.190
   79fsi    OBT 1407   2.982   3.259   1.945
   79fsi    SBT 1408   2.950   2.960   2.202
   79fsi    OBT 1409   3.018   3.013   2.317
   79fsi    OBT 1410   2.967   2.819   2.178
   79fsi    FSI 1411   2.797   2.977   2.234
   80fsi    FSI 1412   3.840   2.444   1.407
   80fsi    SBT 1413   3.859   2.600   1.404
   80fsi    NBT 1414   3.713   2.649   1.429
   80fsi    OBT 1415   3.951   2.629   1.511
   80fsi    OBT 1416   3.904   2.628   1.270
   80fsi    SBT 1417   3.649   2.661   1.570
   80fsi    OBT 1418   3.714   2.584   1.673
   80fsi    OBT 1419   3.505   2.655   1.566
   80fsi    FSI 1420   3.681   2.811   1.607
   81fsi    FSI 1421   0.785   0.970   2.993
   81fsi    SBT 1422   0.788   0.829   2.924
   81fsi    NBT 1423   0.920   0.838   2.840
   81fsi    OBT 1424   0.794   0.735   3.032
   81fsi    OBT 1425   0.671   0.827   2.840
   81fsi    SBT 1426   1.062   0.812   2.900
   81fsi    OBT 1427   1.071   0.823   3.043
   81fsi    OBT 1428   1.167   0.876   2.824
   81fsi    FSI 1429   1.081   0.658   2.870
   82fsi    FSI 1430   4.557   1.302   3.521
   82fsi    SBT 1431   4.493   1.364   3.650
   82fsi    NBT 1432   4.558   1.505   3.657
   82fsi    OBT 1433   4.351   1.366   3.628
   82fsi    OBT 1434   4.537   1.281   3.759
   82fsi    SBT 1435   4.509   1.627   3.573
   82fsi    OBT 1436   4.424   1.593   3.462
   82fsi    OBT 1437   4.611   1.725   3.551
   82fsi    FSI 1438   4.411   1.696   3.676
   83fsi    FSI 1439   4.885   0.939   1.390
   83fsi    SBT 1440   4.743   1.003   1.411
   83fsi    NBT 1441   4.781   1.150   1.446
   83fsi    OBT 1442   4.676   0.986   1.285
   83fsi    OBT 1443   4.689   0.932   1.524
   83fsi    SBT 1444   4.812   1.259   1.338
   83fsi    OBT 1445   4.849   1.207   1.210
   83fsi    OBT 1446   4.893   1.366   1.390
   83fsi    FSI 1447   4.670   1.324   1.316
   84fsi    FSI 1448   2.418   5.418   5.525
   84fsi    SBT 1449   2.297   5.331   5.578
   84fsi    NBT 1450   2.346   5.187   5.547
   84fsi    OBT 1451   2.287   5.362   5.718
   84fsi    OBT 1452   2.187   5.370   5.494
   84fsi    SBT 1453   2.443   5.107   5.639
   84fsi    OBT 1454   2.518   5.187   5.731
   84fsi    OBT 1455   2.514   5.004   5.567
   84fsi    FSI 1456   2.341   5.027   5.729
   85fsi    FSI 1457   4.637   4.336   5.410
   85fsi    SBT 1458   4.732   4.239   5.490
   85fsi    NBT 1459   4.866   4.319   5.494
   85fsi    OBT 1460   4.670   4.223   5.619
   85fsi    OBT 1461   4.742   4.120   5.409
   85fsi    SBT 1462   4.895   4.434   5.594
   85fsi    OBT 1463   4.780   4.490   5.658
   85fsi    OBT 1464   4.996   4.525   5.548
   85fsi    FSI 1465   4.968   4.355   5.710
   86fsi    FSI 1466   1.372   2.677   1.657
   86fsi    SBT 1467   1.504   2.671   1.570
   86fsi    NBT 1468   1.490   2.532   1.501
   86fsi    OBT 1469   1.498   2.783   1.482
   86fsi    OBT 1470   1.611   2.662   1.664
   86fsi    SBT 1471   1.401   2.512   1.375
   86fsi    OBT 1472   1.303   2.613   1.350
   86fsi    OBT 1473   1.361   2.375   1.367
   86fsi    FSI 1474   1.512   2.534   1.265
   87fsi    FSI 1475   1.817   2.875   1.632
   87fsi    SBT 1476   1.923   2.864   1.517
   87fsi    NBT 1477   1.834   2.865   1.389
   87fsi    OBT 1478   2.007   2.980   1.532
   87fsi    OBT 1479   1.984   2.735   1.537
   87fsi    SBT 1480   1.776   2.995   1.326
   87fsi    OBT 1481   1.776   3.110   1.412
   87fsi    OBT 1482   1.658   2.970   1.247
   87fsi    FSI 1483   1.886   3.028   1.218
   88fsi    FSI 1484   3.593   1.981   5.026
   88fsi    SBT 1485   3.698   1.902   4.940
   88fsi    NBT 1486   3.707   1.989   4.811
   88fsi    OBT 1487   3.818   1.900   5.020
   88fsi    OBT 1488   3.635   1.775   4.915
   88fsi    SBT 1489   3.795   2.118   4.800
   88fsi    OBT 1490   3.833   2.175   4.926
   88fsi    OBT 1491   3.747   2.207   4.698
   88fsi    FSI 1492   3.928   2.059   4.740
   89fsi    FSI 1493   4.854   4.144   2.509
   89fsi    SBT 1494   4.918   4.026   2.591
   89fsi    NBT 1495   4.797   3.929   2.604
   89fsi    OBT 1496   5.025   3.977   2.508
   89fsi    OBT 1497   4.953   4.085   2.717
   89fsi    SBT 1498   4.754   3.828   2.494
   89fsi    OBT 1499   4.803   3.859   2.362
   89fsi    OBT 1500   4.616   3.790   2.505
   89fsi    FSI 1501   4.833   3.698   2.536
   90fsi    FSI 1502   3.509   0.500   1.165
   90fsi    SBT 1503   3.431   0.396   1.077
   90fsi    NBT 1504   3.283   0.441   1.101
   90fsi    OBT 1505   3.478   0.418   0.943
   90fsi    OBT 1506   3.460   0.269   1.137
   90fsi    SBT 1507   3.214   0.557   1.024
   90fsi    OBT 1508   3.304   0.650   0.961
   90fsi    OBT 1509   3.103   0.613   1.096
   90fsi    FSI 1510   3.147   0.480   0.903
   91fsi    FSI 1511   0.873   4.169   3.301
   91fsi    SBT 1512   0.849   4.100   3.441
   91fsi    NBT 1513   0.746   4.197   3.506
   91fsi    OBT 1514   0.797   3.970   3.409
   91fsi    OBT 1515   0.978   4.106   3.505
   91fsi    SBT 1516   0.593   4.192   3.478
   91fsi    OBT 1517   0.556   4.123   3.358
   91fsi    OBT 1518   0.528   4.318   3.504
   91fsi    FSI 1519   0.543   4.098   3.594
   92fsi    FSI 1520   1.968   2.933   5.384
   92fsi    SBT 1521   2.036   3.053   5.460
   92fsi    NBT 1522   1.947   3.064   5.588
   92fsi    OBT 1523   2.171   3.011   5.484
   92fsi    OBT 1524   2.018   3.165   5.371
   92fsi    SBT 1525   1.966   2.974   5.714
   92fsi    OBT 1526   2.042   2.854   5.691
   92fsi    OBT 1527   1.846   2.962   5.792
   92fsi    FSI 1528   2.061   3.064   5.802
   93fsi    FSI 1529   2.911   5.812   4.224
   93fsi    SBT 1530   3.005   5.800   4.098
   93fsi    NBT 1531   3.139   5.856   4.153
   93fsi    OBT 1532   3.006   5.660   4.066
   93fsi    OBT 1533   2.945   5.888   4.001
   93fsi    SBT 1534   3.241   5.771   4.236
   93fsi    OBT 1535   3.184   5.653   4.295
   93fsi    OBT 1536   3.324   5.855   4.319
   93fsi    FSI 1537   3.337   5.718   4.122
   94fsi    FSI 1538   4.693   1.023   2.766
   94fsi    SBT 1539   4.804   1.113   2.700
   94fsi    NBT 1540   4.906   1.124   2.818
   94fsi    OBT 1541   4.849   1.039   2.587
   94fsi    OBT 1542   4.737   1.238   2.676
   94fsi    SBT 1543   5.015   1.016   2.849
   94fsi    OBT 1544   4.986   0.886   2.794
   94fsi    OBT 1545   5.058   1.020   2.986
   94fsi    FSI 1546   5.138   1.069   2.767
   95fsi    FSI 1547   2.109   3.220   2.947
   95fsi    SBT 1548   2.011   3.096   2.945
   95fsi    NBT 1549   2.113   2.977   2.941
   95fsi    OBT 1550   1.938   3.106   3.068
   95fsi    OBT 1551   1.938   3.109   2.823
   95fsi    SBT 1552   2.182   2.918   3.067
   95fsi    OBT 1553   2.186   3.006   3.181
   95fsi    OBT 1554   2.305   2.849   3.035
   95fsi    FSI 1555   2.083   2.803   3.108
   96fsi    FSI 1556   1.922   3.775   3.858
   96fsi    SBT 1557   1.975   3.922   3.838
   96fsi    NBT 1558   1.842   4.004   3.846
   96fsi    OBT 1559   2.068   3.940   3.946
   96fsi    OBT 1560   2.030   3.921   3.705
   96fsi    SBT 1561   1.776   4.045   3.980
   96fsi    OBT 1562   1.817   3.962   4.090
   96fsi    OBT 1563   1.635   4.071   3.970
   96fsi    FSI 1564   1.839   4.186   4.003
   97fsi    FSI 1565   4.777   4.472   4.944
   97fsi    SBT 1566   4.793   4.534   5.088
   97fsi    NBT 1567   4.669   4.629   5.093
   97fsi    OBT 1568   4.788   4.421   5.175
   97fsi    OBT 1569   4.918   4.605   5.080
   97fsi    SBT 1570   4.525   4.582   5.130
   97fsi    OBT 1571   4.503   4.441   5.115
   97fsi    OBT 1572   4.424   4.669   5.077
   97fsi    FSI 1573   4.521   4.607   5.286
   98fsi    FSI 1574   0.793   5.600   5.733
   98fsi    SBT 1575   0.924   5.544   5.800
   98fsi    NBT 1576   0.949   5.416   5.715
   98fsi    OBT 1577   1.021   5.648   5.782
   98fsi    OBT 1578   0.884   5.514   5.935
   98fsi    SBT 1579   1.021   5.416   5.577
   98fsi    OBT 1580   1.021   5.543   5.510
   98fsi    OBT 1581   0.985   5.302   5.497
   98fsi    FSI 1582   1.171   5.390   5.618
   99fsi    FSI 1583   3.577   1.895   2.006
   99fsi    SBT 1584   3.717   1.901   1.934
   99fsi    NBT 1585   3.799   1.800   2.019
   99fsi    OBT 1586   3.690   1.859   1.799
   99fsi    OBT 1587   3.760   2.037   1.954
   99fsi    SBT 1588   3.796   1.645   1.998
   99fsi    OBT 1589   3.679   1.598   1.928
   99fsi    OBT 1590   3.833   1.573   2.116
   99fsi    FSI 1591   3.916   1.624   1.898
  100fsi    FSI 1592   3.754   1.242   0.826
  100fsi    SBT 1593   3.758   1.394   0.786
  100fsi    NBT 1594   3.680   1.392   0.650
  100fsi    OBT 1595   3.691   1.463   0.892
  100fsi    OBT 1596   3.898   1.422   0.767
  100fsi    SBT 1597   3.525   1.395   0.640
  100fsi    OBT 1598   3.455   1.356   0.760
  100fsi    OBT 1599   3.476   1.341   0.516
  100fsi    FSI 1600   3.497   1.549   0.628
  101fsi    FSI 1601   4.225   0.617   6.005
  101fsi    SBT 1602   4.346   0.714   5.977
  101fsi    NBT 1603   4.380   0.678   5.828
  101fsi    OBT 1604   4.293   0.846   5.995
  101fsi    OBT 1605   4.448   0.670   6.068
  101fsi    SBT 1606   4.305   0.738   5.706
  101fsi    OBT 1607   4.176   0.794   5.735
  101fsi    OBT 1608   4.314   0.655   5.589
  101fsi    FSI 1609   4.395   0.863   5.672
  102fsi    FSI 1610   2.223   1.769   2.507
  102fsi    SBT 1611   2.347   1.679   2.548
  102fsi    NBT 1612   2.282   1.544   2.589
  102fsi    OBT 1613   2.430   1.668   2.432
  102fsi    OBT 1614   2.408   1.744   2.661
  102fsi    SBT 1615   2.230   1.437   2.489
  102fsi    OBT 1616   2.218   1.483   2.354
  102fsi    OBT 1617   2.123   1.356   2.542
  102fsi    FSI 1618   2.354   1.340   2.488
  103fsi    FSI 1619   3.205   5.870   6.253
  103fsi    SBT 1620   3.282   5.831   6.121
  103fsi    NBT 1621   3.276   5.675   6.128
  103fsi    OBT 1622   3.205   5.890   6.015
  103fsi    OBT 1623   3.415   5.882   6.142
  103fsi    SBT 1624   3.154   5.591   6.081
  103fsi    OBT 1625   3.031   5.665   6.073
  103fsi    OBT 1626   3.149   5.462   6.144
  103fsi    FSI 1627   3.193   5.560   5.931
  104fsi    FSI 1628   3.311   6.261   1.322
  104fsi    SBT 1629   3.253   6.133   1.252
  104fsi    NBT 1630   3.332   6.131   1.118
  104fsi    OBT 1631   3.284   6.025   1.341
  104fsi    OBT 1632   3.114   6.164   1.233
  104fsi    SBT 1633   3.477   6.073   1.104
  104fsi    OBT 1634   3.548   6.060   1.227
  104fsi    OBT 1635   3.548   6.129   0.992
  104fsi    FSI 1636   3.446   5.924   1.060
  105fsi    FSI 1637   2.043   4.401   4.506
  105fsi    SBT 1638   2.162   4.327   4.433
  105fsi    NBT 1639   2.101   4.186   4.411
  105fsi    OBT 1640   2.182   4.404   4.314
  105fsi    OBT 1641   2.268   4.325   4.530
  105fsi    SBT 1642   2.004   4.153   4.294
  105fsi    OBT 1643   1.940   4.268   4.239
  105fsi    OBT 1644   1.922   4.041   4.332
  105fsi    FSI 1645   2.104   4.099   4.184
  106fsi    FSI 1646   5.809   3.191   4.586
  106fsi    SBT 1647   5.756   3.043   4.598
  106fsi    NBT 1648   5.607   3.067   4.635
  106fsi    OBT 1649   5.778   2.987   4.468
  106fsi    OBT 1650   5.832   2.988   4.707
  106fsi    SBT 1651   5.495   3.096   4.531
  106fsi    OBT 1652   5.544   3.146   4.405
  106fsi    OBT 1653   5.383   3.166   4.587
  106fsi    FSI 1654   5.441   2.951   4.500
  107fsi    FSI 1655   5.294   2.536   5.668
  107fsi    SBT 1656   5.216   2.409   5.618
  107fsi    NBT 1657   5.331   2.310   5.582
  107fsi    OBT 1658   5.136   2.368   5.730
  107fsi    OBT 1659   5.142   2.454   5.502
  107fsi    SBT 1660   5.408   2.223   5.685
  107fsi    OBT 1661   5.393   2.266   5.821
  107fsi    OBT 1662   5.539   2.185   5.641
  107fsi    FSI 1663   5.325   2.089   5.677
  108fsi    FSI 1664   1.910   5.764   3.625
  108fsi    SBT 1665   1.828   5.887   3.680
  108fsi    NBT 1666   1.737   5.921   3.558
  108fsi    OBT 1667   1.757   5.835   3.794
  108fsi    OBT 1668   1.927   5.988   3.704
  108fsi    SBT 1669   1.604   5.846   3.526
  108fsi    OBT 1670   1.591   5.717   3.588
  108fsi    OBT 1671   1.568   5.856   3.387
  108fsi    FSI 1672   1.498   5.937   3.600
  109fsi    FSI 1673   3.949   1.652   2.791
  109fsi    SBT 1674   4.081   1.566   2.789
  109fsi    NBT 1675   4.025   1.421   2.778
  109fsi    OBT 1676   4.154   1.613   2.674
  109fsi    OBT 1677   4.140   1.591   2.918
  109fsi    SBT 1678   3.980   1.357   2.642
  109fsi    OBT 1679   3.954   1.451   2.537
  109fsi    OBT 1680   3.886   1.250   2.661
  109fsi    FSI 1681   4.113   1.283   2.599
  110fsi    FSI 1682   2.001   5.627   4.317
  110fsi    SBT 1683   1.863   5.565   4.361
  110fsi    NBT 1684   1.829   5.652   4.486
  110fsi    OBT 1685   1.775   5.586   4.249
  110fsi    OBT 1686   1.894   5.429   4.395
  110fsi    SBT 1687   1.762   5.792   4.479
  110fsi    OBT 1688   1.773   5.858   4.352
  110fsi    OBT 1689   1.787   5.874   4.595
  110fsi    FSI 1690   1.609   5.755   4.491
  111fsi    FSI 1691   3.865   5.393   4.343
  111fsi    SBT 1692   3.833   5.456   4.484
  111fsi    NBT 1693   3.859   5.607   4.457
  111fsi    OBT 1694   3.696   5.422   4.509
  111fsi    OBT 1695   3.932   5.398   4.572
  111fsi    SBT 1696   3.754   5.703   4.392
  111fsi    OBT 1697   3.651   5.637   4.318
  111fsi    OBT 1698   3.815   5.818   4.331
  111fsi    FSI 1699   3.682   5.761   4.519
  112fsi    FSI 1700   1.056   1.949   4.487
  112fsi    SBT 1701   0.920   1.983   4.415
  112fsi    NBT 1702   0.971   2.045   4.281
  112fsi    OBT 1703   0.853   1.856   4.401
  112fsi    OBT 1704   0.858   2.080   4.501
  112fsi    SBT 1705   1.014   1.961   4.158
  112fsi    OBT 1706   1.047   1.824   4.187
  112fsi    OBT 1707   1.105   2.032   4.072
  112fsi    FSI 1708   0.880   1.953   4.076
  113fsi    FSI 1709   4.943   5.461   4.726
  113fsi    SBT 1710   5.054   5.353   4.752
  113fsi    NBT 1711   5.183   5.441   4.760
  113fsi    OBT 1712   5.019   5.292   4.876
  113fsi    OBT 1713   5.053   5.269   4.635
  113fsi    SBT 1714   5.228   5.517   4.888
  113fsi    OBT 1715   5.123   5.541   4.983
  113fsi    OBT 1716   5.313   5.628   4.856
  113fsi    FSI 1717   5.323   5.411   4.957
  114fsi    FSI 1718   0.645   3.841   1.852
  114fsi    SBT 1719   0.726   3.832   1.718
  114fsi    NBT 1720   0.776   3.685   1.722
  114fsi    OBT 1721   0.629   3.861   1.615
  114fsi    OBT 1722   0.833   3.924   1.737
  114fsi    SBT 1723   0.690   3.563   1.676
  114fsi    OBT 1724   0.549   3.588   1.674
  114fsi    OBT 1725   0.734   3.440   1.737
  114fsi    FSI 1726   0.732   3.550   1.525
  115fsi    FSI 1727   5.419   2.324   1.401
  115fsi    SBT 1728   5.542   2.257   1.328
  115fsi    NBT 1729   5.517   2.300   1.180
  115fsi    OBT 1730   5.658   2.315   1.389
  115fsi    OBT 1731   5.520   2.116   1.347
  115fsi    SBT 1732   5.560   2.438   1.122
  115fsi    OBT 1733   5.582   2.540   1.221
  115fsi    OBT 1734   5.481   2.475   1.007
  115fsi    FSI 1735   5.703   2.405   1.064
  116fsi    FSI 1736   1.521   1.703   1.033
  116fsi    SBT 1737   1.634   1.596   1.009
  116fsi    NBT 1738   1.690   1.577   1.154
  116fsi    OBT 1739   1.566   1.480   0.957
  116fsi    OBT 1740   1.729   1.660   0.923
  116fsi    SBT 1741   1.624   1.485   1.261
  116fsi    OBT 1742   1.487   1.452   1.236
  116fsi    OBT 1743   1.659   1.524   1.395
  116fsi    FSI 1744   1.703   1.350   1.239
  117fsi    FSI 1745   5.663   5.683   4.906
  117fsi    SBT 1746   5.712   5.813   4.979
  117fsi    NBT 1747   5.836   5.761   5.057
  117fsi    OBT 1748   5.739   5.904   4.871
  117fsi    OBT 1749   5.602   5.849   5.064
  117fsi    SBT 1750   5.978   5.743   4.995
  117fsi    OBT 1751   5.978   5.739   4.851
  117fsi    OBT 1752   6.057   5.645   5.064
  117fsi    FSI 1753   6.045   5.881   5.031
  118fsi    FSI 1754   3.630   1.629   2.932
  118fsi    SBT 1755   3.631   1.472   2.941
  118fsi    NBT 1756   3.745   1.448   3.044
  118fsi    OBT 1757   3.500   1.438   2.988
  118fsi    OBT 1758   3.665   1.430   2.808
  118fsi    SBT 1759   3.725   1.455   3.198
  118fsi    OBT 1760   3.608   1.528   3.240
  118fsi    OBT 1761   3.847   1.482   3.270
  118fsi    FSI 1762   3.693   1.305   3.233
  119fsi    FSI 1763   4.803   5.286   5.187
  119fsi    SBT 1764   4.927   5.188   5.189
  119fsi    NBT 1765   5.046   5.289   5.191
  119fsi    OBT 1766   4.914   5.112   5.310
  119fsi    OBT 1767   4.917   5.113   5.066
  119fsi    SBT 1768   5.100   5.358   5.321
  119fsi    OBT 1769   5.009   5.355   5.432
  119fsi    OBT 1770   5.168   5.482   5.296
  119fsi    FSI 1771   5.215   5.258   5.362
  120fsi    FSI 1772   2.098   4.576   3.842
  120fsi    SBT 1773   2.104   4.420   3.865
  120fsi    NBT 1774   2.258   4.396   3.861
  120fsi    OBT 1775   2.042   4.403   3.993
  120fsi    OBT 1776   2.037   4.366   3.750
  120fsi    SBT 1777   2.352   4.417   3.984
  120fsi    OBT 1778   2.300   4.508   4.081
  120fsi    OBT 1779   2.489   4.438   3.945
  120fsi    FSI 1780   2.352   4.274   4.051
  121fsi    FSI 1781   4.566   0.512   1.811
  121fsi    SBT 1782   4.430   0.436   1.784
  121fsi    NBT 1783   4.433   0.329   1.898
  121fsi    OBT 1784   4.329   0.537   1.798
  121fsi    OBT 1785   4.448   0.378   1.653
  121fsi    SBT 1786   4.387   0.358   2.044
  121fsi    OBT 1787   4.385   0.497   2.080
  121fsi    OBT 1788   4.447   0.267   2.139
  121fsi    FSI 1789   4.236   0.315   2.040
  122fsi    FSI 1790   4.188   5.854   2.773
  122fsi    SBT 1791   4.344   5.831   2.779
  122fsi    NBT 1792   4.355   5.678   2.756
  122fsi    OBT 1793   4.398   5.911   2.672
  122fsi    OBT 1794   4.381   5.869   2.913
  122fsi    SBT 1795   4.351   5.610   2.616
  122fsi    OBT 1796   4.295   5.692   2.512
  122fsi    OBT 1797   4.308   5.473   2.621
  122fsi    FSI 1798   4.504   5.602   2.581
  123fsi    FSI 1799   1.317   3.228   0.292
  123fsi    SBT 1800   1.286   3.078   0.328
  123fsi    NBT 1801   1.147   3.091   0.399
  123fsi    OBT 1802   1.283   3.010   0.202
  123fsi    OBT 1803   1.391   3.042   0.420
  123fsi    SBT 1804   1.012   3.100   0.322
  123fsi    OBT 1805   1.023   3.139   0.185
  123fsi    OBT 1806   0.909   3.164   0.400
  123fsi    FSI 1807   0.969   2.948   0.317
  124fsi    FSI 1808   2.191   1.664   4.583
  124fsi    SBT 1809   2.048   1.643   4.520
  124fsi    NBT 1810   2.073   1.518   4.430
  124fsi    OBT 1811   1.962   1.621   4.633
  124fsi    OBT 1812   2.027   1.762   4.442
  124fsi    SBT 1813   2.070   1.371   4.484
  124fsi    OBT 1814   2.088   1.359   4.626
  124fsi    OBT 1815   2.146   1.282   4.400
  124fsi    FSI 1816   1.920   1.331   4.459
  125fsi    FSI 1817   5.398   3.007   5.133
  125fsi    SBT 1818   5.317   2.882   5.186
  125fsi    NBT 1819   5.228   2.948   5.295
  125fsi    OBT 1820   5.246   2.834   5.071
  125fsi    OBT 1821   5.419   2.797   5.241
  125fsi    SBT 1822   5.093   3.020   5.265
  125fsi    OBT 1823   5.077   3.063   5.129
  125fsi    OBT 1824   5.057   3.115   5.367
  125fsi    FSI 1825   4.989   2.903   5.282
  126fsi    FSI 1826   1.341   2.062   1.259
  126fsi    SBT 1827   1.356   2.053   1.102
  126fsi    NBT 1828   1.314   2.196   1.059
  126fsi    OBT 1829   1.495   2.025   1.081
  126fsi    OBT 1830   1.260   1.954   1.063
  126fsi    SBT 1831   1.410   2.319   1.058
  126fsi    OBT 1832   1.530   2.302   1.137
  126fsi    OBT 1833   1.338   2.443   1.067
  126fsi    FSI 1834   1.463   2.318   0.911
  127fsi    FSI 1835   0.625   2.590   3.758
  127fsi    SBT 1836   0.738   2.496   3.702
  127fsi    NBT 1837   0.847   2.599   3.658
  127fsi    OBT 1838   0.775   2.413   3.814
  127fsi    OBT 1839   0.677   2.429   3.591
  127fsi    SBT 1840   0.949   2.664   3.756
  127fsi    OBT 1841   0.912   2.657   3.895
  127fsi    OBT 1842   0.999   2.790   3.708
  127fsi    FSI 1843   1.072   2.566   3.742
  128fsi    FSI 1844   1.572   5.662   5.498
  128fsi    SBT 1845   1.469   5.745   5.413
  128fsi    NBT 1846   1.451   5.872   5.501
  128fsi    OBT 1847   1.535   5.769   5.287
  128fsi    OBT 1848   1.351   5.663   5.409
  128fsi    SBT 1849   1.550   5.993   5.500
  128fsi    OBT 1850   1.679   5.965   5.445
  128fsi    OBT 1851   1.545   6.070   5.621
  128fsi    FSI 1852   1.482   6.087   5.393
  129fsi    FSI 1853   5.592   4.222   1.606
  129fsi    SBT 1854   5.743   4.232   1.564
  129fsi    NBT 1855   5.777   4.082   1.539
  129fsi    OBT 1856   5.743   4.315   1.447
  129fsi    OBT 1857   5.807   4.284   1.682
  129fsi    SBT 1858   5.747   4.008   1.405
  129fsi    OBT 1859   5.647   4.071   1.324
  129fsi    OBT 1860   5.736   3.865   1.423
  129fsi    FSI 1861   5.882   4.028   1.326
  130fsi    FSI 1862   5.257   2.231   5.323
  130fsi    SBT 1863   5.311   2.284   5.186
  130fsi    NBT 1864   5.361   2.152   5.121
  130fsi    OBT 1865   5.197   2.343   5.121
  130fsi    OBT 1866   5.420   2.371   5.217
  130fsi    SBT 1867   5.269   2.053   5.046
  130fsi    OBT 1868   5.129   2.066   5.075
  130fsi    OBT 1869   5.321   1.919   5.042
  130fsi    FSI 1870   5.283   2.105   4.898
  131fsi    FSI 1871   1.846   5.897   2.012
  131fsi    SBT 1872   1.882   6.038   2.073
  131fsi    NBT 1873   2.035   6.047   2.041
  131fsi    OBT 1874   1.801   6.132   2.000
  131fsi    OBT 1875   1.857   6.024   2.213
  131fsi    SBT 1876   2.092   6.092   1.903
  131fsi    OBT 1877   2.000   6.084   1.794
  131fsi    OBT 1878   2.225   6.043   1.880
  131fsi    FSI 1879   2.112   6.247   1.927
  132fsi    FSI 1880   0.818   5.309   1.645
  132fsi    SBT 1881   0.920   5.218   1.566
  132fsi    NBT 1882   1.054   5.292   1.596
  132fsi    OBT 1883   0.907   5.089   1.626
  132fsi    OBT 1884   0.878   5.233   1.429
  132fsi    SBT 1885   1.138   5.271   1.726
  132fsi    OBT 1886   1.063   5.216   1.836
  132fsi    OBT 1887   1.223   5.383   1.754
  132fsi    FSI 1888   1.236   5.156   1.682
  133fsi    FSI 1889   1.582   2.718   5.740
  133fsi    SBT 1890   1.598   2.576   5.674
  133fsi    NBT 1891   1.587   2.482   5.798
  133fsi    OBT 1892   1.488   2.565   5.581
  133fsi    OBT 1893   1.730   2.575   5.618
  133fsi    SBT 1894   1.451   2.438   5.861
  133fsi    OBT 1895   1.339   2.520   5.827
  133fsi    OBT 1896   1.465   2.399   5.999
  133fsi    FSI 1897   1.425   2.302   5.786
  134fsi    FSI 1898   0.263   1.253   0.703
  134fsi    SBT 1899   0.360   1.363   0.762
  134fsi    NBT 1900   0.489   1.279   0.787
  134fsi    OBT 1901   0.371   1.461   0.659
  134fsi    OBT 1902   0.297   1.403   0.885
  134fsi    SBT 1903   0.594   1.247   0.676
  134fsi    OBT 1904   0.544   1.260   0.542
  134fsi    OBT 1905   0.671   1.129   0.706
  134fsi    FSI 1906   0.696   1.366   0.693
  135fsi    FSI 1907   3.228   5.878   5.095
  135fsi    SBT 1908   3.332   5.761   5.072
  135fsi    NBT 1909   3.242   5.656   5.000
  135fsi    OBT 1910   3.433   5.820   4.989
  135fsi    OBT 1911   3.369   5.721   5.205
  135fsi    SBT 1912   3.211   5.657   4.847
  135fsi    OBT 1913   3.232   5.785   4.784
  135fsi    OBT 1914   3.089   5.588   4.816
  135fsi    FSI 1915   3.325   5.564   4.791
  136fsi    FSI 1916   5.875   2.674   5.557
  136fsi    SBT 1917   5.872   2.516   5.555
  136fsi    NBT 1918   5.719   2.490   5.554
  136fsi    OBT 1919   5.941   2.481   5.434
  136fsi    OBT 1920   5.934   2.479   5.679
  136fsi    SBT 1921   5.632   2.493   5.425
  136fsi    OBT 1922   5.692   2.563   5.315
  136fsi    OBT 1923   5.495   2.524   5.455
  136fsi    FSI 1924   5.636   2.341   5.383
  137fsi    FSI 1925   0.737   1.163   2.794
  137fsi    SBT 1926   0.871   1.235   2.751
  137fsi    NBT 1927   0.827   1.385   2.753
  137fsi    OBT 1928   0.968   1.201   2.851
  137fsi    OBT 1929   0.895   1.189   2.617
  137fsi    SBT 1930   0.821   1.471   2.883
  137fsi    OBT 1931   0.820   1.397   3.005
  137fsi    OBT 1932   0.731   1.582   2.871
  137fsi    FSI 1933   0.964   1.538   2.880
  138fsi    FSI 1934   3.327   5.512   2.353
  138fsi    SBT 1935   3.236   5.383   2.354
  138fsi    NBT 1936   3.093   5.446   2.365
  138fsi    OBT 1937   3.263   5.317   2.230
  138fsi    OBT 1938   3.274   5.314   2.475
  138fsi    SBT 1939   3.013   5.501   2.243
  138fsi    OBT 1940   3.093   5.530   2.128
  138fsi    OBT 1941   2.915   5.598   2.283
  138fsi    FSI 1942   2.929   5.374   2.202
  139fsi    FSI 1943   4.113   4.204   3.746
  139fsi    SBT 1944   4.193   4.084   3.811
  139fsi    NBT 1945   4.311   4.158   3.880
  139fsi    OBT 1946   4.099   4.022   3.901
  139fsi    OBT 1947   4.236   4.005   3.699
  139fsi    SBT 1948   4.300   4.228   4.019
  139fsi    OBT 1949   4.166   4.255   4.061
  139fsi    OBT 1950   4.398   4.332   4.036
  139fsi    FSI 1951   4.349   4.112   4.115
  140fsi    FSI 1952   4.584   6.179   1.034
  140fsi    SBT 1953   4.626   6.043   0.965
  140fsi    NBT 1954   4.780   6.042   0.991
  140fsi    OBT 1955   4.553   5.941   1.035
  140fsi    OBT 1956   4.596   6.063   0.826
  140fsi    SBT 1957   4.845   5.993   1.125
  140fsi    OBT 1958   4.756   5.991   1.237
  140fsi    OBT 1959   4.976   6.049   1.146
  140fsi    FSI 1960   4.872   5.841   1.093
  141fsi    FSI 1961   0.320   0.987   3.309
  141fsi    SBT 1962   0.470   0.955   3.271
  141fsi    NBT 1963   0.504   1.076   3.180
  141fsi    OBT 1964   0.538   0.953   3.398
  141fsi    OBT 1965   0.460   0.831   3.200
  141fsi    SBT 1966   0.549   1.216   3.233
  141fsi    OBT 1967   0.513   1.241   3.370
  141fsi    OBT 1968   0.522   1.322   3.140
  141fsi    FSI 1969   0.705   1.201   3.235
  142fsi    FSI 1970   2.080   1.785   2.889
  142fsi    SBT 1971   2.079   1.630   2.917
  142fsi    NBT 1972   2.218   1.611   2.986
  142fsi    OBT 1973   1.966   1.610   3.003
  142fsi    OBT 1974   2.072   1.571   2.787
  142fsi    SBT 1975   2.242   1.636   3.138
  142fsi    OBT 1976   2.145   1.721   3.201
  142fsi    OBT 1977   2.380   1.664   3.167
  142fsi    FSI 1978   2.216   1.493   3.199
  143fsi    FSI 1979   4.330   5.013   4.353
  143fsi    SBT 1980   4.300   5.140   4.442
  143fsi    NBT 1981   4.445   5.189   4.472
  143fsi    OBT 1982   4.224   5.226   4.357
  143fsi    OBT 1983   4.235   5.085   4.558
  143fsi    SBT 1984   4.528   5.278   4.376
  143fsi    OBT 1985   4.484   5.275   4.239
  143fsi    OBT 1986   4.670   5.267   4.397
  143fsi    FSI 1987   4.492   5.423   4.427
  144fsi    FSI 1988   4.713   5.813   3.474
  144fsi    SBT 1989   4.579   5.730   3.468
  144fsi    NBT 1990   4.634   5.585   3.480
  144fsi    OBT 1991   4.503   5.777   3.580
  144fsi    OBT 1992   4.529   5.758   3.336
  144fsi    SBT 1993   4.668   5.517   3.617
  144fsi    OBT 1994   4.692   5.609   3.724
  144fsi    OBT 1995   4.764   5.410   3.601
  144fsi    FSI 1996   4.532   5.445   3.652
  145fsi    FSI 1997   4.107   4.543   5.488
  145fsi    SBT 1998   4.145   4.423   5.583
  145fsi    NBT 1999   4.005   4.360   5.612
  145fsi    OBT 2000   4.232   4.339   5.505
  145fsi    OBT 2001   4.201   4.486   5.699
  145fsi    SBT 2002   3.934   4.261   5.516
  145fsi    OBT 2003   3.981   4.262   5.380
  145fsi    OBT 2004   3.791   4.259   5.535
  145fsi    FSI 2005   3.982   4.122   5.573
  146fsi    FSI 2006   3.443   0.793   1.803
  146fsi    SBT 2007   3.463   0.644   1.848
  146fsi    NBT 2008   3.540   0.585   1.727
  146fsi    OBT 2009   3.539   0.653   1.970
  146fsi    OBT 2010   3.329   0.592   1.859
  146fsi    SBT 2011   3.694   0.599   1.706
  146fsi    OBT 2012   3.754   0.706   1.782
  146fsi    OBT 2013   3.733   0.588   1.568
  146fsi    FSI 2014   3.747   0.467   1.773
  147fsi    FSI 2015   5.738   2.164   2.518
  147fsi    SBT 2016   5.812   2.300   2.549
  147fsi    NBT 2017   5.927   2.251   2.643
  147fsi    OBT 2018   5.856   2.348   2.421
  147fsi    OBT 2019   5.714   2.378   2.620
  147fsi    SBT 2020   6.061   2.190   2.591
  147fsi    OBT 2021   6.056   2.140   2.456
  147fsi    OBT 2022   6.124   2.106   2.689
  147fsi    FSI 2023   6.153   2.317   2.583
  148fsi    FSI 2024   1.017   4.330   1.498
  148fsi    SBT 2025   1.059   4.245   1.624
  148fsi    NBT 2026   1.168   4.151   1.564
  148fsi    OBT 2027   1.108   4.340   1.719
  148fsi    OBT 2028   0.938   4.176   1.658
  148fsi    SBT 2029   1.317   4.193   1.544
  148fsi    OBT 2030   1.340   4.334   1.546
  148fsi    OBT 2031   1.384   4.117   1.442
  148fsi    FSI 2032   1.381   4.143   1.679
  149fsi    FSI 2033   1.148   4.705   1.231
  149fsi    SBT 2034   1.281   4.629   1.266
  149fsi    NBT 2035   1.343   4.722   1.374
  149fsi    OBT 2036   1.236   4.501   1.313
  149fsi    OBT 2037   1.356   4.630   1.143
  149fsi    SBT 2038   1.302   4.721   1.525
  149fsi    OBT 2039   1.175   4.660   1.551
  149fsi    OBT 2040   1.330   4.846   1.589
  149fsi    FSI 2041   1.409   4.622   1.585
  150fsi    FSI 2042   1.968   3.751   2.328
  150fsi    SBT 2043   2.072   3.804   2.434
  150fsi    NBT 2044   2.075   3.690   2.540
  150fsi    OBT 2045   2.196   3.823   2.364
  150fsi    OBT 2046   2.013   3.925   2.486
  150fsi    SBT 2047   2.157   3.559   2.524
  150fsi    OBT 2048   2.203   3.533   2.390
  150fsi    OBT 2049   2.106   3.450   2.602
  150fsi    FSI 2050   2.289   3.599   2.600
   6.41140   6.41140   6.41140
