L1P1 short trajectory practice
 1150
    1Li+     Li    1   2.021   0.270   4.398 -0.5184 -0.9392 -0.1641
    2Li+     Li    2   3.055   1.554   2.148  0.1962 -0.3007  0.9204
    3Li+     Li    3   1.954   4.737   1.186 -0.2530  1.4016 -0.2342
    4Li+     Li    4   0.477   4.163   5.177  0.4324 -0.1064  0.3281
    5Li+     Li    5   2.808   1.389   2.567 -1.0248 -0.5019 -0.3266
    6Li+     Li    6   2.691   0.844   1.468  0.1156 -0.2572  0.1233
    7Li+     Li    7   1.520   4.902   5.050  0.4007  0.3221  0.5667
    8Li+     Li    8   1.420   4.555   0.989 -0.0169  0.6016  0.5107
    9Li+     Li    9   3.028   0.399   1.772  0.2798  0.1374 -0.2710
   10Li+     Li   10   2.836   0.202   1.390  0.8654  0.1011 -0.6702
   11Li+     Li   11   1.959   0.170   0.695 -1.2346  0.6786  0.0417
   12Li+     Li   12   1.412   4.155   0.711  0.1218  0.1842 -1.5790
   13Li+     Li   13   1.905   0.903   1.601 -0.7357 -0.4984 -0.8715
   14Li+     Li   14   2.437   0.535   1.665  0.4619 -0.3147  1.0031
   15Li+     Li   15   2.142   0.054   4.862 -0.7435 -0.6590 -0.6978
   16Li+     Li   16   1.177   4.540   4.919 -0.7726 -0.2256 -0.2639
   17Li+     Li   17   2.462   0.991   1.905  0.1040  0.3839 -0.3780
   18Li+     Li   18   1.630   0.213   4.960  0.3761 -0.5463  1.0568
   19Li+     Li   19   0.990   3.899   5.031 -0.4229  0.6911 -0.4855
   20Li+     Li   20   2.371   0.003   5.257 -0.2831  0.9670 -0.9191
   21Li+     Li   21   0.747   4.618   5.124 -0.6393  0.5582  0.2294
   22Li+     Li   22   0.676   4.368   4.664  0.2412 -0.4977  0.5092
   23Li+     Li   23   1.743   5.088   4.533 -0.3479 -1.0922  0.0218
   24Li+     Li   24   2.291   1.831   1.378  0.0955 -0.5276 -1.2977
   25Li+     Li   25   3.143   1.973   1.770 -0.5857 -0.2654  1.1000
   26c3c     N4   26   3.046   1.211   1.766 -0.2729 -0.2460 -0.2618
   26c3c     C1   27   3.089   1.338   1.703 -0.0223 -0.1829 -0.3723
   26c3c     C1   28   3.044   1.124   1.645  0.4809  0.6957 -0.3714
   26c3c     C2   29   3.204   1.292   1.605 -0.2716  0.9923  0.9576
   26c3c     C2   30   3.175   1.144   1.573  0.2155  0.4535  0.5182
   26c3c     C1   31   3.143   1.164   1.867 -0.1500  0.9736 -0.6675
   26c3c     C1   32   2.918   1.227   1.843 -0.9719 -0.1954  0.2989
   26c3c     H1   33   3.127   1.410   1.775 -1.2204  1.0358 -0.9479
   26c3c     H1   34   3.012   1.391   1.648  1.2655  2.0969 -0.0189
   26c3c     H1   35   3.036   1.019   1.676 -2.4263  0.9597 -0.0842
   26c3c     H1   36   2.956   1.126   1.581  1.3774 -0.4882 -1.6821
   26c3c     HC   37   3.295   1.291   1.665 -0.0863  1.2596  0.6831
   26c3c     HC   38   3.221   1.358   1.520  0.3383  2.0555  1.8834
   26c3c     HC   39   3.264   1.085   1.598  1.1307  0.8193 -1.7478
   26c3c     HC   40   3.153   1.137   1.466  2.4602 -1.3735  0.1164
   26c3c     H1   41   3.163   1.227   1.954  0.4115  0.9029 -0.7405
   26c3c     H1   42   3.109   1.073   1.916 -0.0896  0.6440 -1.2315
   26c3c     H1   43   3.243   1.138   1.831  0.2816 -0.7715  1.6867
   26c3c     H1   44   2.893   1.141   1.906 -2.6926  0.4474  0.5015
   26c3c     H1   45   2.932   1.312   1.910 -0.2241 -1.1158  1.3351
   26c3c     C2   46   2.795   1.270   1.768  0.3655  0.5891 -0.5689
   26c3c     HC   47   2.772   1.194   1.693  2.4447 -1.0869  0.4565
   26c3c     HC   48   2.811   1.363   1.714 -1.3245  1.1838 -0.0663
   26c3c     CT   49   2.668   1.277   1.857  0.1590  0.9693 -0.0937
   26c3c     HC   50   2.586   1.292   1.787  1.3640 -1.5677 -2.0964
   26c3c     HC   51   2.687   1.354   1.933  0.1562  1.1273 -0.2534
   26c3c     HC   52   2.664   1.179   1.904  1.8652  0.6038 -0.6772
   27c3c     N4   53   2.257   0.435   0.292  0.0801 -0.0139 -0.3005
   27c3c     C1   54   2.243   0.571   0.240  0.5068 -0.1856 -0.2296
   27c3c     C1   55   2.178   0.444   0.415  0.0368  0.1037 -0.7427
   27c3c     C2   56   2.092   0.596   0.246  0.0044  0.6011  0.6541
   27c3c     C2   57   2.053   0.515   0.374 -0.5569  0.2003 -0.0597
   27c3c     C1   58   2.199   0.334   0.195  0.3153 -0.4485  0.2045
   27c3c     C1   59   2.404   0.401   0.314 -0.1519  0.0469 -0.8075
   27c3c     H1   60   2.272   0.582   0.136 -1.3498  1.5108 -0.5935
   27c3c     H1   61   2.286   0.652   0.298  1.7567 -0.1988 -1.1119
   27c3c     H1   62   2.151   0.346   0.456  2.1064 -0.0389  0.3331
   27c3c     H1   63   2.225   0.513   0.483  0.7297  0.5642 -1.6776
   27c3c     HC   64   2.045   0.551   0.159  0.2144 -1.7513  1.7057
   27c3c     HC   65   2.062   0.700   0.248 -0.8574  0.3973 -1.2908
   27c3c     HC   66   1.977   0.439   0.355 -1.5920  0.6514  2.0667
   27c3c     HC   67   2.017   0.564   0.464  0.5906  0.5297  0.2279
   27c3c     H1   68   2.229   0.360   0.093  1.0457  2.2322  1.0452
   27c3c     H1   69   2.221   0.231   0.221 -0.7848 -0.9958 -0.9888
   27c3c     H1   70   2.090   0.335   0.190  0.3528 -1.8714 -1.4314
   27c3c     H1   71   2.410   0.301   0.357 -1.4177 -0.6137 -2.0977
   27c3c     H1   72   2.449   0.398   0.214 -2.5433 -1.0651 -1.9047
   27c3c     C2   73   2.490   0.498   0.404  0.3353 -0.0571 -0.2150
   27c3c     HC   74   2.445   0.498   0.503 -0.3648  1.3637 -0.5317
   27c3c     HC   75   2.493   0.595   0.355 -0.5881  0.3145  0.4522
   27c3c     CT   76   2.634   0.455   0.429 -0.7994  0.0574  0.2939
   27c3c     HC   77   2.636   0.347   0.438 -1.0285  0.1603  1.6337
   27c3c     HC   78   2.671   0.500   0.521  1.0154 -0.0005 -0.3914
   27c3c     HC   79   2.703   0.483   0.348  1.1654  0.1774  1.9666
   28c3c     N4   80   2.314   1.304   1.050 -0.8454  1.0644 -0.2709
   28c3c     C1   81   2.292   1.209   0.945  0.3527  0.2254  0.2387
   28c3c     C1   82   2.196   1.389   1.059 -0.2013  0.1406  0.3088
   28c3c     C2   83   2.140   1.179   0.950 -0.0957 -0.2632 -0.1593
   28c3c     C2   84   2.089   1.318   0.974  0.1741  0.0071 -0.5580
   28c3c     C1   85   2.340   1.233   1.176  0.7409  0.1628 -0.5543
   28c3c     C1   86   2.436   1.384   1.029  0.1105  0.8596  0.3120
   28c3c     H1   87   2.358   1.122   0.955 -0.4873 -0.4082  0.2698
   28c3c     H1   88   2.294   1.259   0.848  0.0553 -1.5590 -0.6973
   28c3c     H1   89   2.169   1.402   1.164  0.4170  2.7047  0.1947
   28c3c     H1   90   2.215   1.488   1.016  1.2794 -0.3869 -0.2817
   28c3c     HC   91   2.117   1.115   1.035  0.8060  0.1938  0.4443
   28c3c     HC   92   2.091   1.131   0.866 -0.2409 -2.6609  1.2680
   28c3c     HC   93   1.990   1.308   1.018 -0.2973  1.2373 -1.3042
   28c3c     HC   94   2.077   1.377   0.883 -2.3484 -0.4722 -0.5605
   28c3c     H1   95   2.436   1.181   1.180  0.6159  0.0777  1.5388
   28c3c     H1   96   2.341   1.300   1.262 -1.1185 -1.9388  1.1449
   28c3c     H1   97   2.253   1.171   1.197  2.8115 -2.1275  1.4312
   28c3c     H1   98   2.444   1.460   1.106  0.8299 -0.1279  1.2396
   28c3c     H1   99   2.523   1.319   1.042 -1.1429 -0.5760  1.6627
   28c3c     C2  100   2.474   1.442   0.889 -0.0888  0.2372 -1.0988
   28c3c     HC  101   2.398   1.511   0.854 -1.2636 -0.4332  0.0688
   28c3c     HC  102   2.480   1.365   0.812 -1.6786 -4.0429  2.7928
   28c3c     CT  103   2.606   1.521   0.891 -0.4258  0.3090 -0.0817
   28c3c     HC  104   2.635   1.543   0.788  0.4423  1.4032  0.3829
   28c3c     HC  105   2.690   1.465   0.930 -0.1626  1.1286  0.5467
   28c3c     HC  106   2.594   1.615   0.946  1.6254  0.1055  0.7419
   29c3c     N4  107   0.720   4.096   0.459 -0.2627 -0.2534 -0.0785
   29c3c     C1  108   0.654   4.116   0.586 -0.4820  0.6566 -1.0862
   29c3c     C1  109   0.636   4.156   0.355 -0.4735  0.1586 -0.4777
   29c3c     C2  110   0.575   4.244   0.579  0.2543  0.2472  0.0277
   29c3c     C2  111   0.580   4.280   0.433  0.2776 -0.2331  0.6579
   29c3c     C1  112   0.852   4.167   0.463 -0.5278 -0.1346 -0.2373
   29c3c     C1  113   0.755   3.957   0.436  0.0503  0.6439 -0.1293
   29c3c     H1  114   0.727   4.116   0.667 -0.1604  1.1620 -1.3764
   29c3c     H1  115   0.588   4.030   0.599 -1.5139  1.7807  1.3570
   29c3c     H1  116   0.681   4.184   0.260 -0.5561  1.7609 -0.0719
   29c3c     H1  117   0.556   4.086   0.332 -2.4346  1.8270  1.0234
   29c3c     HC  118   0.612   4.320   0.646 -0.7280  0.0684  0.7807
   29c3c     HC  119   0.471   4.223   0.606 -0.2655  0.6131 -1.6312
   29c3c     HC  120   0.636   4.373   0.422 -0.3960  0.5503  3.5385
   29c3c     HC  121   0.480   4.300   0.396  0.1905  0.0262  1.0328
   29c3c     H1  122   0.920   4.130   0.540 -0.9676  1.0615  0.7441
   29c3c     H1  123   0.919   4.151   0.379  1.3541  2.8976  0.6114
   29c3c     H1  124   0.841   4.275   0.475  1.4065  0.0553  0.0055
   29c3c     H1  125   0.828   3.949   0.355 -0.9073 -0.4468 -0.9131
   29c3c     H1  126   0.796   3.913   0.527  0.0638 -0.4443 -0.6516
   29c3c     C2  127   0.640   3.862   0.395  0.2495 -0.2391 -0.4498
   29c3c     HC  128   0.601   3.889   0.297  1.8814  1.2763 -0.6989
   29c3c     HC  129   0.561   3.867   0.469 -0.5498  1.7098 -1.3857
   29c3c     CT  130   0.688   3.720   0.383  0.3190  0.0847  0.1259
   29c3c     HC  131   0.773   3.706   0.450  0.0809 -0.4003  0.3337
   29c3c     HC  132   0.730   3.703   0.283 -1.2115  1.7507 -0.8273
   29c3c     HC  133   0.610   3.644   0.389 -1.0676  1.3860 -0.9892
   30c3c     N4  134   2.014   4.711   1.698 -0.2835 -0.0903  0.2530
   30c3c     C1  135   1.887   4.680   1.766 -0.0674  0.4078  1.0710
   30c3c     C1  136   2.086   4.588   1.733 -0.2888 -0.1540  0.2919
   30c3c     C2  137   1.859   4.531   1.767 -0.0411  0.3603 -0.2457
   30c3c     C2  138   1.995   4.464   1.737  0.0028  0.1473  0.7478
   30c3c     C1  139   1.989   4.712   1.555  0.0096 -0.4580 -0.5217
   30c3c     C1  140   2.074   4.840   1.738 -0.5606  0.0826 -0.4499
   30c3c     H1  141   1.797   4.738   1.746 -1.1884 -0.8114  2.5080
   30c3c     H1  142   1.897   4.706   1.872 -1.0393  1.9643  0.7998
   30c3c     H1  143   2.174   4.571   1.671  0.2627 -0.2858  1.0940
   30c3c     H1  144   2.133   4.597   1.831  0.0982 -2.6583  0.3733
   30c3c     HC  145   1.807   4.495   1.678 -1.2448 -1.1860  1.0560
   30c3c     HC  146   1.807   4.489   1.852 -0.2305 -0.2136 -0.6393
   30c3c     HC  147   2.005   4.429   1.635  1.3421  1.0472  0.5559
   30c3c     HC  148   2.035   4.387   1.803  0.3162  1.3415  1.9967
   30c3c     H1  149   1.921   4.796   1.536  0.3216  0.1574  1.0557
   30c3c     H1  150   2.084   4.730   1.504  1.4096  0.0983  2.1766
   30c3c     H1  151   1.937   4.623   1.520  0.8375 -1.6097  1.1116
   30c3c     H1  152   2.162   4.860   1.677 -1.0789  2.9749 -0.3044
   30c3c     H1  153   1.998   4.914   1.715 -2.1712 -0.9641  1.3527
   30c3c     C2  154   2.119   4.856   1.884  0.5106 -0.0470 -0.4529
   30c3c     HC  155   2.205   4.793   1.902  1.4851  1.3413 -0.1628
   30c3c     HC  156   2.034   4.828   1.947  0.6864 -0.8268 -0.5652
   30c3c     CT  157   2.139   5.007   1.917 -0.2026  0.2642  0.0223
   30c3c     HC  158   2.240   5.034   1.887  0.5636 -2.1997  0.2812
   30c3c     HC  159   2.125   5.025   2.024 -0.6604 -0.0564  0.0203
   30c3c     HC  160   2.063   5.071   1.872  0.8905  0.1143 -2.0463
   31c3c     N4  161   1.456   3.870   0.063 -0.1362  0.3158  0.1526
   31c3c     C1  162   1.575   3.840  -0.016 -0.0047  0.1408 -0.1931
   31c3c     C1  163   1.509   3.929   0.186 -0.3330 -1.1048 -0.6726
   31c3c     C2  164   1.669   3.955   0.010 -0.2532  0.0293  0.2277
   31c3c     C2  165   1.651   3.987   0.154 -0.2529  0.3782  0.1155
   31c3c     C1  166   1.389   3.983  -0.002  0.0073  0.2628  0.2293
   31c3c     C1  167   1.357   3.757   0.079 -0.4136  0.1736  0.0126
   31c3c     H1  168   1.564   3.828  -0.124 -0.6736 -2.5462  0.1463
   31c3c     H1  169   1.609   3.742   0.016 -4.5918 -1.2153  1.0364
   31c3c     H1  170   1.439   4.005   0.221 -0.7641 -1.6708 -0.2926
   31c3c     H1  171   1.529   3.875   0.278 -1.7099  2.0236  1.5826
   31c3c     HC  172   1.643   4.041  -0.053  0.9824  0.5154  0.3544
   31c3c     HC  173   1.771   3.941  -0.028 -0.5947  0.9803 -1.0962
   31c3c     HC  174   1.654   4.090   0.190  0.7060  0.6117 -0.6379
   31c3c     HC  175   1.727   3.929   0.206 -1.1549 -1.9843 -1.1742
   31c3c     H1  176   1.357   3.959  -0.104 -2.1226 -1.9174  1.3475
   31c3c     H1  177   1.299   4.015   0.050 -0.7767 -2.1539  0.4554
   31c3c     H1  178   1.442   4.077  -0.013 -1.7921  1.3376  0.5119
   31c3c     H1  179   1.292   3.792   0.159 -0.4268 -0.8677  0.4595
   31c3c     H1  180   1.289   3.750  -0.006  0.3786 -1.9242 -0.4672
   31c3c     C2  181   1.413   3.624   0.133  0.4410 -0.3592  0.2358
   31c3c     HC  182   1.485   3.649   0.210  0.4862 -3.2466  1.2070
   31c3c     HC  183   1.464   3.567   0.055 -2.1214 -1.9713 -0.3292
   31c3c     CT  184   1.304   3.526   0.179 -0.1926 -0.9399  0.2747
   31c3c     HC  185   1.251   3.486   0.093 -1.4038  0.7009  0.2455
   31c3c     HC  186   1.239   3.572   0.254  1.1333  0.3802  0.6315
   31c3c     HC  187   1.340   3.440   0.236 -0.1678  0.0116  1.7265
   32c3c     N4  188   0.496   3.621   4.734  0.3237 -0.2626  0.3384
   32c3c     C1  189   0.574   3.660   4.856  0.5571  0.4519 -0.5324
   32c3c     C1  190   0.431   3.496   4.783  0.3311  0.4417  0.1139
   32c3c     C2  191   0.477   3.639   4.979 -0.1898  0.2358  0.1562
   32c3c     C2  192   0.406   3.508   4.941  0.3389  0.3316  0.0161
   32c3c     C1  193   0.390   3.721   4.700 -0.3086  0.4168 -0.1491
   32c3c     C1  194   0.567   3.606   4.609 -0.4862  0.0211 -0.1882
   32c3c     H1  195   0.598   3.766   4.858 -0.2629  0.6550 -1.1647
   32c3c     H1  196   0.664   3.601   4.874 -0.5359 -1.2798 -0.5995
   32c3c     H1  197   0.344   3.465   4.725 -0.2867 -0.8664  1.6807
   32c3c     H1  198   0.504   3.417   4.770 -0.1167 -0.3420  2.1726
   32c3c     HC  199   0.419   3.730   4.995  0.3357  0.4904  0.6344
   32c3c     HC  200   0.538   3.633   5.069 -0.3607 -0.3598  0.2302
   32c3c     HC  201   0.300   3.514   4.965  0.1742  0.3365 -0.7150
   32c3c     HC  202   0.451   3.434   5.007 -1.3299  0.3118  1.1772
   32c3c     H1  203   0.439   3.818   4.697  0.3372  0.0993  0.1707
   32c3c     H1  204   0.348   3.702   4.601  0.9774  2.1929 -1.0573
   32c3c     H1  205   0.309   3.725   4.773 -0.9920  2.6778 -1.0028
   32c3c     H1  206   0.510   3.573   4.522 -1.1289 -0.4023  0.3886
   32c3c     H1  207   0.599   3.709   4.589 -0.4378  0.0650  0.1136
   32c3c     C2  208   0.681   3.507   4.614  0.0526  0.0225  0.4594
   32c3c     HC  209   0.642   3.407   4.594 -2.6369  1.1519 -0.1443
   32c3c     HC  210   0.730   3.521   4.710  1.5043  0.0450 -0.2755
   32c3c     CT  211   0.786   3.541   4.507 -0.8511  0.6015  0.7343
   32c3c     HC  212   0.838   3.635   4.526 -1.3180  0.8888  0.5853
   32c3c     HC  213   0.736   3.551   4.412  0.5419 -0.3184 -0.1192
   32c3c     HC  214   0.847   3.455   4.479 -1.5429  0.4827 -0.3881
   33c3c     N4  215   1.981   0.321   1.581  0.7811  0.0219 -0.2398
   33c3c     C1  216   2.120   0.282   1.621 -0.4596 -0.0079  0.0074
   33c3c     C1  217   1.992   0.437   1.493 -0.5313 -0.5582 -0.3783
   33c3c     C2  218   2.197   0.314   1.493  0.2827 -0.4142 -0.2556
   33c3c     C2  219   2.101   0.386   1.405 -0.2516 -0.7211  0.0085
   33c3c     C1  220   1.924   0.203   1.517  0.4913  0.2134  0.4575
   33c3c     C1  221   1.885   0.364   1.688  0.4798 -0.1159 -0.3221
   33c3c     H1  222   2.125   0.177   1.649 -1.3603  0.8651  3.6887
   33c3c     H1  223   2.167   0.333   1.706 -1.4485  0.2192  0.4222
   33c3c     H1  224   1.905   0.467   1.435 -2.1709 -1.4973  1.5244
   33c3c     H1  225   2.041   0.526   1.534 -0.9577 -0.9146  0.9378
   33c3c     HC  226   2.235   0.227   1.439 -0.4460 -2.2423  2.0740
   33c3c     HC  227   2.287   0.373   1.506 -0.1309  0.0449  0.5945
   33c3c     HC  228   2.054   0.329   1.325 -1.4445  1.4839 -0.8975
   33c3c     HC  229   2.149   0.473   1.359 -0.7597  0.0770  0.9505
   33c3c     H1  230   1.896   0.118   1.580  1.1241 -1.8094 -1.8895
   33c3c     H1  231   1.830   0.223   1.464  0.4822  0.5932  0.6142
   33c3c     H1  232   1.991   0.154   1.446 -2.1982 -1.0197 -1.3229
   33c3c     H1  233   1.787   0.391   1.647  0.9210  0.5676 -0.9304
   33c3c     H1  234   1.878   0.283   1.761 -0.6072  0.0834 -0.1975
   33c3c     C2  235   1.926   0.487   1.770 -0.3880  0.3640  0.1207
   33c3c     HC  236   1.945   0.576   1.710 -0.3703 -0.7745 -1.5832
   33c3c     HC  237   2.014   0.465   1.831 -0.8222  1.0909  1.0247
   33c3c     CT  238   1.817   0.527   1.875 -0.0677 -0.6065 -0.4731
   33c3c     HC  239   1.839   0.624   1.920 -2.3285 -0.5462  0.6145
   33c3c     HC  240   1.797   0.450   1.951 -1.8002  1.7052  1.5122
   33c3c     HC  241   1.718   0.539   1.831  0.8969  3.9094 -1.6404
   34c3c     N4  242   1.251   4.088   4.610  0.3153  0.0509 -0.6096
   34c3c     C1  243   1.329   4.146   4.502  0.0878  0.0649  0.1333
   34c3c     C1  244   1.149   4.187   4.647  0.1068  0.1234  0.3359
   34c3c     C2  245   1.231   4.220   4.420 -0.4065  0.3995  0.3616
   34c3c     C2  246   1.121   4.260   4.514 -0.1836  0.9293 -0.2072
   34c3c     C1  247   1.174   3.969   4.567  0.0235  0.3408 -0.8152
   34c3c     C1  248   1.345   4.042   4.719 -0.0153  0.0472  0.1834
   34c3c     H1  249   1.374   4.061   4.451 -2.8906 -1.7462  0.4413
   34c3c     H1  250   1.414   4.210   4.528  0.9592 -0.7790 -0.6106
   34c3c     H1  251   1.051   4.155   4.682 -0.9158 -2.0075 -4.0579
   34c3c     H1  252   1.197   4.253   4.719  1.8645  0.6465 -1.2811
   34c3c     HC  253   1.197   4.151   4.342 -0.0247 -1.8419  2.1427
   34c3c     HC  254   1.285   4.303   4.375 -0.4283 -0.6948 -1.7728
   34c3c     HC  255   1.024   4.232   4.472  0.1147  0.7532 -0.7888
   34c3c     HC  256   1.118   4.367   4.530  0.9767  1.0468 -0.7120
   34c3c     H1  257   1.245   3.895   4.530  1.4043  0.4608  1.5110
   34c3c     H1  258   1.114   3.922   4.645  0.9780 -0.1583 -0.3758
   34c3c     H1  259   1.108   3.988   4.482  1.0868 -0.2527 -1.7981
   34c3c     H1  260   1.284   3.982   4.787  1.6985 -0.0383  1.6965
   34c3c     H1  261   1.405   3.962   4.675 -0.7456  0.2369 -1.1626
   34c3c     C2  262   1.451   4.137   4.777 -0.1836 -0.5241 -0.3200
   34c3c     HC  263   1.394   4.219   4.821 -0.5620 -0.6269 -0.6077
   34c3c     HC  264   1.518   4.181   4.704 -0.7841  0.7148 -0.1263
   34c3c     CT  265   1.538   4.077   4.884  0.3182 -0.3638  0.3076
   34c3c     HC  266   1.618   4.144   4.913 -0.9042  0.8387  0.9418
   34c3c     HC  267   1.582   3.981   4.857  0.0199 -0.3400 -0.2668
   34c3c     HC  268   1.486   4.045   4.975 -0.8741 -1.8381 -0.8429
   35c3c     N4  269   2.955   1.745   1.341 -0.3000 -0.4318 -0.5134
   35c3c     C1  270   2.942   1.629   1.251 -0.4794  0.2130  0.2912
   35c3c     C1  271   2.934   1.859   1.254 -0.1467 -0.2436 -0.1670
   35c3c     C2  272   2.839   1.663   1.146 -0.4714 -0.2314  0.0218
   35c3c     C2  273   2.835   1.815   1.143 -0.3038  0.2304  0.8397
   35c3c     C1  274   2.845   1.729   1.442 -0.3665  0.0246  0.1489
   35c3c     C1  275   3.079   1.764   1.416  0.3742  0.1781 -0.4555
   35c3c     H1  276   2.929   1.533   1.301 -1.5071  0.9117  1.4164
   35c3c     H1  277   3.030   1.618   1.189 -1.1506 -0.6088 -0.5274
   35c3c     H1  278   2.884   1.936   1.312 -1.3943 -0.6312 -0.6990
   35c3c     H1  279   3.031   1.886   1.213  0.8088 -0.6454  1.8084
   35c3c     HC  280   2.740   1.627   1.171 -0.1853 -1.0576  0.0137
   35c3c     HC  281   2.867   1.612   1.053 -2.4741  0.2748 -0.8824
   35c3c     HC  282   2.734   1.856   1.151 -0.4353  0.1188 -0.1879
   35c3c     HC  283   2.865   1.864   1.050 -1.3203  0.0688  0.4138
   35c3c     H1  284   2.859   1.643   1.507  1.5555  0.0742 -0.1882
   35c3c     H1  285   2.838   1.817   1.506 -0.9678 -0.0715  0.2235
   35c3c     H1  286   2.742   1.735   1.405  0.3754  2.5541 -1.6680
   35c3c     H1  287   3.083   1.863   1.462  2.7750 -0.1416  0.0591
   35c3c     H1  288   3.090   1.701   1.504  0.5502 -0.0936 -0.6726
   35c3c     C2  289   3.207   1.728   1.335  0.0792  0.2994  0.7829
   35c3c     HC  290   3.183   1.750   1.231  1.6392  0.6011  0.4644
   35c3c     HC  291   3.221   1.620   1.327 -0.2476  0.3374 -0.5545
   35c3c     CT  292   3.338   1.793   1.377 -0.0499 -0.6399  0.8340
   35c3c     HC  293   3.407   1.716   1.412 -0.0696 -0.3536  1.5164
   35c3c     HC  294   3.311   1.857   1.462 -3.3724  1.6302 -1.7839
   35c3c     HC  295   3.380   1.850   1.294 -0.5505  1.9366  2.2911
   36c3c     N4  296   1.823   0.663   0.956  0.4468 -0.6484 -0.0677
   36c3c     C1  297   1.850   0.644   1.100  0.2085  0.7632  0.0865
   36c3c     C1  298   1.800   0.808   0.944 -0.2272 -0.0116  0.3119
   36c3c     C2  299   1.935   0.758   1.142 -0.2238 -0.0446  0.1647
   36c3c     C2  300   1.909   0.866   1.039  0.7154  0.1882  0.1498
   36c3c     C1  301   1.940   0.618   0.881  0.2792 -0.3237 -0.2827
   36c3c     C1  302   1.703   0.591   0.904  0.7958  0.4262  0.5231
   36c3c     H1  303   1.893   0.547   1.124  2.3231  1.7018  0.1493
   36c3c     H1  304   1.762   0.652   1.165 -0.7157  1.4558 -1.2115
   36c3c     H1  305   1.798   0.846   0.841 -2.3397  0.2519  0.4185
   36c3c     H1  306   1.700   0.822   0.986 -0.5362  0.9650 -0.7155
   36c3c     HC  307   2.038   0.724   1.132 -0.4442 -0.8666  0.6621
   36c3c     HC  308   1.925   0.797   1.243  0.0617  1.4329 -0.3511
   36c3c     HC  309   1.995   0.890   0.977  1.1419  0.4082  0.8186
   36c3c     HC  310   1.869   0.951   1.095 -3.0655 -0.8690 -0.7771
   36c3c     H1  311   1.980   0.524   0.916  0.0985  0.0782  1.0521
   36c3c     H1  312   1.913   0.613   0.775  1.9468  0.6853 -0.7771
   36c3c     H1  313   2.029   0.680   0.890  0.5713 -0.6492 -0.8915
   36c3c     H1  314   1.675   0.628   0.805 -2.6599 -1.3111  0.7968
   36c3c     H1  315   1.730   0.486   0.901  1.1363  0.4666  1.8212
   36c3c     C2  316   1.566   0.586   0.983  0.4955  0.5526  0.6855
   36c3c     HC  317   1.508   0.679   0.978  0.3835  0.5696  2.2455
   36c3c     HC  318   1.580   0.566   1.089  1.9033  0.3919  0.4736
   36c3c     CT  319   1.466   0.474   0.945 -0.3161  0.4971  0.5531
   36c3c     HC  320   1.370   0.489   0.994  0.0587 -1.3589  1.8966
   36c3c     HC  321   1.506   0.378   0.978 -1.0301 -0.2855 -0.7916
   36c3c     HC  322   1.447   0.453   0.839 -0.3361  1.5982  0.3300
   37c3c     N4  323   1.238   4.591   0.187  0.4920 -0.4285 -0.4180
   37c3c     C1  324   1.329   4.697   0.162 -0.4355  0.2310  0.1984
   37c3c     C1  325   1.178   4.639   0.312  0.0830 -0.4742  0.6343
   37c3c     C2  326   1.252   4.825   0.175 -0.5773  0.0858 -0.3242
   37c3c     C2  327   1.151   4.787   0.279  0.6208 -0.4283 -0.1202
   37c3c     C1  328   1.151   4.583   0.072  1.3619 -0.7870 -0.8812
   37c3c     C1  329   1.308   4.462   0.205 -0.6926 -0.1837  0.4871
   37c3c     H1  330   1.379   4.694   0.065  2.2623 -0.5557  1.5492
   37c3c     H1  331   1.413   4.709   0.231  0.7447 -0.0139 -1.1715
   37c3c     H1  332   1.087   4.587   0.344 -1.6674  3.4578  2.3318
   37c3c     H1  333   1.236   4.628   0.404 -0.2706  0.1952  0.9422
   37c3c     HC  334   1.205   4.867   0.086  1.9844  0.5713 -1.4872
   37c3c     HC  335   1.312   4.901   0.224 -1.4681  0.2900  0.4771
   37c3c     HC  336   1.048   4.786   0.243  0.9508 -3.0297 -1.1347
   37c3c     HC  337   1.169   4.840   0.372  0.9608  0.1540 -0.5138
   37c3c     H1  338   1.202   4.527  -0.006  2.4124  1.0717 -1.5577
   37c3c     H1  339   1.061   4.532   0.108  1.0333  0.0683 -0.4746
   37c3c     H1  340   1.111   4.675   0.028 -0.2105 -0.3535  1.3831
   37c3c     H1  341   1.232   4.384   0.219  0.4869 -1.1693  1.4881
   37c3c     H1  342   1.358   4.440   0.110 -0.5143  1.2423  0.2376
   37c3c     C2  343   1.419   4.449   0.312  0.2913 -0.1518  0.3021
   37c3c     HC  344   1.389   4.484   0.411 -0.6494 -0.2567  0.0643
   37c3c     HC  345   1.499   4.516   0.279  0.3910  0.3099  1.4720
   37c3c     CT  346   1.469   4.304   0.325  0.4801 -0.8007  0.2141
   37c3c     HC  347   1.498   4.259   0.230  0.4763 -0.9323  0.2751
   37c3c     HC  348   1.399   4.234   0.372 -1.0853 -0.1057 -1.0423
   37c3c     HC  349   1.559   4.291   0.385  1.1487 -0.4477 -0.7085
   38c3c     N4  350   1.460   5.102   0.607  0.0933 -0.9459  0.3919
   38c3c     C1  351   1.473   5.246   0.597 -0.1346 -0.7424 -0.0871
   38c3c     C1  352   1.330   5.071   0.554  0.4844 -0.2803 -0.4304
   38c3c     C2  353   1.387   5.293   0.477 -0.0855  0.0773  0.0484
   38c3c     C2  354   1.312   5.164   0.436 -0.5419  0.8539 -0.1578
   38c3c     C1  355   1.565   5.037   0.519 -0.2134 -0.3839  0.6172
   38c3c     C1  356   1.474   5.033   0.736  0.1122 -0.4411 -0.0472
   38c3c     H1  357   1.575   5.285   0.595 -0.3442 -0.2747 -2.7138
   38c3c     H1  358   1.423   5.295   0.681 -1.2093 -1.5879 -0.2210
   38c3c     H1  359   1.323   4.971   0.511 -1.1649  0.3578 -1.7286
   38c3c     H1  360   1.253   5.098   0.627  0.8541  2.3091 -0.9353
   38c3c     HC  361   1.443   5.342   0.397  0.0047 -1.7171 -1.0017
   38c3c     HC  362   1.295   5.350   0.493 -0.7915 -1.0236 -0.0449
   38c3c     HC  363   1.366   5.128   0.348 -0.8577  0.1612 -0.0710
   38c3c     HC  364   1.207   5.177   0.407 -1.3498 -1.9353  1.3835
   38c3c     H1  365   1.663   5.058   0.562  1.0343 -1.9780 -1.3361
   38c3c     H1  366   1.561   4.928   0.525 -1.5334 -0.4450 -1.0582
   38c3c     H1  367   1.573   5.063   0.413 -0.7900  1.7781  1.0727
   38c3c     H1  368   1.459   4.926   0.725  0.0859 -0.2826 -1.5847
   38c3c     H1  369   1.575   5.044   0.774  0.0970 -0.0825 -0.1109
   38c3c     C2  370   1.388   5.080   0.859 -0.6349 -0.6007  0.1136
   38c3c     HC  371   1.349   5.182   0.850 -1.6793 -1.1467 -1.7940
   38c3c     HC  372   1.453   5.065   0.945 -0.4693  1.1977  0.3184
   38c3c     CT  373   1.269   4.991   0.892 -0.1655 -1.3272  0.3196
   38c3c     HC  374   1.235   5.023   0.990 -2.2394 -1.8471 -0.1979
   38c3c     HC  375   1.295   4.886   0.908  1.4077 -0.8517  0.8860
   38c3c     HC  376   1.177   4.997   0.834 -0.6861  0.7776  1.3246
   39c3c     N4  377   2.504   1.855   2.208  0.1839 -0.2651 -0.3388
   39c3c     C1  378   2.570   1.964   2.273  0.1062  0.6776  0.6319
   39c3c     C1  379   2.468   1.911   2.072 -0.7027 -0.4951  0.3625
   39c3c     C2  380   2.645   2.036   2.160 -0.5282 -0.5753 -0.0759
   39c3c     C2  381   2.576   2.007   2.028  0.1624  0.1942  0.0849
   39c3c     C1  382   2.608   1.749   2.182 -0.4647  0.1316  0.2539
   39c3c     C1  383   2.393   1.799   2.293 -0.2437  0.5550  0.8098
   39c3c     H1  384   2.630   1.941   2.361 -0.2281  1.2256  1.0038
   39c3c     H1  385   2.484   2.026   2.300 -0.3849  0.5951 -0.6808
   39c3c     H1  386   2.445   1.831   2.002  1.2387 -1.2291  0.5259
   39c3c     H1  387   2.377   1.970   2.067  0.9039  2.3098  2.2190
   39c3c     HC  388   2.750   2.008   2.162 -0.5425 -0.8394 -1.8296
   39c3c     HC  389   2.662   2.143   2.170  1.3095 -0.8793  0.1986
   39c3c     HC  390   2.647   1.955   1.964  0.4033 -0.2540  0.7140
   39c3c     HC  391   2.549   2.097   1.973  0.2475 -0.8922 -1.7460
   39c3c     H1  392   2.634   1.695   2.273  2.0501 -1.4598 -1.3720
   39c3c     H1  393   2.578   1.671   2.112  2.7860  1.3080 -2.5340
   39c3c     H1  394   2.701   1.786   2.139 -0.4573 -0.4292 -0.2194
   39c3c     H1  395   2.351   1.713   2.239  0.0943 -0.5665  2.2837
   39c3c     H1  396   2.432   1.753   2.384 -0.9546 -1.5289  0.0985
   39c3c     C2  397   2.267   1.877   2.325  0.3067  0.6138  0.2072
   39c3c     HC  398   2.212   1.901   2.234 -0.2768  0.1820  0.4414
   39c3c     HC  399   2.291   1.970   2.376  0.1408 -0.9930  3.3179
   39c3c     CT  400   2.169   1.798   2.424  0.9406  0.2860  0.0607
   39c3c     HC  401   2.133   1.704   2.383 -0.3823  0.4221  0.8891
   39c3c     HC  402   2.090   1.870   2.446 -0.1194 -1.3235  1.5675
   39c3c     HC  403   2.209   1.781   2.523 -0.7193  0.5375  0.7935
   40c3c     N4  404   1.039   5.235   4.654  0.8756 -0.2487 -0.4537
   40c3c     C1  405   1.105   5.153   4.751  0.0606  0.9178  1.1407
   40c3c     C1  406   1.018   5.367   4.716  0.4074 -0.8603  1.0385
   40c3c     C2  407   1.200   5.242   4.835 -0.0051 -0.2004  0.2223
   40c3c     C2  408   1.151   5.385   4.802 -0.5845 -0.4608 -0.6701
   40c3c     C1  409   1.138   5.246   4.539  0.8228 -0.3933 -0.3580
   40c3c     C1  410   0.913   5.177   4.596  0.4277  0.5923 -0.3630
   40c3c     H1  411   1.163   5.073   4.706  0.5928  2.4766 -1.0906
   40c3c     H1  412   1.039   5.115   4.829  1.0439  0.8734  1.9646
   40c3c     H1  413   1.003   5.451   4.649  0.4850 -0.1795  1.8581
   40c3c     H1  414   0.934   5.365   4.785 -1.1106  1.0578 -0.7215
   40c3c     HC  415   1.305   5.217   4.818 -0.6439 -2.5668 -0.4349
   40c3c     HC  416   1.184   5.224   4.941  0.4245 -2.5389 -0.0871
   40c3c     HC  417   1.230   5.433   4.745  1.1304 -1.1688  1.0588
   40c3c     HC  418   1.121   5.443   4.889 -0.1537 -0.9220 -0.2127
   40c3c     H1  419   1.160   5.163   4.473  1.8118  0.2364 -0.8288
   40c3c     H1  420   1.103   5.334   4.485  0.2371 -0.7865 -0.6241
   40c3c     H1  421   1.238   5.275   4.572  0.7506 -0.7807  0.2076
   40c3c     H1  422   0.872   5.238   4.516  1.3455 -0.8248 -1.9355
   40c3c     H1  423   0.941   5.083   4.549 -0.4234  1.0494 -1.7932
   40c3c     C2  424   0.792   5.140   4.696 -0.3411 -0.6578  0.1416
   40c3c     HC  425   0.749   5.219   4.758  1.1328  0.8431 -0.7067
   40c3c     HC  426   0.827   5.062   4.763  1.5630  0.6263  0.6636
   40c3c     CT  427   0.699   5.062   4.605 -0.1391 -0.2858  0.6691
   40c3c     HC  428   0.616   5.025   4.665  0.0674 -0.1657  1.0320
   40c3c     HC  429   0.748   4.977   4.558 -0.5533 -0.0246 -0.2544
   40c3c     HC  430   0.656   5.117   4.521  0.7960  0.2145  0.5090
   41c3c     N4  431   2.921   0.671   2.352  0.3397  0.0633  0.0224
   41c3c     C1  432   3.008   0.771   2.296  0.0134 -0.2204  0.3039
   41c3c     C1  433   2.887   0.591   2.237 -0.5512  0.4539 -0.3130
   41c3c     C2  434   3.085   0.705   2.178  0.0291  0.2540  0.0826
   41c3c     C2  435   3.014   0.580   2.148 -0.3312  0.0647  0.9584
   41c3c     C1  436   2.991   0.586   2.451 -0.0418  0.3623 -0.5395
   41c3c     C1  437   2.807   0.737   2.432 -0.2034 -0.4479  0.2720
   41c3c     H1  438   3.074   0.826   2.363  1.1744  0.0325 -1.0173
   41c3c     H1  439   2.942   0.846   2.252 -1.4683 -1.8723 -0.3490
   41c3c     H1  440   2.835   0.496   2.250  0.2065  0.1619  0.7449
   41c3c     H1  441   2.812   0.652   2.188 -3.7739 -1.3794  2.1644
   41c3c     HC  442   3.185   0.679   2.213 -0.9125  0.5262  3.1546
   41c3c     HC  443   3.097   0.782   2.102  0.6662 -0.6718 -0.7683
   41c3c     HC  444   3.075   0.494   2.176  0.1459  0.7641  2.1330
   41c3c     HC  445   2.997   0.567   2.041 -2.8899 -0.0718  1.3394
   41c3c     H1  446   3.024   0.640   2.540  0.7664  0.0732 -0.6559
   41c3c     H1  447   2.930   0.505   2.491  1.2118 -0.3493 -0.0622
   41c3c     H1  448   3.083   0.549   2.406  0.3214  0.8216 -0.1829
   41c3c     H1  449   2.760   0.656   2.488 -0.1916 -1.6543 -1.4040
   41c3c     H1  450   2.854   0.808   2.500 -1.4251 -1.1436  1.8765
   41c3c     C2  451   2.690   0.795   2.349  0.3086  0.4866  0.2557
   41c3c     HC  452   2.631   0.711   2.314  0.4616  0.5057 -0.0472
   41c3c     HC  453   2.729   0.852   2.265  0.2732  3.4698  2.1711
   41c3c     CT  454   2.601   0.887   2.424  0.4631  0.2751  0.8917
   41c3c     HC  455   2.649   0.978   2.460 -1.8519  2.1302 -0.5367
   41c3c     HC  456   2.556   0.833   2.508 -0.9555 -0.2574 -0.1850
   41c3c     HC  457   2.524   0.910   2.350  2.6112  0.4405 -1.3647
   42c3c     N4  458   2.046   4.783   0.388 -0.3342 -0.2928  0.2089
   42c3c     C1  459   2.045   4.733   0.247 -0.1596  0.2572  0.8515
   42c3c     C1  460   1.896   4.787   0.408 -0.4755 -0.2981 -0.0694
   42c3c     C2  461   1.937   4.628   0.240 -0.3357 -0.1647  0.4209
   42c3c     C2  462   1.843   4.654   0.357  0.2320  0.1007  0.6632
   42c3c     C1  463   2.116   4.694   0.476  0.3901 -0.3776  0.5175
   42c3c     C1  464   2.114   4.912   0.404 -0.2504 -0.5486  0.3102
   42c3c     H1  465   2.142   4.700   0.211 -0.0905 -0.1633  1.4241
   42c3c     H1  466   2.028   4.806   0.168  3.2369 -0.7839 -0.9433
   42c3c     H1  467   1.884   4.799   0.515 -0.1878  1.9828 -0.2662
   42c3c     H1  468   1.856   4.865   0.343  1.0211  0.2286 -0.3893
   42c3c     HC  469   1.987   4.532   0.252  0.5799  0.2234 -0.2225
   42c3c     HC  470   1.875   4.629   0.150  0.2098  1.1879  0.0466
   42c3c     HC  471   1.858   4.580   0.435 -0.6172 -0.1485  0.5936
   42c3c     HC  472   1.741   4.649   0.319  0.2534 -0.8743  0.7425
   42c3c     H1  473   2.221   4.697   0.448 -0.1519  0.4381 -1.4839
   42c3c     H1  474   2.104   4.724   0.580 -1.9514  1.3877 -0.2199
   42c3c     H1  475   2.083   4.591   0.466  2.0393 -0.8930  0.2690
   42c3c     H1  476   2.096   4.938   0.508  0.1707 -2.5025  0.8945
   42c3c     H1  477   2.222   4.916   0.388 -0.3222 -0.3270 -0.1332
   42c3c     C2  478   2.063   5.030   0.312 -0.0448 -0.5327 -0.3997
   42c3c     HC  479   1.961   5.058   0.340  1.0284  2.3470  0.8701
   42c3c     HC  480   2.081   5.014   0.206  1.6447  0.1339 -0.2307
   42c3c     CT  481   2.143   5.156   0.346  0.1801  0.2808 -0.6690
   42c3c     HC  482   2.234   5.157   0.286  0.6290  0.7609  0.0138
   42c3c     HC  483   2.174   5.156   0.450 -1.9412 -0.6277 -0.0151
   42c3c     HC  484   2.078   5.242   0.330 -1.4204 -0.7140  0.3045
   43c3c     N4  485   2.382   5.148   1.242  0.1086  0.2582  0.4889
   43c3c     C1  486   2.342   5.224   1.363 -0.1622 -0.1677  0.2014
   43c3c     C1  487   2.308   5.022   1.251  0.2903  1.0075  0.1969
   43c3c     C2  488   2.191   5.193   1.380 -0.0247 -0.0081 -0.3022
   43c3c     C2  489   2.172   5.057   1.310 -0.2483  0.6975  0.4376
   43c3c     C1  490   2.339   5.215   1.121 -0.1587  0.3481  0.3100
   43c3c     C1  491   2.527   5.139   1.224 -0.4828  0.1628 -0.8707
   43c3c     H1  492   2.356   5.332   1.351 -0.7264 -0.0022  0.9611
   43c3c     H1  493   2.391   5.198   1.456 -1.6205 -0.8381  0.8069
   43c3c     H1  494   2.298   4.968   1.156  2.4519  2.3644 -0.8513
   43c3c     H1  495   2.348   4.954   1.325 -0.6458 -2.7136 -2.5608
   43c3c     HC  496   2.124   5.274   1.352  0.2787  0.8977  1.4984
   43c3c     HC  497   2.153   5.170   1.479 -0.6065 -0.8366 -0.7116
   43c3c     HC  498   2.107   5.077   1.224  1.1482  1.1009 -0.5511
   43c3c     HC  499   2.133   4.978   1.373 -0.8305  0.2920 -0.4166
   43c3c     H1  500   2.389   5.311   1.114  0.0351  0.3478  1.6543
   43c3c     H1  501   2.351   5.166   1.024  0.1455 -0.2898  0.6647
   43c3c     H1  502   2.232   5.234   1.113 -0.0280  0.4936 -1.2011
   43c3c     H1  503   2.549   5.094   1.127 -1.2550 -1.1142 -0.4785
   43c3c     H1  504   2.566   5.240   1.227 -2.1328  0.8569 -2.1726
   43c3c     C2  505   2.595   5.060   1.336  0.3883 -0.5865  0.1437
   43c3c     HC  506   2.573   4.953   1.329  2.3167 -0.8943 -1.5733
   43c3c     HC  507   2.570   5.101   1.434  0.3743  2.5404 -1.1005
   43c3c     CT  508   2.741   5.075   1.333 -0.4181 -0.0633 -0.2154
   43c3c     HC  509   2.769   5.174   1.367  2.8406 -1.0074  0.0064
   43c3c     HC  510   2.778   5.057   1.232 -1.1876  3.3228 -1.1768
   43c3c     HC  511   2.793   5.012   1.405 -0.4333  0.4840  0.2777
   44c3c     N4  512   1.384   0.048   1.231 -0.1387  0.4174 -0.3393
   44c3c     C1  513   1.353  -0.097   1.219 -0.0254  0.7097  0.1433
   44c3c     C1  514   1.294   0.091   1.339  1.0377 -0.1178  0.2335
   44c3c     C2  515   1.321  -0.139   1.363 -0.5083  0.9506  0.0382
   44c3c     C2  516   1.301  -0.018   1.445  0.2585 -0.0699 -0.5894
   44c3c     C1  517   1.522   0.059   1.281  0.2296 -0.0045 -0.4814
   44c3c     C1  518   1.362   0.127   1.108 -0.7547  0.0650 -0.4630
   44c3c     H1  519   1.418  -0.172   1.176 -0.4219  1.1450 -1.2392
   44c3c     H1  520   1.253  -0.108   1.177  0.6686  0.4270 -1.4914
   44c3c     H1  521   1.326   0.188   1.376  0.3368  0.1201  0.2253
   44c3c     H1  522   1.195   0.101   1.294  1.2852  2.6786  0.2663
   44c3c     HC  523   1.404  -0.193   1.409 -0.5041 -0.1870 -1.2900
   44c3c     HC  524   1.230  -0.199   1.363 -0.4745  0.8836  1.0322
   44c3c     HC  525   1.391  -0.003   1.505 -1.1933  0.7456  1.4172
   44c3c     HC  526   1.216  -0.011   1.511  1.2224  1.0652  0.5491
   44c3c     H1  527   1.596   0.035   1.204 -0.5582 -1.7059 -0.7356
   44c3c     H1  528   1.537   0.166   1.294  0.9387 -0.1748  0.1395
   44c3c     H1  529   1.547   0.001   1.370  1.3834 -0.1136 -0.8648
   44c3c     H1  530   1.365   0.232   1.136 -2.3691  0.2341 -0.8484
   44c3c     H1  531   1.451   0.114   1.046 -0.6754 -0.8732 -0.1703
   44c3c     C2  532   1.224   0.111   1.029 -0.2287 -0.3162  0.0290
   44c3c     HC  533   1.135   0.146   1.081  0.0298 -0.1279  0.3513
   44c3c     HC  534   1.199   0.007   1.007 -0.2820 -0.1210 -0.8359
   44c3c     CT  535   1.232   0.187   0.902  0.3601  0.0501 -0.2299
   44c3c     HC  536   1.316   0.148   0.845  0.6850  0.3081  0.0705
   44c3c     HC  537   1.257   0.293   0.903  0.1486  0.1026  1.0955
   44c3c     HC  538   1.146   0.188   0.836  0.2616  1.4062 -0.0887
   45c3c     N4  539   2.087   4.328   0.966  0.4944 -0.7844  0.6067
   45c3c     C1  540   2.086   4.229   0.858 -0.0695 -0.0729  0.3594
   45c3c     C1  541   2.225   4.378   0.962  0.4881  0.4476  0.3766
   45c3c     C2  542   2.187   4.281   0.751  0.3950  0.7605 -0.4727
   45c3c     C2  543   2.266   4.392   0.817 -0.2087 -0.0931  0.6415
   45c3c     C1  544   2.006   4.455   0.936  0.1054  0.0869  0.2171
   45c3c     C1  545   2.048   4.276   1.096  0.2874 -0.0907 -0.0082
   45c3c     H1  546   1.986   4.208   0.820 -0.4230  0.5392  0.9452
   45c3c     H1  547   2.140   4.138   0.886 -0.0251 -0.3978 -0.7183
   45c3c     H1  548   2.237   4.470   1.019  1.5379  0.5412  0.0266
   45c3c     H1  549   2.301   4.309   0.999  0.9531  0.5026 -0.4503
   45c3c     HC  550   2.132   4.321   0.666  0.5115 -0.6258 -1.2294
   45c3c     HC  551   2.255   4.202   0.718 -0.7977 -0.6187  0.3079
   45c3c     HC  552   2.242   4.486   0.767  0.6255  0.7575  1.8045
   45c3c     HC  553   2.369   4.363   0.796  0.1513  0.1473  2.0169
   45c3c     H1  554   1.903   4.419   0.940 -0.2037  0.8637 -0.6114
   45c3c     H1  555   2.029   4.532   1.009 -2.1437 -1.3106  2.5259
   45c3c     H1  556   2.023   4.503   0.840  1.2136 -0.3559  0.1852
   45c3c     H1  557   2.050   4.357   1.169  0.1943  0.4364 -0.5949
   45c3c     H1  558   1.941   4.255   1.100  0.6086 -2.2019 -1.6504
   45c3c     C2  559   2.125   4.150   1.143  0.2191 -0.5581 -0.4145
   45c3c     HC  560   2.232   4.173   1.146 -0.0918  1.0448 -1.2411
   45c3c     HC  561   2.109   4.060   1.084  0.9296 -1.2924  0.4820
   45c3c     CT  562   2.090   4.111   1.287 -0.2327  1.0494 -0.0342
   45c3c     HC  563   1.985   4.085   1.298  0.0840  0.3224  1.3590
   45c3c     HC  564   2.119   4.191   1.356  2.8559 -0.5430  0.6344
   45c3c     HC  565   2.153   4.029   1.321 -0.8031 -0.0266 -1.5386
   46c3c     N4  566   1.103   4.257   1.145 -0.0895 -0.1679  0.5315
   46c3c     C1  567   1.159   4.329   1.263  0.1631 -0.1515  0.4880
   46c3c     C1  568   0.969   4.210   1.193 -0.4715 -0.3467 -0.0542
   46c3c     C2  569   1.048   4.410   1.329  0.2000 -0.8903 -0.0307
   46c3c     C2  570   0.933   4.311   1.299 -0.4311  0.5922  0.0441
   46c3c     C1  571   1.069   4.339   1.029  0.9067 -0.2392  0.4648
   46c3c     C1  572   1.195   4.156   1.099  0.6884 -0.2603 -0.7640
   46c3c     H1  573   1.237   4.392   1.221 -0.5553 -0.4349 -1.3310
   46c3c     H1  574   1.200   4.262   1.338  0.2410 -0.0704  0.5175
   46c3c     H1  575   0.891   4.203   1.118 -0.5807  0.4352 -0.0119
   46c3c     H1  576   0.974   4.108   1.233 -4.0388  0.1316  1.7334
   46c3c     HC  577   1.025   4.502   1.276 -1.4096 -1.6718 -0.7294
   46c3c     HC  578   1.074   4.440   1.431 -3.0978  1.6460  0.1388
   46c3c     HC  579   0.840   4.363   1.278 -1.0510 -0.1704  0.8458
   46c3c     HC  580   0.922   4.255   1.392  0.6530 -2.4185 -1.5677
   46c3c     H1  581   1.156   4.391   0.989  0.4056 -0.7981 -1.3917
   46c3c     H1  582   1.027   4.286   0.944  2.3344 -0.2269 -0.2550
   46c3c     H1  583   0.995   4.418   1.043  0.7509 -0.2937 -0.0456
   46c3c     H1  584   1.159   4.106   1.009  0.0061  0.0016 -0.6436
   46c3c     H1  585   1.288   4.204   1.069  1.4046 -1.7130 -0.8879
   46c3c     C2  586   1.235   4.040   1.200  0.0091 -0.1162 -0.1914
   46c3c     HC  587   1.149   3.986   1.238  0.2628 -0.6812 -0.4257
   46c3c     HC  588   1.282   4.082   1.289 -0.5451  0.0070  0.0440
   46c3c     CT  589   1.339   3.951   1.137  0.6943  0.4954  0.5228
   46c3c     HC  590   1.354   3.866   1.203  1.7484  0.5246  0.3297
   46c3c     HC  591   1.434   4.002   1.120  0.5373  0.7245  0.3360
   46c3c     HC  592   1.303   3.915   1.040 -0.6375  2.7807  0.1331
   47c3c     N4  593   2.092   1.503   1.847 -0.2783 -0.8936 -0.3713
   47c3c     C1  594   2.145   1.386   1.783  0.3044  0.4957 -0.1429
   47c3c     C1  595   2.197   1.547   1.940  0.5999  0.7288  0.2886
   47c3c     C2  596   2.296   1.413   1.760 -0.2114  0.4462  0.4501
   47c3c     C2  597   2.331   1.490   1.888 -0.9299  0.3518  0.0160
   47c3c     C1  598   2.082   1.602   1.739 -0.5849  0.4803  0.3166
   47c3c     C1  599   1.961   1.486   1.913 -0.6420  0.1240 -0.4762
   47c3c     H1  600   2.093   1.361   1.691 -1.1168  1.9747  0.2218
   47c3c     H1  601   2.132   1.300   1.849 -1.2223  2.1815  1.8358
   47c3c     H1  602   2.199   1.656   1.951  1.9505  0.6494  0.9698
   47c3c     H1  603   2.191   1.525   2.047  1.8421  1.1005  0.4460
   47c3c     HC  604   2.315   1.473   1.671  0.6290  0.0498  0.3624
   47c3c     HC  605   2.352   1.325   1.728  1.0196  1.7763 -1.1488
   47c3c     HC  606   2.405   1.559   1.847  0.3184 -1.8871 -1.6104
   47c3c     HC  607   2.382   1.428   1.962 -1.1462  0.9890  0.6956
   47c3c     H1  608   2.018   1.571   1.656  1.3041  2.6216 -2.0081
   47c3c     H1  609   2.039   1.690   1.788 -0.4984  0.2311  0.8477
   47c3c     H1  610   2.177   1.638   1.701  0.0853 -0.3373  1.1915
   47c3c     H1  611   1.928   1.585   1.944 -3.2740 -0.7744 -0.2300
   47c3c     H1  612   1.885   1.459   1.839  0.5620  0.4580 -1.8591
   47c3c     C2  613   1.944   1.395   2.036 -0.2088 -0.4081  0.8205
   47c3c     HC  614   2.004   1.443   2.113  0.5532 -0.9939  0.6004
   47c3c     HC  615   1.980   1.293   2.020  1.1791  0.0156  1.2024
   47c3c     CT  616   1.802   1.382   2.095 -0.0520 -0.4191  0.2543
   47c3c     HC  617   1.808   1.337   2.194  1.3679  0.4168  0.5727
   47c3c     HC  618   1.736   1.312   2.045 -2.8221  0.6854  2.2860
   47c3c     HC  619   1.758   1.473   2.134 -2.1417 -1.0944 -0.4753
   48c3c     N4  620   2.081   4.715   4.785  0.4512 -0.2321  0.7373
   48c3c     C1  621   2.079   4.624   4.671 -0.1645 -0.6600  0.1616
   48c3c     C1  622   2.094   4.843   4.709  0.7375 -0.1087  0.5407
   48c3c     C2  623   1.981   4.684   4.575  0.8230 -0.6847  0.4550
   48c3c     C2  624   1.993   4.837   4.597  0.1023  0.6600 -0.1218
   48c3c     C1  625   1.959   4.699   4.861 -0.4175  0.6791  0.5381
   48c3c     C1  626   2.188   4.678   4.878  0.0474  0.3566 -0.3447
   48c3c     H1  627   2.061   4.519   4.696  1.1002 -0.6192  1.2773
   48c3c     H1  628   2.177   4.609   4.628 -0.8147  0.5760 -1.8061
   48c3c     H1  629   2.074   4.929   4.773 -0.4447  1.4325 -1.8158
   48c3c     H1  630   2.196   4.848   4.669  0.2961 -1.6813 -0.8523
   48c3c     HC  631   1.878   4.657   4.599  1.1131 -2.1603  0.1034
   48c3c     HC  632   1.988   4.667   4.467  1.5343 -3.0163  0.8519
   48c3c     HC  633   1.904   4.877   4.644 -0.4804 -1.5436  0.7393
   48c3c     HC  634   2.032   4.887   4.509  0.4605 -1.2006 -1.0506
   48c3c     H1  635   1.956   4.594   4.892  0.3420  0.4866 -0.0130
   48c3c     H1  636   1.947   4.762   4.949 -0.7022  1.4965 -0.0780
   48c3c     H1  637   1.872   4.716   4.798 -2.6541  0.2988  3.4652
   48c3c     H1  638   2.162   4.732   4.969 -1.4728  1.1258 -1.2126
   48c3c     H1  639   2.190   4.576   4.916 -1.2841 -0.6468 -2.8449
   48c3c     C2  640   2.327   4.717   4.842 -0.0967  0.1799 -0.1317
   48c3c     HC  641   2.349   4.821   4.865 -1.2267  0.6378 -1.0796
   48c3c     HC  642   2.361   4.697   4.740 -2.1419  1.7523 -1.1647
   48c3c     CT  643   2.428   4.645   4.938  0.9450  0.0925  0.0731
   48c3c     HC  644   2.530   4.683   4.942  0.6406  1.3122 -2.5477
   48c3c     HC  645   2.433   4.542   4.904 -1.7259 -0.2762  0.6401
   48c3c     HC  646   2.396   4.632   5.042 -2.3144  0.6205 -0.8034
   49c3c     N4  647   2.661   0.697   0.845  0.3001 -0.4443  0.6876
   49c3c     C1  648   2.631   0.553   0.838  0.0117 -0.1605  0.0618
   49c3c     C1  649   2.778   0.691   0.939  0.0961  0.3863 -0.1317
   49c3c     C2  650   2.760   0.474   0.833  0.1210  0.0471  0.3898
   49c3c     C2  651   2.859   0.567   0.900 -0.0701  0.3899 -0.2479
   49c3c     C1  652   2.711   0.742   0.712 -0.0872  0.3839 -0.4743
   49c3c     C1  653   2.546   0.785   0.873 -0.6267  0.2282 -0.2595
   49c3c     H1  654   2.577   0.532   0.746  0.3669 -0.9179  0.0187
   49c3c     H1  655   2.576   0.521   0.927 -0.2729  2.4431  0.8645
   49c3c     H1  656   2.835   0.782   0.920 -0.4671  0.5803 -0.9454
   49c3c     H1  657   2.741   0.678   1.041 -0.3237 -0.4572 -0.3822
   49c3c     HC  658   2.782   0.463   0.727  1.3627 -0.4674  0.6951
   49c3c     HC  659   2.735   0.381   0.884  1.3127 -0.0875  0.7245
   49c3c     HC  660   2.935   0.586   0.824 -0.4457  1.1636 -0.4371
   49c3c     HC  661   2.896   0.507   0.982 -0.5845 -3.0347 -2.4382
   49c3c     H1  662   2.631   0.735   0.638  1.5427 -0.6561 -2.2037
   49c3c     H1  663   2.750   0.842   0.693  0.1287  0.1509 -1.3185
   49c3c     H1  664   2.790   0.676   0.675 -1.8157 -2.9392  1.5316
   49c3c     H1  665   2.585   0.887   0.872 -0.2350  0.0729 -1.7698
   49c3c     H1  666   2.474   0.792   0.791 -3.0004  2.0571  1.8807
   49c3c     C2  667   2.458   0.744   0.998  0.4139  0.0728  0.4527
   49c3c     HC  668   2.513   0.729   1.091  1.6399  1.2202 -0.0694
   49c3c     HC  669   2.405   0.652   0.975 -1.3411  1.7884 -2.7408
   49c3c     CT  670   2.346   0.842   1.033  0.8103 -0.7816  0.1523
   49c3c     HC  671   2.288   0.857   0.941  1.2561 -0.8396 -0.1388
   49c3c     HC  672   2.387   0.942   1.048  1.6640 -0.7406 -2.1984
   49c3c     HC  673   2.288   0.817   1.122  0.3807  1.8205  0.6587
   50c3c     N4  674   2.437   2.413   1.549 -0.5773 -0.0869 -0.1094
   50c3c     C1  675   2.343   2.520   1.513 -0.4872  0.1171 -0.1136
   50c3c     C1  676   2.497   2.465   1.676 -0.8705  0.2605  0.3134
   50c3c     C2  677   2.279   2.573   1.645 -0.3020  0.1794  0.6632
   50c3c     C2  678   2.378   2.518   1.756 -0.4610  0.3806  0.3698
   50c3c     C1  679   2.362   2.292   1.570  0.1451  0.4945  0.1099
   50c3c     C1  680   2.541   2.377   1.452  0.1070 -0.3405  0.0291
   50c3c     H1  681   2.269   2.499   1.437  1.7905 -1.6095 -1.9277
   50c3c     H1  682   2.385   2.608   1.464  1.3133 -2.6675 -3.8036
   50c3c     H1  683   2.551   2.383   1.724  0.7327  0.2965 -1.3843
   50c3c     H1  684   2.567   2.547   1.662  1.8783 -2.1408 -0.5031
   50c3c     HC  685   2.179   2.534   1.664 -0.3567 -0.6462 -1.1899
   50c3c     HC  686   2.275   2.682   1.642  1.0422  0.2776  1.8214
   50c3c     HC  687   2.326   2.442   1.815 -2.4526  1.2153 -0.2669
   50c3c     HC  688   2.412   2.602   1.816 -0.3303  0.9439 -0.5020
   50c3c     H1  689   2.313   2.256   1.480 -2.8365  2.3267  0.9103
   50c3c     H1  690   2.424   2.210   1.607 -0.5609 -0.0918  0.0217
   50c3c     H1  691   2.277   2.305   1.638  0.4345  1.4608  0.2837
   50c3c     H1  692   2.587   2.286   1.490  1.7980  0.2778 -0.4973
   50c3c     H1  693   2.498   2.351   1.356 -0.8368 -2.9591  1.1383
   50c3c     C2  694   2.652   2.484   1.432  0.0102 -0.3187  0.0995
   50c3c     HC  695   2.717   2.511   1.516 -0.7456  0.7017  0.3562
   50c3c     HC  696   2.603   2.572   1.392  0.0043 -0.5262 -0.3572
   50c3c     CT  697   2.766   2.444   1.330 -0.0816 -0.1968  0.3756
   50c3c     HC  698   2.839   2.524   1.316  1.3965 -1.4385  0.9301
   50c3c     HC  699   2.738   2.407   1.231  0.1944 -1.1494  0.6478
   50c3c     HC  700   2.824   2.361   1.370 -1.0644 -0.7909  0.5861
   51fsi    FSI  701   2.032   2.117   1.859  0.0297  0.3531 -0.3149
   51fsi    SBT  702   2.132   2.006   1.841 -0.4709 -0.2677 -0.3100
   51fsi    NBT  703   2.085   1.935   1.707 -0.7167 -0.0976  0.0957
   51fsi    OBT  704   2.257   2.077   1.835 -0.3863 -0.5047 -0.0662
   51fsi    OBT  705   2.109   1.924   1.958  0.1389 -0.2674 -0.2594
   51fsi    SBT  706   2.134   1.954   1.556  0.3287  0.0559 -0.1162
   51fsi    OBT  707   2.094   1.840   1.478  0.8902 -0.3266 -0.6127
   51fsi    OBT  708   2.271   1.998   1.547  0.4831  0.1062 -0.6029
   51fsi    FSI  709   2.048   2.076   1.506 -0.1769  0.7444 -0.5937
   52fsi    FSI  710   3.191   1.208   2.590  0.1090 -0.2742  0.3235
   52fsi    SBT  711   3.049   1.182   2.522  0.0276 -0.0410  0.2438
   52fsi    NBT  712   3.057   1.266   2.386 -0.5133  0.5183  0.4693
   52fsi    OBT  713   3.038   1.037   2.507  0.0710 -0.6236 -0.0182
   52fsi    OBT  714   2.957   1.252   2.611  0.8459  0.3161  0.6739
   52fsi    SBT  715   3.034   1.226   2.239  0.0834  0.2873  0.3436
   52fsi    OBT  716   3.007   1.341   2.156  0.2260  0.6454  0.0273
   52fsi    OBT  717   2.966   1.101   2.210  0.0325 -0.5630 -0.7216
   52fsi    FSI  718   3.181   1.186   2.204  0.2612 -0.4598 -0.3689
   53fsi    FSI  719   2.421   4.719   0.844 -0.7458  0.2430 -0.4993
   53fsi    SBT  720   2.365   4.858   0.798 -0.1690 -0.2179  0.0288
   53fsi    NBT  721   2.253   4.880   0.905  0.3487  0.6649 -0.2356
   53fsi    OBT  722   2.482   4.938   0.815 -0.2787  0.2605 -0.5820
   53fsi    OBT  723   2.315   4.837   0.665 -0.8031 -0.1765  0.1384
   53fsi    SBT  724   2.098   4.883   0.895  0.1986  0.5915 -0.6281
   53fsi    OBT  725   2.041   4.912   1.019 -0.2421 -0.3434  0.2445
   53fsi    OBT  726   2.030   4.779   0.822  0.2473 -0.6150 -0.3080
   53fsi    FSI  727   2.077   5.010   0.809 -0.2030  0.3690 -0.6943
   54fsi    FSI  728   2.481   5.035   4.918  0.5603  0.2092  0.0807
   54fsi    SBT  729   2.353   5.080   4.989 -0.1495 -0.1211 -0.2036
   54fsi    NBT  730   2.326   4.964   5.085 -0.2215 -0.2846 -0.3667
   54fsi    OBT  731   2.387   5.207   5.046 -0.7142  0.3285  0.2558
   54fsi    OBT  732   2.255   5.082   4.887  0.4777 -0.0327 -0.3940
   54fsi    SBT  733   2.347   4.968   5.239 -0.3139  0.4383  0.0802
   54fsi    OBT  734   2.255   4.894   5.321  0.0832  0.6098 -0.8611
   54fsi    OBT  735   2.392   5.096   5.299  0.1382 -0.3198 -0.5539
   54fsi    FSI  736   2.483   4.871   5.253  0.0078  0.0099  0.0485
   55fsi    FSI  737   0.640   4.815   4.763 -0.4880 -0.3284 -0.1323
   55fsi    SBT  738   0.667   4.665   4.812 -0.4349 -0.1105 -0.0546
   55fsi    NBT  739   0.823   4.646   4.807  0.2790 -0.4620 -0.8829
   55fsi    OBT  740   0.620   4.653   4.944  0.5695 -0.2582 -0.2624
   55fsi    OBT  741   0.596   4.585   4.715  0.0703 -1.0381  0.1364
   55fsi    SBT  742   0.918   4.587   4.700  0.3277 -0.0760  0.5135
   55fsi    OBT  743   0.854   4.499   4.603 -0.1170 -0.5608 -0.2599
   55fsi    OBT  744   1.043   4.543   4.762  0.1540  0.2091  0.3553
   55fsi    FSI  745   0.965   4.718   4.624 -0.6412  0.2232  0.2292
   56fsi    FSI  746   1.674   5.112   0.147  0.3528 -0.2305  0.0341
   56fsi    SBT  747   1.659   4.965   0.106  0.4688  0.0089  0.3245
   56fsi    NBT  748   1.805   4.930   0.056  0.2338 -0.7769 -0.1865
   56fsi    OBT  749   1.623   4.897   0.230  0.2544  0.2953  0.3745
   56fsi    OBT  750   1.557   4.971   0.002 -0.7022 -0.0684 -0.2083
   56fsi    SBT  751   1.855   4.898  -0.089  0.0917  0.4564 -0.3652
   56fsi    OBT  752   1.751   4.897  -0.185  0.1843  0.5742  0.0637
   56fsi    OBT  753   1.940   4.783  -0.093 -0.1444  0.4059  0.2458
   56fsi    FSI  754   1.956   5.009  -0.121  0.0706  0.5077 -0.1270
   57fsi    FSI  755   2.115   1.246   1.498  0.2772  0.0971  0.0969
   57fsi    SBT  756   1.984   1.191   1.422  0.1851 -0.3392 -0.5502
   57fsi    NBT  757   1.871   1.265   1.495  0.0450  0.5601  0.4815
   57fsi    OBT  758   1.992   1.240   1.289  0.4874  0.2258 -0.6630
   57fsi    OBT  759   1.982   1.051   1.448  0.1945 -0.6702  0.4945
   57fsi    SBT  760   1.769   1.216   1.603  0.0028 -0.2451 -0.4932
   57fsi    OBT  761   1.720   1.327   1.683 -0.6189 -0.4800 -0.1003
   57fsi    OBT  762   1.819   1.103   1.675  0.0035 -0.2165 -0.0134
   57fsi    FSI  763   1.643   1.163   1.532  0.2920  0.6862 -0.3030
   58fsi    FSI  764   3.065   0.605   1.403  0.1355 -0.3012  0.1432
   58fsi    SBT  765   2.972   0.578   1.525  0.0955  0.0924 -0.2560
   58fsi    NBT  766   3.074   0.555   1.642 -0.1570 -0.2399  0.0988
   58fsi    OBT  767   2.900   0.703   1.532 -0.8443 -0.3502  0.1330
   58fsi    OBT  768   2.899   0.461   1.482  0.1310  0.1605  0.1514
   58fsi    SBT  769   3.179   0.656   1.696  0.0279 -0.6134 -0.3692
   58fsi    OBT  770   3.208   0.637   1.831 -0.1133 -0.2619 -0.7157
   58fsi    OBT  771   3.168   0.792   1.654  0.0533 -1.0069  0.7223
   58fsi    FSI  772   3.312   0.611   1.618  0.4096 -0.0534 -0.0930
   59fsi    FSI  773   0.649   4.677   0.303 -1.2343  0.0543  0.2701
   59fsi    SBT  774   0.723   4.580   0.200  0.0461  0.4334  0.0370
   59fsi    NBT  775   0.612   4.475   0.174  0.2851 -0.4338 -0.4040
   59fsi    OBT  776   0.743   4.662   0.088 -0.4627  0.2057 -0.1075
   59fsi    OBT  777   0.838   4.534   0.270  0.1301  0.7259  0.2902
   59fsi    SBT  778   0.516   4.447   0.056  0.1903 -0.2880 -0.5280
   59fsi    OBT  779   0.483   4.310   0.044 -0.1708 -0.1274  0.4785
   59fsi    OBT  780   0.537   4.522  -0.066 -0.1074  0.6190  0.3913
   59fsi    FSI  781   0.380   4.518   0.104  0.0470  0.0461 -0.9056
   60fsi    FSI  782   2.658   0.124   5.189 -0.1845 -0.0829  0.4862
   60fsi    SBT  783   2.539   0.223   5.247 -0.2631  0.1327 -0.4380
   60fsi    NBT  784   2.432   0.205   5.129  0.0314 -0.5477 -0.3672
   60fsi    OBT  785   2.492   0.163   5.371  0.1397 -0.0373 -0.7825
   60fsi    OBT  786   2.600   0.349   5.260 -0.1021  0.0404  0.2680
   60fsi    SBT  787   2.426   0.268   4.986  0.6643  0.0659 -0.2839
   60fsi    OBT  788   2.305   0.215   4.925  0.4106 -0.2802 -0.2765
   60fsi    OBT  789   2.550   0.245   4.919 -0.2028 -0.6032  0.5946
   60fsi    FSI  790   2.409   0.421   5.004 -0.1454 -0.5669 -0.1123
   61fsi    FSI  791   2.806   1.732   1.895 -0.0358 -0.0864 -0.1510
   61fsi    SBT  792   2.957   1.693   1.873  0.0750 -0.3896  0.1529
   61fsi    NBT  793   3.025   1.829   1.913  0.1432  0.5630 -0.0550
   61fsi    OBT  794   2.966   1.582   1.967 -0.2723  0.7294  0.3384
   61fsi    OBT  795   2.960   1.660   1.735  0.3396 -0.2331 -0.2463
   61fsi    SBT  796   3.082   1.872   2.055  0.1451 -0.1398  0.1300
   61fsi    OBT  797   3.144   2.001   2.048  0.4914 -0.0748  0.1390
   61fsi    OBT  798   3.145   1.765   2.129  0.2948 -0.5030  0.1555
   61fsi    FSI  799   2.946   1.892   2.129 -0.2940 -0.1412  0.1905
   62fsi    FSI  800   2.841   2.117   1.888 -0.4250  0.4815  0.1162
   62fsi    SBT  801   2.848   2.135   1.730 -0.4065 -0.1180 -0.0280
   62fsi    NBT  802   2.999   2.101   1.694 -0.3163 -0.2350 -0.2285
   62fsi    OBT  803   2.755   2.035   1.686  0.2529 -0.7789 -0.4964
   62fsi    OBT  804   2.813   2.272   1.705 -0.5029 -0.5777 -0.2197
   62fsi    SBT  805   3.083   2.172   1.589 -0.0455 -0.0654 -0.5582
   62fsi    OBT  806   3.211   2.113   1.586 -0.5385 -0.4102  0.0402
   62fsi    OBT  807   3.073   2.316   1.588 -0.3086 -0.2225 -0.4733
   62fsi    FSI  808   3.013   2.131   1.447 -0.0868  0.2353  0.1242
   63fsi    FSI  809   1.316   4.839   1.265 -0.2760  0.2243  0.4983
   63fsi    SBT  810   1.230   4.712   1.248  0.2046 -0.2073  0.2022
   63fsi    NBT  811   1.117   4.778   1.164  0.1766  0.1915  0.2381
   63fsi    OBT  812   1.304   4.624   1.170  0.7446  0.3486  0.7760
   63fsi    OBT  813   1.193   4.678   1.381 -0.1499 -0.0149  0.3228
   63fsi    SBT  814   0.962   4.801   1.177  0.4431 -0.2686 -0.2937
   63fsi    OBT  815   0.894   4.720   1.280 -0.4148 -0.1648 -0.1463
   63fsi    OBT  816   0.897   4.801   1.044 -0.4108  0.1225 -0.5353
   63fsi    FSI  817   0.945   4.942   1.233 -0.3237  0.2527 -0.1633
   64fsi    FSI  818   2.359   1.118   0.453  0.1063 -0.0928 -0.7379
   64fsi    SBT  819   2.380   1.036   0.584 -0.0395 -0.1732  0.1472
   64fsi    NBT  820   2.229   1.007   0.628 -0.4486 -0.2247  0.4337
   64fsi    OBT  821   2.456   0.920   0.545 -0.4325  0.4733  0.1879
   64fsi    OBT  822   2.437   1.135   0.672  0.5139  0.9299 -0.1318
   64fsi    SBT  823   2.153   0.871   0.604  0.0524  0.2318 -0.1568
   64fsi    OBT  824   2.148   0.828   0.469  0.1264  0.3477  0.4541
   64fsi    OBT  825   2.029   0.867   0.678  0.2172  0.0647 -0.1123
   64fsi    FSI  826   2.244   0.772   0.674  0.5893 -0.3135  0.1150
   65fsi    FSI  827   1.011   3.777   0.165  0.2920 -0.4421  0.1873
   65fsi    SBT  828   0.984   3.904   0.076 -0.3812 -0.0754  0.0553
   65fsi    NBT  829   0.828   3.916   0.085 -0.3786 -1.3978 -0.3953
   65fsi    OBT  830   1.043   4.015   0.149 -0.4570  0.5593 -0.2365
   65fsi    OBT  831   1.047   3.875  -0.052  0.1818 -0.1531  0.2558
   65fsi    SBT  832   0.704   3.891  -0.012 -0.1029 -0.0207  0.0262
   65fsi    OBT  833   0.739   3.855  -0.148  0.0472 -0.1735 -0.1477
   65fsi    OBT  834   0.609   3.997   0.006 -0.3829 -0.5028  0.5535
   65fsi    FSI  835   0.635   3.768   0.043 -0.5961  0.3198 -0.0233
   66fsi    FSI  836   2.350   0.037   0.757  0.1767 -0.1602 -0.3757
   66fsi    SBT  837   2.281   0.124   0.651  0.3257  0.0123  0.0796
   66fsi    NBT  838   2.306   0.268   0.709 -0.4480  0.3375  0.2998
   66fsi    OBT  839   2.359   0.105   0.529 -0.2699 -0.1060  0.2456
   66fsi    OBT  840   2.144   0.074   0.652  0.3879 -0.5136 -0.6761
   66fsi    SBT  841   2.210   0.356   0.791  0.1795  0.2484 -0.1540
   66fsi    OBT  842   2.075   0.343   0.756  0.1624 -0.3796  0.0706
   66fsi    OBT  843   2.260   0.490   0.808 -0.1022  0.1077  0.6336
   66fsi    FSI  844   2.216   0.292   0.942 -0.4622  0.1855 -0.3600
   67fsi    FSI  845   2.700   1.418   2.208  0.3276 -0.2313  0.3266
   67fsi    SBT  846   2.606   1.345   2.315  0.1785  0.0950  0.1919
   67fsi    NBT  847   2.548   1.223   2.231  0.1800  0.0272 -0.2144
   67fsi    OBT  848   2.700   1.298   2.416 -0.0331 -0.7538  0.0705
   67fsi    OBT  849   2.511   1.445   2.348 -0.1304 -0.0765  0.0795
   67fsi    SBT  850   2.402   1.196   2.176 -0.2085 -0.0771 -0.1049
   67fsi    OBT  851   2.391   1.134   2.048 -0.0403  0.3892 -0.0267
   67fsi    OBT  852   2.315   1.307   2.195 -0.1519  0.4130 -0.3856
   67fsi    FSI  853   2.343   1.091   2.282  0.4374  0.0018  0.2810
   68fsi    FSI  854   0.912   5.009   5.251  0.2139 -0.4792  0.1026
   68fsi    SBT  855   0.898   4.954   5.105  0.4218 -0.0545  0.1536
   68fsi    NBT  856   1.044   4.960   5.054  0.1908  0.1266 -1.4026
   68fsi    OBT  857   0.842   4.829   5.132 -0.9958  0.0788  0.2872
   68fsi    OBT  858   0.824   5.060   5.040  0.7188  0.0189 -0.0611
   68fsi    SBT  859   1.152   4.846   5.034 -0.3796  0.2556 -0.0537
   68fsi    OBT  860   1.114   4.709   5.064  0.0744  0.0712  0.2655
   68fsi    OBT  861   1.277   4.898   5.086 -0.1645 -0.0491  0.0518
   68fsi    FSI  862   1.184   4.854   4.880  0.3264  0.3924 -0.6089
   69fsi    FSI  863   2.532   2.017   1.067  0.4369  0.1994 -0.2472
   69fsi    SBT  864   2.500   2.041   1.215  0.0529 -0.0047 -0.0443
   69fsi    NBT  865   2.377   2.138   1.206  0.2803 -0.7280 -0.2241
   69fsi    OBT  866   2.480   1.912   1.275 -0.3233 -0.0619  0.1468
   69fsi    OBT  867   2.614   2.115   1.264  0.5508  0.2656  0.3817
   69fsi    SBT  868   2.221   2.111   1.174  0.1977  0.4521  0.8226
   69fsi    OBT  869   2.140   2.216   1.228  0.6627 -0.0155 -0.4926
   69fsi    OBT  870   2.181   1.977   1.202  0.0853 -0.2407  0.2331
   69fsi    FSI  871   2.202   2.121   1.020 -0.1234  0.4756 -0.2711
   70fsi    FSI  872   2.585   0.260   1.049  0.4162 -0.6781 -0.4921
   70fsi    SBT  873   2.572   0.279   1.211 -0.1669  0.0637  0.4880
   70fsi    NBT  874   2.618   0.429   1.234 -0.4344  0.1697  0.2993
   70fsi    OBT  875   2.434   0.259   1.227 -0.1077  0.2394 -0.6281
   70fsi    OBT  876   2.658   0.181   1.267  0.4671  0.5449  0.2569
   70fsi    SBT  877   2.546   0.523   1.337  0.0740  0.0849  0.5056
   70fsi    OBT  878   2.623   0.647   1.349 -0.1749 -0.0819  0.0375
   70fsi    OBT  879   2.501   0.454   1.453  0.6704  0.1079  0.1655
   70fsi    FSI  880   2.411   0.568   1.273 -0.4019  0.1195 -0.3659
   71fsi    FSI  881   1.661   0.440   0.528 -0.1289 -0.2061 -0.0050
   71fsi    SBT  882   1.651   0.295   0.603 -0.2394 -0.0325 -0.0851
   71fsi    NBT  883   1.680   0.194   0.491  0.0820 -0.3827 -0.3704
   71fsi    OBT  884   1.753   0.300   0.704 -0.8984  0.0400  0.2978
   71fsi    OBT  885   1.515   0.296   0.645 -0.3495 -0.3588  0.1021
   71fsi    SBT  886   1.818   0.132   0.430 -0.2195 -0.4611 -0.1127
   71fsi    OBT  887   1.827  -0.011   0.426  0.1688  0.2795  0.3308
   71fsi    OBT  888   1.937   0.200   0.479  0.0320 -0.5201  0.0436
   71fsi    FSI  889   1.828   0.163   0.279  0.2640  0.1125  0.3659
   72fsi    FSI  890   1.350   4.564   4.524 -0.0725  0.0528  0.5715
   72fsi    SBT  891   1.424   4.573   4.661 -0.2798  0.5261  0.1625
   72fsi    NBT  892   1.523   4.688   4.629 -0.1943 -0.2380 -0.6585
   72fsi    OBT  893   1.318   4.598   4.750 -0.1782  1.0788  0.0230
   72fsi    OBT  894   1.500   4.449   4.674 -0.2862 -0.1310  0.2179
   72fsi    SBT  895   1.523   4.827   4.705 -0.2805  0.5367  0.1337
   72fsi    OBT  896   1.628   4.913   4.657  0.1728 -0.2692  0.0640
   72fsi    OBT  897   1.506   4.821   4.849 -0.1205 -0.9491  0.6873
   72fsi    FSI  898   1.395   4.903   4.656  0.1622 -0.2762 -0.1579
   73fsi    FSI  899   1.737   4.887   4.135 -0.4813  0.6181  0.1148
   73fsi    SBT  900   1.660   4.832   4.265  0.2363 -0.3532 -0.3499
   73fsi    NBT  901   1.521   4.910   4.247  0.7667 -0.2434 -0.6859
   73fsi    OBT  902   1.641   4.690   4.244 -0.3341  0.1159  0.2490
   73fsi    OBT  903   1.739   4.874   4.380 -0.2620 -0.1635 -0.1505
   73fsi    SBT  904   1.485   5.052   4.307  0.0119 -0.0623 -0.2679
   73fsi    OBT  905   1.576   5.121   4.397 -0.1713  0.2967  0.3790
   73fsi    OBT  906   1.341   5.060   4.336 -0.3244 -0.4276 -0.1882
   73fsi    FSI  907   1.489   5.150   4.180  0.3937 -0.0831  0.3992
   74fsi    FSI  908   1.767   0.519   4.702 -0.0464  0.3294 -0.2515
   74fsi    SBT  909   1.784   0.368   4.670 -0.4644  0.3028 -0.1668
   74fsi    NBT  910   1.656   0.349   4.576 -0.1428 -0.6669 -0.7638
   74fsi    OBT  911   1.896   0.363   4.586  0.4084 -0.7676 -0.0041
   74fsi    OBT  912   1.780   0.297   4.795  0.1777  0.5592  0.1360
   74fsi    SBT  913   1.524   0.253   4.600  0.1716  0.1257 -0.1558
   74fsi    OBT  914   1.513   0.221   4.741  0.2650  0.2884  0.3144
   74fsi    OBT  915   1.520   0.136   4.514  0.6181 -0.4538  0.5827
   74fsi    FSI  916   1.395   0.343   4.560  0.0815  0.2247 -1.1644
   75fsi    FSI  917   1.707   4.566   1.391  0.3939  0.1333 -0.5678
   75fsi    SBT  918   1.787   4.457   1.316  0.4278  0.2347 -0.1838
   75fsi    NBT  919   1.694   4.437   1.187 -0.0301 -0.2553  0.2904
   75fsi    OBT  920   1.910   4.516   1.278  0.3529  0.3487 -0.2450
   75fsi    OBT  921   1.795   4.348   1.412 -0.2595 -0.3198  0.5834
   75fsi    SBT  922   1.568   4.345   1.166 -0.2572  0.0294 -0.0044
   75fsi    OBT  923   1.489   4.378   1.052 -0.2679 -0.7699 -0.6065
   75fsi    OBT  924   1.501   4.310   1.291  0.2871  0.4180  0.7454
   75fsi    FSI  925   1.635   4.209   1.112 -0.0391 -0.4516 -0.1027
   76fsi    FSI  926   1.845   4.211   0.574  0.4747 -0.3395 -0.4081
   76fsi    SBT  927   1.714   4.112   0.598 -0.4207  0.1473  0.3425
   76fsi    NBT  928   1.761   4.026   0.725 -0.3683  0.1351 -0.7521
   76fsi    OBT  929   1.601   4.197   0.619  0.1377  0.3315  0.3976
   76fsi    OBT  930   1.714   4.030   0.477 -0.2156  0.4936  0.4892
   76fsi    SBT  931   1.685   3.991   0.862  0.3628  0.0903  0.1468
   76fsi    OBT  932   1.559   4.057   0.879 -0.1363  0.4795 -0.5714
   76fsi    OBT  933   1.771   3.996   0.975 -0.2979 -0.2426 -0.1245
   76fsi    FSI  934   1.651   3.834   0.845  0.3700 -0.0234 -0.0768
   77fsi    FSI  935   1.427   0.467   1.401  0.4026  0.2658 -0.8683
   77fsi    SBT  936   1.572   0.428   1.457 -0.3072 -0.2459 -0.4199
   77fsi    NBT  937   1.596   0.557   1.544  0.2598 -0.0473  0.2820
   77fsi    OBT  938   1.553   0.304   1.532 -0.2438 -0.3976  0.0462
   77fsi    OBT  939   1.649   0.410   1.337  0.2690  0.1118 -0.0705
   77fsi    SBT  940   1.646   0.702   1.510 -0.3769  0.2854  0.1616
   77fsi    OBT  941   1.619   0.740   1.376 -0.0339 -0.2674  0.0714
   77fsi    OBT  942   1.774   0.738   1.559 -0.2587  1.3965  0.6802
   77fsi    FSI  943   1.551   0.792   1.596 -0.1429 -0.3320 -0.0228
   78fsi    FSI  944   2.379   0.046   4.474  0.2559  0.0790  0.4299
   78fsi    SBT  945   2.237   0.076   4.513  0.3585  0.1007  0.1365
   78fsi    NBT  946   2.160  -0.040   4.436  0.2304 -0.4986 -0.0858
   78fsi    OBT  947   2.244   0.056   4.653  0.2068  0.0635 -0.2449
   78fsi    OBT  948   2.218   0.206   4.458 -0.4192 -0.2901 -0.2480
   78fsi    SBT  949   2.022  -0.048   4.366 -0.1799 -0.1127  0.5126
   78fsi    OBT  950   1.969   0.082   4.336  0.9247 -0.4170  0.1423
   78fsi    OBT  951   1.938  -0.151   4.420  0.7790 -0.2985  0.0365
   78fsi    FSI  952   2.075  -0.107   4.229 -0.0460 -0.3080 -0.3505
   79fsi    FSI  953   1.553   5.069   1.642 -0.0832 -0.1060  0.6417
   79fsi    SBT  954   1.707   5.086   1.615 -0.0074  0.0936  0.2720
   79fsi    NBT  955   1.736   4.985   1.501  0.2114 -0.4708  0.7512
   79fsi    OBT  956   1.714   5.222   1.570 -0.0532  0.5558 -0.4774
   79fsi    OBT  957   1.773   5.038   1.738  0.1178  0.0245 -0.6999
   79fsi    SBT  958   1.791   5.011   1.357  0.2348 -0.2903 -0.0703
   79fsi    OBT  959   1.878   4.906   1.310 -0.0490 -0.2298  0.4705
   79fsi    OBT  960   1.850   5.141   1.338  0.2988 -0.5180 -0.2842
   79fsi    FSI  961   1.668   4.989   1.256  0.4264 -0.2179  0.3312
   80fsi    FSI  962   2.882   0.860   1.902 -0.4214 -0.0846 -0.1699
   80fsi    SBT  963   2.728   0.832   1.893  0.0581  0.2425 -0.2094
   80fsi    NBT  964   2.729   0.680   1.939 -0.3045 -0.1398 -0.0245
   80fsi    OBT  965   2.672   0.919   1.996  0.2555 -0.3951  0.2892
   80fsi    OBT  966   2.702   0.856   1.756  0.3019 -0.0828  0.3801
   80fsi    SBT  967   2.717   0.545   1.858  0.1843 -0.1712  0.3881
   80fsi    OBT  968   2.843   0.485   1.834  0.6801  0.0479  0.2633
   80fsi    OBT  969   2.630   0.547   1.739 -0.6463 -0.1893  0.3209
   80fsi    FSI  970   2.652   0.452   1.958  0.3431 -0.2673 -0.1794
   81fsi    FSI  971   1.784   4.528   0.689  0.1070 -0.0091 -0.0981
   81fsi    SBT  972   1.648   4.606   0.718 -0.0274  0.5839 -0.1303
   81fsi    NBT  973   1.698   4.721   0.811 -0.6002  0.2780 -0.3172
   81fsi    OBT  974   1.590   4.654   0.593 -0.1969  0.2560  0.8468
   81fsi    OBT  975   1.577   4.506   0.792  0.4614  0.0382  0.6871
   81fsi    SBT  976   1.689   4.753   0.966  0.1076  0.3957  0.1803
   81fsi    OBT  977   1.811   4.738   1.039  0.1481 -0.0095  0.2840
   81fsi    OBT  978   1.572   4.703   1.031  0.2968 -0.0069  0.1105
   81fsi    FSI  979   1.671   4.904   0.967 -0.0135 -0.1170 -0.6712
   82fsi    FSI  980   2.731   5.271   1.746  0.0713  0.2383 -0.2425
   82fsi    SBT  981   2.752   5.417   1.706 -0.3988  0.3018  0.3017
   82fsi    NBT  982   2.620   5.484   1.755  0.1099  0.4921  0.7754
   82fsi    OBT  983   2.864   5.464   1.788 -0.7980  0.1500 -0.1719
   82fsi    OBT  984   2.768   5.415   1.563  0.3235 -0.3990  0.1152
   82fsi    SBT  985   2.474   5.463   1.720 -0.4135 -0.0315  0.1373
   82fsi    OBT  986   2.442   5.397   1.594 -0.4295  0.6870  0.1632
   82fsi    OBT  987   2.408   5.588   1.752 -0.4025 -0.8259 -0.4431
   82fsi    FSI  988   2.420   5.358   1.827 -0.3884  0.0531  0.5193
   83fsi    FSI  989   0.997   3.479   4.853  0.9067 -0.2603  0.0082
   83fsi    SBT  990   1.033   3.635   4.855  0.0056 -0.3581  0.3445
   83fsi    NBT  991   1.169   3.636   4.784  0.7744  0.6259 -0.4707
   83fsi    OBT  992   0.933   3.703   4.780  0.0377  0.5698 -0.0647
   83fsi    OBT  993   1.043   3.664   4.995 -0.2401 -0.6763  0.4231
   83fsi    SBT  994   1.314   3.681   4.837  0.1144 -0.0068  0.0979
   83fsi    OBT  995   1.314   3.768   4.953 -0.6041 -0.1538  0.5632
   83fsi    OBT  996   1.404   3.721   4.729  0.0225 -0.0180 -0.5248
   83fsi    FSI  997   1.381   3.547   4.897  0.1275  0.2053 -0.0339
   84fsi    FSI  998   1.789   4.488   5.134  0.1673 -0.8557  0.0234
   84fsi    SBT  999   1.686   4.416   5.228  0.2476  0.4536  0.2818
   84fsi    NBT 1000   1.553   4.426   5.148  0.7086 -0.2969 -1.0445
   84fsi    OBT 1001   1.742   4.280   5.231 -0.0824 -0.5122  0.3865
   84fsi    OBT 1002   1.683   4.496   5.348 -0.0466  0.1976 -0.0236
   84fsi    SBT 1003   1.494   4.559   5.090 -0.0379 -0.3190  0.1134
   84fsi    OBT 1004   1.538   4.685   5.148  0.4111  0.1883 -0.0774
   84fsi    OBT 1005   1.354   4.552   5.076  0.1210  0.3211 -0.5388
   84fsi    FSI 1006   1.547   4.554   4.947 -0.2641 -0.2083 -0.1206
   85fsi    FSI 1007   2.536   4.728   1.440  0.4248  0.7214  0.2942
   85fsi    SBT 1008   2.409   4.676   1.519 -0.0300 -0.0771  0.2740
   85fsi    NBT 1009   2.298   4.707   1.416 -0.0177 -0.3220 -0.3671
   85fsi    OBT 1010   2.434   4.533   1.546  0.0424  0.0522 -0.2074
   85fsi    OBT 1011   2.404   4.771   1.631 -0.4043 -0.2259  0.5023
   85fsi    SBT 1012   2.274   4.640   1.280 -0.1643  0.6175 -0.1052
   85fsi    OBT 1013   2.159   4.687   1.214 -0.4346 -0.3378  0.4596
   85fsi    OBT 1014   2.300   4.495   1.274 -0.0886 -0.7495 -0.2779
   85fsi    FSI 1015   2.385   4.700   1.190 -0.6685 -0.0048  0.1493
   86fsi    FSI 1016   2.615   1.264   1.427 -0.0674 -1.0082  0.2353
   86fsi    SBT 1017   2.757   1.196   1.393 -0.2933 -0.1733  0.1840
   86fsi    NBT 1018   2.749   1.177   1.235 -0.6551  0.4211 -0.3274
   86fsi    OBT 1019   2.855   1.292   1.432 -0.3486  0.0144  0.3838
   86fsi    OBT 1020   2.749   1.065   1.466 -0.3816 -0.6488  0.5058
   86fsi    SBT 1021   2.723   1.053   1.150  0.1395 -0.1009  0.0805
   86fsi    OBT 1022   2.651   1.094   1.029 -0.1228  0.3222  0.6972
   86fsi    OBT 1023   2.689   0.930   1.215 -0.7444 -0.2015 -0.3037
   86fsi    FSI 1024   2.866   1.024   1.094  0.6193  0.0586  0.4663
   87fsi    FSI 1025   1.889   5.128   4.937  0.1927  0.3903  0.4722
   87fsi    SBT 1026   1.820   5.232   4.840  0.4613 -0.1510  0.4297
   87fsi    NBT 1027   1.712   5.294   4.932 -0.3564  1.2967 -0.4320
   87fsi    OBT 1028   1.931   5.321   4.803 -0.2964  0.2777  0.4220
   87fsi    OBT 1029   1.773   5.152   4.731  0.6261 -0.0803 -0.0563
   87fsi    SBT 1030   1.577   5.230   4.986 -0.1484  0.1258  0.1815
   87fsi    OBT 1031   1.548   5.096   4.956 -0.0685  1.0444  0.0762
   87fsi    OBT 1032   1.470   5.330   4.981 -0.7831 -0.9370 -0.0094
   87fsi    FSI 1033   1.622   5.238   5.135  0.2026  0.5699 -0.1339
   88fsi    FSI 1034   3.478   1.507   2.039 -0.5794  0.1938 -0.2803
   88fsi    SBT 1035   3.361   1.504   1.945  0.8222  0.0280 -0.5747
   88fsi    NBT 1036   3.347   1.649   1.896  0.7884 -0.2995  0.1080
   88fsi    OBT 1037   3.406   1.407   1.849  0.0205  0.5295 -0.6905
   88fsi    OBT 1038   3.247   1.467   2.024 -0.1295  0.0790 -0.6420
   88fsi    SBT 1039   3.353   1.708   1.747  0.0936 -0.1051  0.1599
   88fsi    OBT 1040   3.314   1.850   1.741  0.5305 -0.3154 -0.1696
   88fsi    OBT 1041   3.302   1.612   1.654  0.6401 -0.1063  0.5229
   88fsi    FSI 1042   3.517   1.708   1.725  0.2753 -0.0341  0.0562
   89fsi    FSI 1043   1.060   4.639   0.831  0.2789  0.6450 -0.3386
   89fsi    SBT 1044   1.190   4.636   0.738 -0.3186 -0.1636  0.2199
   89fsi    NBT 1045   1.147   4.523   0.642  0.5767  0.0356  0.1194
   89fsi    OBT 1046   1.187   4.765   0.676 -0.1068 -0.1367  0.8134
   89fsi    OBT 1047   1.293   4.609   0.836 -0.0503  0.4728  0.0650
   89fsi    SBT 1048   1.165   4.371   0.650 -0.4703  0.4207  0.0087
   89fsi    OBT 1049   1.252   4.326   0.751 -0.3263 -0.3371  0.3288
   89fsi    OBT 1050   1.190   4.305   0.521 -0.5732  0.2208 -0.5770
   89fsi    FSI 1051   1.024   4.319   0.690 -0.3024  0.1982  0.4101
   90fsi    FSI 1052   3.113   0.010   1.618  0.6746 -0.4850 -0.3182
   90fsi    SBT 1053   3.163   0.141   1.542  0.2638 -0.3061 -0.4301
   90fsi    NBT 1054   3.156   0.247   1.664  0.3028  0.7212 -0.2299
   90fsi    OBT 1055   3.296   0.120   1.493 -0.4116  0.0448  0.1932
   90fsi    OBT 1056   3.051   0.163   1.455 -0.3780 -0.6295 -0.1613
   90fsi    SBT 1057   3.247   0.252   1.796  0.0795  0.0254  0.3968
   90fsi    OBT 1058   3.310   0.128   1.826 -0.1704 -0.1506  0.9418
   90fsi    OBT 1059   3.195   0.335   1.898  0.4723  1.0729 -0.0663
   90fsi    FSI 1060   3.363   0.341   1.754 -0.1692  0.3751  0.2779
   91fsi    FSI 1061   0.679   4.016   4.836  0.2333  0.1913  0.0749
   91fsi    SBT 1062   0.815   4.054   4.771 -0.2025 -0.4719  0.1465
   91fsi    NBT 1063   0.794   3.993   4.625  0.0223 -0.2372  0.1993
   91fsi    OBT 1064   0.825   4.196   4.784 -0.6185  0.4988 -0.0860
   91fsi    OBT 1065   0.908   3.981   4.853  0.4059 -0.3467 -0.0652
   91fsi    SBT 1066   0.737   4.059   4.491  0.0396 -0.2090  0.5953
   91fsi    OBT 1067   0.708   4.198   4.513  0.2362  0.4938 -0.2747
   91fsi    OBT 1068   0.642   3.964   4.437 -0.5213  0.4675 -0.6234
   91fsi    FSI 1069   0.859   4.063   4.395  0.4795  0.4458  0.2871
   92fsi    FSI 1070   2.399   1.444   1.445 -0.2633  0.1214 -0.4963
   92fsi    SBT 1071   2.404   1.587   1.388  0.1017  0.6835 -0.1734
   92fsi    NBT 1072   2.388   1.682   1.511  0.4535  0.1364  0.0193
   92fsi    OBT 1073   2.527   1.594   1.321 -0.6996  0.3435 -0.4838
   92fsi    OBT 1074   2.286   1.602   1.319 -0.3153  0.0112  0.2398
   92fsi    SBT 1075   2.496   1.727   1.615 -0.0173  0.0088 -0.0533
   92fsi    OBT 1076   2.608   1.632   1.628  0.2028 -0.2249 -0.0279
   92fsi    OBT 1077   2.439   1.776   1.735  0.5161 -0.2401 -0.3752
   92fsi    FSI 1078   2.554   1.855   1.544  0.1931 -0.5560  0.2940
   93fsi    FSI 1079   2.223   0.800   1.359  0.1525 -0.2142 -0.5800
   93fsi    SBT 1080   2.203   0.778   1.506  0.0753 -0.0431 -0.1621
   93fsi    NBT 1081   2.248   0.917   1.566  0.5070  0.3726 -0.0350
   93fsi    OBT 1082   2.062   0.755   1.520  0.0392  0.6628  0.6421
   93fsi    OBT 1083   2.291   0.668   1.530 -0.2526 -0.4223  0.0981
   93fsi    SBT 1084   2.389   0.985   1.562 -0.1496  0.0488 -0.0089
   93fsi    OBT 1085   2.492   0.917   1.498  0.3789 -0.3925  0.0684
   93fsi    OBT 1086   2.414   1.029   1.695  0.1433  0.1127 -0.4466
   93fsi    FSI 1087   2.369   1.120   1.475  0.1717 -0.0006 -0.5499
   94fsi    FSI 1088   2.283   0.626   2.077 -0.0638 -0.4015  0.6703
   94fsi    SBT 1089   2.294   0.688   1.934 -0.1179 -0.0498 -0.5109
   94fsi    NBT 1090   2.150   0.722   1.895 -0.3771  0.3647  0.4526
   94fsi    OBT 1091   2.379   0.803   1.947  0.2475  0.3390 -0.8349
   94fsi    OBT 1092   2.342   0.580   1.849 -0.0340  0.4122  0.1499
   94fsi    SBT 1093   2.072   0.855   1.893  0.2756 -0.2886  0.2475
   94fsi    OBT 1094   1.954   0.845   1.815  1.2128  0.3037  0.1629
   94fsi    OBT 1095   2.155   0.972   1.870 -0.1060  0.3659  0.5077
   94fsi    FSI 1096   2.022   0.861   2.044 -0.7393  0.2439 -0.2003
   95fsi    FSI 1097   1.876   0.098   1.170 -0.4326  0.3818 -0.1712
   95fsi    SBT 1098   1.864   0.208   1.058  0.0070  0.0815 -0.0936
   95fsi    NBT 1099   1.879   0.115   0.936 -0.1477  0.1663 -0.2410
   95fsi    OBT 1100   1.732   0.262   1.081 -0.5467  0.3393  0.2321
   95fsi    OBT 1101   1.977   0.288   1.096  0.3265 -0.4214 -0.0708
   95fsi    SBT 1102   1.788  -0.012   0.909 -0.1936 -0.1060  0.1755
   95fsi    OBT 1103   1.824  -0.078   0.787 -0.4501  0.1341  0.3443
   95fsi    OBT 1104   1.645   0.007   0.932  0.4053  0.4336  0.0569
   95fsi    FSI 1105   1.831  -0.124   1.011 -0.1909 -0.3436 -0.5698
   96fsi    FSI 1106   1.968   0.427   5.121 -0.3115  0.1101  0.0447
   96fsi    SBT 1107   1.900   0.318   5.217 -0.1322 -0.6982 -0.2240
   96fsi    NBT 1108   2.018   0.228   5.257 -0.2920  0.2083 -0.2875
   96fsi    OBT 1109   1.858   0.389   5.336  0.0837 -0.3910 -0.4244
   96fsi    OBT 1110   1.793   0.264   5.143  0.2230  0.6402  0.1899
   96fsi    SBT 1111   2.067   0.093   5.202  0.1345 -0.6118  0.3014
   96fsi    OBT 1112   2.174   0.046   5.285 -0.1986  0.5502 -0.0931
   96fsi    OBT 1113   2.081   0.091   5.056 -0.0254  0.4559 -0.1779
   96fsi    FSI 1114   1.953  -0.003   5.232  0.0157  0.1668  0.5681
   97fsi    FSI 1115   1.178   4.240   5.235 -0.7682  0.0026  0.1979
   97fsi    SBT 1116   1.107   4.208   5.091 -0.1669 -0.2755 -0.4759
   97fsi    NBT 1117   0.952   4.196   5.126 -0.0496 -0.7855 -0.6583
   97fsi    OBT 1118   1.137   4.330   5.018  0.2410  0.0787  0.5146
   97fsi    OBT 1119   1.168   4.088   5.041  0.6059  0.2588  0.0094
   97fsi    SBT 1120   0.842   4.301   5.171  0.0317  0.0653 -0.3462
   97fsi    OBT 1121   0.719   4.247   5.128  0.2472 -0.1914  0.3744
   97fsi    OBT 1122   0.862   4.438   5.140 -0.4040 -0.3787 -0.3285
   97fsi    FSI 1123   0.840   4.292   5.330  0.3682  0.1878  0.0321
   98fsi    FSI 1124   3.049   1.745   2.492  0.4067  0.4663  0.3532
   98fsi    SBT 1125   2.924   1.661   2.457  0.4404 -0.1545 -0.2499
   98fsi    NBT 1126   2.813   1.748   2.520  0.2088  0.3438 -0.1593
   98fsi    OBT 1127   2.917   1.654   2.314 -0.0523 -0.0904 -0.4374
   98fsi    OBT 1128   2.954   1.539   2.527  0.3121 -0.0357 -1.0410
   98fsi    SBT 1129   2.707   1.702   2.628 -0.2100 -0.1163 -0.1378
   98fsi    OBT 1130   2.695   1.558   2.642 -0.0744 -0.2702 -0.5047
   98fsi    OBT 1131   2.586   1.781   2.622  0.1185 -0.5216  0.0662
   98fsi    FSI 1132   2.778   1.744   2.761  0.5810 -0.3973  0.6551
   99fsi    FSI 1133   1.071   3.852   0.928 -0.1127  0.7523 -0.4515
   99fsi    SBT 1134   0.999   3.945   0.815 -0.1375 -0.1427  0.0217
   99fsi    NBT 1135   1.122   4.007   0.737  0.3549 -0.7993 -0.5433
   99fsi    OBT 1136   0.915   3.856   0.740  0.1138  0.5281 -0.4978
   99fsi    OBT 1137   0.925   4.032   0.894  0.3721  0.1138 -0.0350
   99fsi    SBT 1138   1.212   3.930   0.634 -0.0050  0.2647 -0.1120
   99fsi    OBT 1139   1.199   3.786   0.622  0.4778 -0.4255 -0.4690
   99fsi    OBT 1140   1.347   3.982   0.627  0.4385 -0.1050 -0.2993
   99fsi    FSI 1141   1.137   3.985   0.502  0.1698 -0.0761  0.0363
  100fsi    FSI 1142   0.156   4.124   5.041  0.1505 -0.3425 -0.2824
  100fsi    SBT 1143   0.268   4.035   4.979 -0.0600 -0.0048 -0.0930
  100fsi    NBT 1144   0.330   4.132   4.875 -0.3816 -0.5606  0.6127
  100fsi    OBT 1145   0.358   4.004   5.087 -0.1132  0.0347 -0.4609
  100fsi    OBT 1146   0.196   3.924   4.916 -0.4725 -0.3492 -0.5087
  100fsi    SBT 1147   0.397   4.274   4.903 -0.0591 -0.3098 -0.2280
  100fsi    OBT 1148   0.523   4.286   4.832 -0.5890 -0.4946 -0.0327
  100fsi    OBT 1149   0.392   4.302   5.043  0.4422 -0.4391  0.3386
  100fsi    FSI 1150   0.296   4.380   4.829  0.0368  0.0233  0.4675
   5.28770   5.28770   5.28770
