L1P2 short trajectory practice
 2300
    1Li+     Li    1   4.898   4.767   5.430
    2Li+     Li    2   0.906   5.802   5.990
    3Li+     Li    3   3.964   1.443   2.059
    4Li+     Li    4   3.808   1.366   0.628
    5Li+     Li    5   4.439   0.779   6.233
    6Li+     Li    6   2.444   1.561   2.591
    7Li+     Li    7   3.315   6.046   6.466
    8Li+     Li    8   3.483   6.468   1.137
    9Li+     Li    9   2.080   4.455   4.524
   10Li+     Li   10   6.471   5.009   5.318
   11Li+     Li   11   5.999   3.071   4.879
   12Li+     Li   12   5.683   2.162   5.744
   13Li+     Li   13   1.707   6.203   3.739
   14Li+     Li   14   4.183   1.375   2.785
   15Li+     Li   15   1.783   6.214   4.723
   16Li+     Li   16   3.953   5.777   4.625
   17Li+     Li   17   0.927   1.968   4.499
   18Li+     Li   18   5.410   5.627   5.142
   19Li+     Li   19   0.631   3.913   1.722
   20Li+     Li   20   5.750   2.318   1.223
   21Li+     Li   21   1.606   1.497   1.086
   22Li+     Li   22   6.085   6.131   5.181
   23Li+     Li   23   3.856   1.431   3.172
   24Li+     Li   24   5.184   5.537   5.770
   25Li+     Li   25   2.255   4.648   4.068
   26Li+     Li   26   4.633   0.296   1.921
   27Li+     Li   27   4.540   6.040   2.764
   28Li+     Li   28   1.215   3.130   0.113
   29Li+     Li   29   2.049   1.493   4.714
   30Li+     Li   30   6.469   3.226   1.085
   31Li+     Li   31   5.862   3.050   5.399
   32Li+     Li   32   1.427   2.255   1.058
   33Li+     Li   33   0.821   2.562   3.933
   34Li+     Li   34   1.496   6.234   5.737
   35Li+     Li   35   6.022   4.334   1.458
   36Li+     Li   36   5.603   2.212   5.314
   37Li+     Li   37   2.002   6.388   2.017
   38Li+     Li   38   0.986   5.537   1.663
   39Li+     Li   39   1.496   2.551   6.058
   40Li+     Li   40   0.367   1.262   0.644
   41Li+     Li   41   3.389   6.066   5.260
   42Li+     Li   42   6.018   2.627   5.656
   43Li+     Li   43   0.794   1.289   2.852
   44Li+     Li   44   3.164   5.711   2.322
   45Li+     Li   45   4.432   4.388   4.083
   46Li+     Li   46   4.963   6.379   0.998
   47Li+     Li   47   0.841   1.060   3.396
   48Li+     Li   48   2.147   1.670   3.225
   49Li+     Li   49   4.646   5.526   4.599
   50Li+     Li   50   4.855   5.997   3.556
   51c3c     N4   51   3.225   4.950   5.677
   51c3c     C1   52   3.113   4.941   5.772
   51c3c     C1   53   3.181   4.898   5.545
   51c3c     C2   54   2.999   4.864   5.706
   51c3c     C2   55   3.042   4.837   5.563
   51c3c     C1   56   3.260   5.092   5.661
   51c3c     C1   57   3.343   4.877   5.726
   51c3c     H1   58   3.075   5.039   5.802
   51c3c     H1   59   3.141   4.895   5.867
   51c3c     H1   60   3.174   4.976   5.469
   51c3c     H1   61   3.250   4.826   5.502
   51c3c     HC   62   2.907   4.922   5.708
   51c3c     HC   63   2.979   4.770   5.758
   51c3c     HC   64   2.971   4.882   5.493
   51c3c     HC   65   3.044   4.729   5.543
   51c3c     H1   66   3.291   5.137   5.755
   51c3c     H1   67   3.341   5.106   5.589
   51c3c     H1   68   3.175   5.150   5.625
   51c3c     H1   69   3.426   4.890   5.656
   51c3c     H1   70   3.377   4.921   5.820
   51c3c     C2   71   3.322   4.724   5.748
   51c3c     HC   72   3.291   4.675   5.656
   51c3c     HC   73   3.243   4.706   5.820
   51c3c     CT   74   3.448   4.655   5.798
   51c3c     HC   75   3.481   4.696   5.894
   51c3c     HC   76   3.530   4.665   5.727
   51c3c     HC   77   3.430   4.548   5.813
   52c3c     N4   78   3.858   0.730   1.897
   52c3c     C1   79   3.948   0.702   1.783
   52c3c     C1   80   3.721   0.752   1.847
   52c3c     C2   81   3.870   0.727   1.654
   52c3c     C2   82   3.727   0.759   1.694
   52c3c     C1   83   3.856   0.611   1.984
   52c3c     C1   84   3.906   0.845   1.976
   52c3c     H1   85   3.984   0.600   1.782
   52c3c     H1   86   4.039   0.762   1.784
   52c3c     H1   87   3.652   0.673   1.875
   52c3c     H1   88   3.675   0.842   1.887
   52c3c     HC   89   3.873   0.639   1.590
   52c3c     HC   90   3.912   0.810   1.597
   52c3c     HC   91   3.658   0.686   1.650
   52c3c     HC   92   3.698   0.857   1.657
   52c3c     H1   93   3.955   0.587   2.022
   52c3c     H1   94   3.790   0.623   2.069
   52c3c     H1   95   3.821   0.523   1.929
   52c3c     H1   96   3.841   0.858   2.063
   52c3c     H1   97   4.004   0.822   2.017
   52c3c     C2   98   3.914   0.979   1.899
   52c3c     HC   99   3.816   1.007   1.859
   52c3c     HC  100   3.980   0.971   1.813
   52c3c     CT  101   3.964   1.094   1.986
   52c3c     HC  102   4.064   1.074   2.025
   52c3c     HC  103   3.897   1.111   2.071
   52c3c     HC  104   3.968   1.187   1.929
   53c3c     N4  105   6.361   2.336   2.658
   53c3c     C1  106   6.275   2.260   2.564
   53c3c     C1  107   6.276   2.399   2.761
   53c3c     C2  108   6.129   2.292   2.596
   53c3c     C2  109   6.129   2.380   2.720
   53c3c     C1  110   6.451   2.241   2.725
   53c3c     C1  111   6.443   2.436   2.587
   53c3c     H1  112   6.290   2.152   2.571
   53c3c     H1  113   6.296   2.282   2.460
   53c3c     H1  114   6.291   2.357   2.860
   53c3c     H1  115   6.297   2.505   2.774
   53c3c     HC  116   6.074   2.200   2.615
   53c3c     HC  117   6.081   2.343   2.513
   53c3c     HC  118   6.074   2.332   2.801
   53c3c     HC  119   6.082   2.475   2.699
   53c3c     H1  120   6.515   2.188   2.654
   53c3c     H1  121   6.515   2.290   2.798
   53c3c     H1  122   6.394   2.165   2.779
   53c3c     H1  123   6.509   2.486   2.658
   53c3c     H1  124   6.508   2.385   2.516
   53c3c     C2  125   6.362   2.544   2.510
   53c3c     HC  126   6.296   2.600   2.577
   53c3c     HC  127   6.297   2.500   2.435
   53c3c     CT  128   6.453   2.645   2.440
   53c3c     HC  129   6.516   2.595   2.366
   53c3c     HC  130   6.517   2.697   2.511
   53c3c     HC  131   6.393   2.719   2.387
   54c3c     N4  132   0.401   2.898   1.836
   54c3c     C1  133   0.391   2.751   1.827
   54c3c     C1  134   0.541   2.939   1.812
   54c3c     C2  135   0.532   2.694   1.816
   54c3c     C2  136   0.627   2.813   1.807
   54c3c     C1  137   0.317   2.956   1.730
   54c3c     C1  138   0.352   2.948   1.966
   54c3c     H1  139   0.333   2.718   1.741
   54c3c     H1  140   0.338   2.707   1.911
   54c3c     H1  141   0.554   2.994   1.719
   54c3c     H1  142   0.578   3.007   1.888
   54c3c     HC  143   0.541   2.631   1.728
   54c3c     HC  144   0.556   2.633   1.903
   54c3c     HC  145   0.684   2.809   1.714
   54c3c     HC  146   0.698   2.810   1.890
   54c3c     H1  147   0.212   2.928   1.740
   54c3c     H1  148   0.321   3.065   1.729
   54c3c     H1  149   0.349   2.922   1.631
   54c3c     H1  150   0.354   3.056   1.967
   54c3c     H1  151   0.247   2.921   1.978
   54c3c     C2  152   0.430   2.895   2.089
   54c3c     HC  153   0.536   2.922   2.084
   54c3c     HC  154   0.427   2.786   2.095
   54c3c     CT  155   0.374   2.950   2.220
   54c3c     HC  156   0.270   2.921   2.234
   54c3c     HC  157   0.380   3.059   2.223
   54c3c     HC  158   0.431   2.912   2.305
   55c3c     N4  159   1.324   5.195   1.215
   55c3c     C1  160   1.376   5.158   1.349
   55c3c     C1  161   1.407   5.303   1.160
   55c3c     C2  162   1.483   5.259   1.388
   55c3c     C2  163   1.503   5.351   1.269
   55c3c     C1  164   1.337   5.078   1.127
   55c3c     C1  165   1.182   5.234   1.221
   55c3c     H1  166   1.420   5.058   1.351
   55c3c     H1  167   1.298   5.152   1.425
   55c3c     H1  168   1.467   5.272   1.074
   55c3c     H1  169   1.349   5.387   1.121
   55c3c     HC  170   1.576   5.208   1.413
   55c3c     HC  171   1.453   5.317   1.476
   55c3c     HC  172   1.606   5.346   1.234
   55c3c     HC  173   1.483   5.455   1.297
   55c3c     H1  174   1.281   4.992   1.163
   55c3c     H1  175   1.304   5.098   1.025
   55c3c     H1  176   1.441   5.046   1.119
   55c3c     H1  177   1.146   5.254   1.120
   55c3c     H1  178   1.123   5.149   1.256
   55c3c     C2  179   1.151   5.357   1.310
   55c3c     HC  180   1.206   5.445   1.276
   55c3c     HC  181   1.184   5.340   1.413
   55c3c     CT  182   1.002   5.392   1.313
   55c3c     HC  183   0.943   5.309   1.352
   55c3c     HC  184   0.966   5.416   1.213
   55c3c     HC  185   0.984   5.479   1.375
   56c3c     N4  186   3.397   3.501   1.828
   56c3c     C1  187   3.315   3.396   1.765
   56c3c     C1  188   3.519   3.440   1.885
   56c3c     C2  189   3.376   3.260   1.800
   56c3c     C2  190   3.505   3.288   1.876
   56c3c     C1  191   3.438   3.596   1.724
   56c3c     C1  192   3.320   3.575   1.931
   56c3c     H1  193   3.311   3.405   1.657
   56c3c     H1  194   3.210   3.400   1.795
   56c3c     H1  195   3.609   3.470   1.833
   56c3c     H1  196   3.537   3.471   1.988
   56c3c     HC  197   3.398   3.204   1.709
   56c3c     HC  198   3.308   3.201   1.861
   56c3c     HC  199   3.590   3.245   1.823
   56c3c     HC  200   3.501   3.243   1.975
   56c3c     H1  201   3.353   3.644   1.675
   56c3c     H1  202   3.501   3.676   1.763
   56c3c     H1  203   3.495   3.547   1.645
   56c3c     H1  204   3.381   3.656   1.971
   56c3c     H1  205   3.235   3.624   1.885
   56c3c     C2  206   3.269   3.488   2.049
   56c3c     HC  207   3.352   3.440   2.102
   56c3c     HC  208   3.205   3.408   2.015
   56c3c     CT  209   3.191   3.570   2.152
   56c3c     HC  210   3.103   3.617   2.107
   56c3c     HC  211   3.253   3.649   2.195
   56c3c     HC  212   3.157   3.507   2.234
   57c3c     N4  213   1.676   0.610   3.266
   57c3c     C1  214   1.547   0.561   3.213
   57c3c     C1  215   1.783   0.577   3.169
   57c3c     C2  216   1.574   0.477   3.088
   57c3c     C2  217   1.723   0.487   3.061
   57c3c     C1  218   1.669   0.756   3.278
   57c3c     C1  219   1.705   0.553   3.399
   57c3c     H1  220   1.479   0.642   3.187
   57c3c     H1  221   1.491   0.503   3.286
   57c3c     H1  222   1.827   0.665   3.122
   57c3c     H1  223   1.869   0.528   3.215
   57c3c     HC  224   1.517   0.515   3.004
   57c3c     HC  225   1.545   0.373   3.104
   57c3c     HC  226   1.741   0.530   2.962
   57c3c     HC  227   1.769   0.388   3.062
   57c3c     H1  228   1.590   0.787   3.347
   57c3c     H1  229   1.763   0.798   3.314
   57c3c     H1  230   1.648   0.802   3.182
   57c3c     H1  231   1.798   0.595   3.437
   57c3c     H1  232   1.628   0.584   3.469
   57c3c     C2  233   1.716   0.398   3.403
   57c3c     HC  234   1.795   0.362   3.337
   57c3c     HC  235   1.624   0.351   3.369
   57c3c     CT  236   1.745   0.346   3.544
   57c3c     HC  237   1.667   0.374   3.614
   57c3c     HC  238   1.840   0.385   3.581
   57c3c     HC  239   1.753   0.237   3.543
   58c3c     N4  240   2.109   4.538   1.494
   58c3c     C1  241   2.028   4.499   1.376
   58c3c     C1  242   2.177   4.665   1.465
   58c3c     C2  243   2.061   4.595   1.262
   58c3c     C2  244   2.156   4.700   1.318
   58c3c     C1  245   2.018   4.558   1.608
   58c3c     C1  246   2.205   4.432   1.530
   58c3c     H1  247   1.921   4.504   1.396
   58c3c     H1  248   2.044   4.396   1.346
   58c3c     H1  249   2.141   4.747   1.527
   58c3c     H1  250   2.284   4.662   1.488
   58c3c     HC  251   1.970   4.642   1.224
   58c3c     HC  252   2.108   4.542   1.179
   58c3c     HC  253   2.112   4.799   1.308
   58c3c     HC  254   2.250   4.699   1.263
   58c3c     H1  255   1.962   4.468   1.633
   58c3c     H1  256   2.071   4.589   1.698
   58c3c     H1  257   1.945   4.636   1.586
   58c3c     H1  258   2.259   4.461   1.620
   58c3c     H1  259   2.152   4.341   1.557
   58c3c     C2  260   2.309   4.398   1.419
   58c3c     HC  261   2.368   4.485   1.392
   58c3c     HC  262   2.260   4.365   1.327
   58c3c     CT  263   2.405   4.287   1.463
   58c3c     HC  264   2.352   4.195   1.486
   58c3c     HC  265   2.462   4.317   1.551
   58c3c     HC  266   2.477   4.266   1.383
   59c3c     N4  267   3.077   5.931   4.871
   59c3c     C1  268   3.146   5.801   4.884
   59c3c     C1  269   2.931   5.909   4.876
   59c3c     C2  270   3.041   5.690   4.877
   59c3c     C2  271   2.905   5.758   4.872
   59c3c     C1  272   3.113   6.014   4.986
   59c3c     C1  273   3.117   6.002   4.748
   59c3c     H1  274   3.200   5.791   4.978
   59c3c     H1  275   3.222   5.786   4.807
   59c3c     H1  276   2.884   5.949   4.966
   59c3c     H1  277   2.877   5.959   4.795
   59c3c     HC  278   3.048   5.626   4.964
   59c3c     HC  279   3.055   5.628   4.788
   59c3c     HC  280   2.844   5.728   4.957
   59c3c     HC  281   2.852   5.730   4.781
   59c3c     H1  282   3.220   6.033   4.990
   59c3c     H1  283   3.062   6.111   4.985
   59c3c     H1  284   3.085   5.966   5.080
   59c3c     H1  285   3.068   6.100   4.744
   59c3c     H1  286   3.224   6.023   4.750
   59c3c     C2  287   3.084   5.927   4.616
   59c3c     HC  288   2.977   5.908   4.606
   59c3c     HC  289   3.133   5.830   4.612
   59c3c     CT  290   3.129   6.006   4.492
   59c3c     HC  291   3.236   6.023   4.492
   59c3c     HC  292   3.078   6.103   4.487
   59c3c     HC  293   3.104   5.951   4.401
   60c3c     N4  294   2.957   0.781   3.003
   60c3c     C1  295   3.030   0.676   3.076
   60c3c     C1  296   3.026   0.910   3.023
   60c3c     C2  297   3.138   0.742   3.161
   60c3c     C2  298   3.136   0.890   3.127
   60c3c     C1  299   2.959   0.749   2.860
   60c3c     C1  300   2.816   0.789   3.047
   60c3c     H1  301   3.076   0.603   3.009
   60c3c     H1  302   2.965   0.614   3.138
   60c3c     H1  303   3.072   0.948   2.931
   60c3c     H1  304   2.959   0.990   3.053
   60c3c     HC  305   3.236   0.699   3.137
   60c3c     HC  306   3.120   0.727   3.267
   60c3c     HC  307   3.233   0.922   3.087
   60c3c     HC  308   3.116   0.949   3.217
   60c3c     H1  309   2.912   0.653   2.839
   60c3c     H1  310   2.909   0.825   2.800
   60c3c     H1  311   3.062   0.742   2.823
   60c3c     H1  312   2.763   0.863   2.987
   60c3c     H1  313   2.766   0.694   3.027
   60c3c     C2  314   2.796   0.822   3.197
   60c3c     HC  315   2.842   0.918   3.223
   60c3c     HC  316   2.843   0.748   3.261
   60c3c     CT  317   2.648   0.829   3.236
   60c3c     HC  318   2.599   0.734   3.218
   60c3c     HC  319   2.596   0.906   3.179
   60c3c     HC  320   2.637   0.853   3.342
   61c3c     N4  321   4.479   3.206   5.352
   61c3c     C1  322   4.601   3.130   5.319
   61c3c     C1  323   4.483   3.337   5.284
   61c3c     C2  324   4.696   3.223   5.244
   61c3c     C2  325   4.621   3.354   5.222
   61c3c     C1  326   4.363   3.131   5.300
   61c3c     C1  327   4.463   3.221   5.498
   61c3c     H1  328   4.582   3.043   5.257
   61c3c     H1  329   4.651   3.089   5.407
   61c3c     H1  330   4.408   3.346   5.206
   61c3c     H1  331   4.461   3.420   5.351
   61c3c     HC  332   4.724   3.179   5.148
   61c3c     HC  333   4.787   3.241   5.300
   61c3c     HC  334   4.612   3.375   5.115
   61c3c     HC  335   4.676   3.436   5.268
   61c3c     H1  336   4.355   3.031   5.344
   61c3c     H1  337   4.269   3.183   5.319
   61c3c     H1  338   4.371   3.117   5.192
   61c3c     H1  339   4.369   3.272   5.519
   61c3c     H1  340   4.454   3.123   5.544
   61c3c     C2  341   4.577   3.299   5.569
   61c3c     HC  342   4.588   3.399   5.528
   61c3c     HC  343   4.674   3.250   5.554
   61c3c     CT  344   4.554   3.311   5.720
   61c3c     HC  345   4.549   3.213   5.767
   61c3c     HC  346   4.462   3.365   5.741
   61c3c     HC  347   4.636   3.366   5.766
   62c3c     N4  348   3.830   2.168   3.433
   62c3c     C1  349   3.968   2.211   3.407
   62c3c     C1  350   3.740   2.232   3.336
   62c3c     C2  351   3.965   2.322   3.302
   62c3c     C2  352   3.820   2.335   3.257
   62c3c     C1  353   3.822   2.022   3.414
   62c3c     C1  354   3.789   2.198   3.572
   62c3c     H1  355   4.032   2.130   3.371
   62c3c     H1  356   4.020   2.246   3.497
   62c3c     H1  357   3.695   2.162   3.266
   62c3c     H1  358   3.654   2.280   3.382
   62c3c     HC  359   4.029   2.296   3.217
   62c3c     HC  360   4.000   2.416   3.343
   62c3c     HC  361   3.812   2.316   3.150
   62c3c     HC  362   3.784   2.436   3.275
   62c3c     H1  363   3.888   1.968   3.481
   62c3c     H1  364   3.721   1.984   3.429
   62c3c     H1  365   3.851   1.995   3.312
   62c3c     H1  366   3.689   2.160   3.590
   62c3c     H1  367   3.853   2.144   3.642
   62c3c     C2  368   3.792   2.349   3.609
   62c3c     HC  369   3.725   2.407   3.545
   62c3c     HC  370   3.891   2.392   3.596
   62c3c     CT  371   3.749   2.373   3.754
   62c3c     HC  372   3.815   2.322   3.824
   62c3c     HC  373   3.647   2.338   3.771
   62c3c     HC  374   3.751   2.480   3.777
   63c3c     N4  375   3.897   5.063   5.355
   63c3c     C1  376   3.954   4.934   5.312
   63c3c     C1  377   3.755   5.044   5.391
   63c3c     C2  378   3.841   4.832   5.302
   63c3c     C2  379   3.715   4.901   5.352
   63c3c     C1  380   3.969   5.109   5.475
   63c3c     C1  381   3.911   5.166   5.250
   63c3c     H1  382   4.029   4.896   5.382
   63c3c     H1  383   4.008   4.941   5.218
   63c3c     H1  384   3.737   5.057   5.498
   63c3c     H1  385   3.689   5.116   5.345
   63c3c     HC  386   3.863   4.745   5.363
   63c3c     HC  387   3.827   4.798   5.199
   63c3c     HC  388   3.674   4.848   5.438
   63c3c     HC  389   3.639   4.902   5.274
   63c3c     H1  390   4.075   5.123   5.455
   63c3c     H1  391   3.930   5.203   5.513
   63c3c     H1  392   3.962   5.036   5.555
   63c3c     H1  393   3.874   5.262   5.287
   63c3c     H1  394   4.017   5.182   5.230
   63c3c     C2  395   3.840   5.133   5.116
   63c3c     HC  396   3.733   5.119   5.130
   63c3c     HC  397   3.877   5.040   5.073
   63c3c     CT  398   3.859   5.243   5.012
   63c3c     HC  399   3.964   5.258   4.989
   63c3c     HC  400   3.818   5.338   5.047
   63c3c     HC  401   3.808   5.217   4.919
   64c3c     N4  402   4.590   3.820   3.825
   64c3c     C1  403   4.699   3.799   3.727
   64c3c     C1  404   4.545   3.960   3.818
   64c3c     C2  405   4.738   3.936   3.669
   64c3c     C2  406   4.640   4.037   3.727
   64c3c     C1  407   4.478   3.733   3.788
   64c3c     C1  408   4.634   3.785   3.962
   64c3c     H1  409   4.670   3.734   3.646
   64c3c     H1  410   4.786   3.750   3.770
   64c3c     H1  411   4.444   3.969   3.778
   64c3c     H1  412   4.539   4.008   3.916
   64c3c     HC  413   4.731   3.934   3.560
   64c3c     HC  414   4.840   3.962   3.696
   64c3c     HC  415   4.585   4.086   3.646
   64c3c     HC  416   4.694   4.114   3.781
   64c3c     H1  417   4.505   3.627   3.789
   64c3c     H1  418   4.392   3.744   3.855
   64c3c     H1  419   4.442   3.755   3.688
   64c3c     H1  420   4.550   3.794   4.031
   64c3c     H1  421   4.662   3.679   3.965
   64c3c     C2  422   4.753   3.868   4.016
   64c3c     HC  423   4.730   3.975   4.018
   64c3c     HC  424   4.841   3.858   3.953
   64c3c     CT  425   4.793   3.827   4.158
   64c3c     HC  426   4.824   3.723   4.161
   64c3c     HC  427   4.711   3.841   4.228
   64c3c     HC  428   4.877   3.887   4.193
   65c3c     N4  429   6.074   4.474   2.639
   65c3c     C1  430   6.165   4.585   2.672
   65c3c     C1  431   5.985   4.514   2.529
   65c3c     C2  432   6.120   4.708   2.594
   65c3c     C2  433   6.006   4.664   2.503
   65c3c     C1  434   6.155   4.360   2.594
   65c3c     C1  435   5.997   4.431   2.758
   65c3c     H1  436   6.269   4.564   2.648
   65c3c     H1  437   6.167   4.608   2.779
   65c3c     H1  438   6.003   4.460   2.437
   65c3c     H1  439   5.880   4.495   2.550
   65c3c     HC  440   6.202   4.748   2.534
   65c3c     HC  441   6.086   4.787   2.660
   65c3c     HC  442   6.031   4.681   2.399
   65c3c     HC  443   5.916   4.721   2.525
   65c3c     H1  444   6.225   4.327   2.670
   65c3c     H1  445   6.094   4.274   2.566
   65c3c     H1  446   6.214   4.387   2.506
   65c3c     H1  447   5.935   4.345   2.732
   65c3c     H1  448   6.065   4.396   2.835
   65c3c     C2  449   5.905   4.540   2.819
   65c3c     HC  450   5.832   4.577   2.747
   65c3c     HC  451   5.962   4.628   2.850
   65c3c     CT  452   5.828   4.489   2.941
   65c3c     HC  453   5.896   4.457   3.020
   65c3c     HC  454   5.764   4.405   2.915
   65c3c     HC  455   5.765   4.568   2.981
   66c3c     N4  456   6.139   4.028   2.119
   66c3c     C1  457   6.282   4.064   2.124
   66c3c     C1  458   6.125   3.882   2.127
   66c3c     C2  459   6.364   3.935   2.114
   66c3c     C2  460   6.264   3.820   2.116
   66c3c     C1  461   6.073   4.087   2.237
   66c3c     C1  462   6.074   4.082   1.998
   66c3c     H1  463   6.310   4.116   2.216
   66c3c     H1  464   6.311   4.134   2.045
   66c3c     H1  465   6.079   3.848   2.219
   66c3c     H1  466   6.059   3.841   2.050
   66c3c     HC  467   6.432   3.927   2.199
   66c3c     HC  468   6.423   3.933   2.023
   66c3c     HC  469   6.283   3.755   2.201
   66c3c     HC  470   6.274   3.760   2.026
   66c3c     H1  471   6.081   4.195   2.240
   66c3c     H1  472   5.967   4.061   2.241
   66c3c     H1  473   6.117   4.049   2.329
   66c3c     H1  474   5.968   4.059   2.001
   66c3c     H1  475   6.080   4.191   1.999
   66c3c     C2  476   6.132   4.030   1.864
   66c3c     HC  477   6.124   3.922   1.857
   66c3c     HC  478   6.239   4.053   1.855
   66c3c     CT  479   6.061   4.090   1.743
   66c3c     HC  480   6.070   4.199   1.742
   66c3c     HC  481   5.955   4.064   1.743
   66c3c     HC  482   6.104   4.051   1.651
   67c3c     N4  483   3.762   4.773   1.150
   67c3c     C1  484   3.618   4.806   1.157
   67c3c     C1  485   3.841   4.898   1.159
   67c3c     C2  486   3.603   4.958   1.150
   67c3c     C2  487   3.744   5.016   1.151
   67c3c     C1  488   3.795   4.689   1.266
   67c3c     C1  489   3.794   4.698   1.027
   67c3c     H1  490   3.570   4.771   1.248
   67c3c     H1  491   3.559   4.759   1.078
   67c3c     H1  492   3.897   4.905   1.251
   67c3c     H1  493   3.916   4.906   1.080
   67c3c     HC  494   3.546   4.994   1.235
   67c3c     HC  495   3.550   4.988   1.060
   67c3c     HC  496   3.757   5.081   1.237
   67c3c     HC  497   3.761   5.075   1.061
   67c3c     H1  498   3.738   4.597   1.268
   67c3c     H1  499   3.901   4.663   1.270
   67c3c     H1  500   3.772   4.741   1.360
   67c3c     H1  501   3.899   4.669   1.028
   67c3c     H1  502   3.738   4.604   1.027
   67c3c     C2  503   3.764   4.773   0.895
   67c3c     HC  504   3.819   4.867   0.889
   67c3c     HC  505   3.659   4.800   0.887
   67c3c     CT  506   3.800   4.690   0.771
   67c3c     HC  507   3.743   4.598   0.768
   67c3c     HC  508   3.907   4.665   0.770
   67c3c     HC  509   3.778   4.746   0.680
   68c3c     N4  510   0.653   1.080   4.935
   68c3c     C1  511   0.713   0.950   4.971
   68c3c     C1  512   0.632   1.160   5.058
   68c3c     C2  513   0.713   0.938   5.124
   68c3c     C2  514   0.662   1.070   5.179
   68c3c     C1  515   0.748   1.152   4.850
   68c3c     C1  516   0.526   1.062   4.861
   68c3c     H1  517   0.815   0.940   4.936
   68c3c     H1  518   0.661   0.865   4.926
   68c3c     H1  519   0.697   1.247   5.064
   68c3c     H1  520   0.532   1.202   5.066
   68c3c     HC  521   0.813   0.918   5.160
   68c3c     HC  522   0.648   0.856   5.157
   68c3c     HC  523   0.737   1.116   5.242
   68c3c     HC  524   0.572   1.054   5.239
   68c3c     H1  525   0.770   1.098   4.758
   68c3c     H1  526   0.711   1.251   4.822
   68c3c     H1  527   0.843   1.168   4.901
   68c3c     H1  528   0.488   1.160   4.831
   68c3c     H1  529   0.546   1.009   4.768
   68c3c     C2  530   0.415   0.987   4.939
   68c3c     HC  531   0.389   1.039   5.031
   68c3c     HC  532   0.447   0.888   4.968
   68c3c     CT  533   0.287   0.972   4.856
   68c3c     HC  534   0.305   0.916   4.765
   68c3c     HC  535   0.246   1.070   4.829
   68c3c     HC  536   0.211   0.919   4.914
   69c3c     N4  537   0.917   6.021   3.631
   69c3c     C1  538   1.036   5.954   3.688
   69c3c     C1  539   0.952   6.076   3.498
   69c3c     C2  540   1.156   5.984   3.597
   69c3c     C2  541   1.102   6.061   3.477
   69c3c     C1  542   0.812   5.920   3.613
   69c3c     C1  543   0.866   6.126   3.721
   69c3c     H1  544   1.024   5.846   3.695
   69c3c     H1  545   1.057   5.985   3.790
   69c3c     H1  546   0.900   6.025   3.417
   69c3c     H1  547   0.921   6.180   3.486
   69c3c     HC  548   1.203   5.892   3.565
   69c3c     HC  549   1.231   6.043   3.650
   69c3c     HC  550   1.123   6.007   3.385
   69c3c     HC  551   1.151   6.159   3.470
   69c3c     H1  552   0.783   5.873   3.708
   69c3c     H1  553   0.722   5.963   3.569
   69c3c     H1  554   0.845   5.840   3.547
   69c3c     H1  555   0.775   6.169   3.680
   69c3c     H1  556   0.836   6.082   3.816
   69c3c     C2  557   0.966   6.241   3.751
   69c3c     HC  558   0.996   6.292   3.659
   69c3c     HC  559   1.058   6.203   3.796
   69c3c     CT  560   0.908   6.346   3.845
   69c3c     HC  561   0.881   6.303   3.941
   69c3c     HC  562   0.818   6.392   3.802
   69c3c     HC  563   0.980   6.426   3.863
   70c3c     N4  564   4.850   4.643   1.310
   70c3c     C1  565   4.775   4.676   1.187
   70c3c     C1  566   4.994   4.654   1.283
   70c3c     C2  567   4.876   4.689   1.072
   70c3c     C2  568   5.014   4.675   1.133
   70c3c     C1  569   4.814   4.742   1.413
   70c3c     C1  570   4.814   4.509   1.360
   70c3c     H1  571   4.719   4.768   1.194
   70c3c     H1  572   4.699   4.602   1.162
   70c3c     H1  573   5.041   4.737   1.337
   70c3c     H1  574   5.050   4.567   1.317
   70c3c     HC  575   4.865   4.786   1.023
   70c3c     HC  576   4.860   4.612   0.997
   70c3c     HC  577   5.073   4.765   1.115
   70c3c     HC  578   5.067   4.591   1.088
   70c3c     H1  579   4.707   4.741   1.435
   70c3c     H1  580   4.867   4.726   1.506
   70c3c     H1  581   4.838   4.843   1.380
   70c3c     H1  582   4.866   4.490   1.454
   70c3c     H1  583   4.708   4.506   1.384
   70c3c     C2  584   4.846   4.392   1.263
   70c3c     HC  585   4.952   4.389   1.238
   70c3c     HC  586   4.793   4.404   1.168
   70c3c     CT  587   4.808   4.256   1.321
   70c3c     HC  588   4.701   4.251   1.342
   70c3c     HC  589   4.862   4.236   1.413
   70c3c     HC  590   4.831   4.176   1.250
   71c3c     N4  591   0.886   3.967   3.467
   71c3c     C1  592   1.020   3.906   3.467
   71c3c     C1  593   0.896   4.110   3.432
   71c3c     C2  594   1.123   4.018   3.450
   71c3c     C2  595   1.045   4.147   3.428
   71c3c     C1  596   0.805   3.900   3.363
   71c3c     C1  597   0.819   3.948   3.597
   71c3c     H1  598   1.035   3.834   3.386
   71c3c     H1  599   1.042   3.849   3.557
   71c3c     H1  600   0.852   4.133   3.335
   71c3c     H1  601   0.843   4.175   3.500
   71c3c     HC  602   1.188   3.998   3.364
   71c3c     HC  603   1.186   4.027   3.538
   71c3c     HC  604   1.070   4.191   3.331
   71c3c     HC  605   1.069   4.220   3.505
   71c3c     H1  606   0.795   3.793   3.381
   71c3c     H1  607   0.705   3.942   3.356
   71c3c     H1  608   0.851   3.911   3.265
   71c3c     H1  609   0.718   3.989   3.592
   71c3c     H1  610   0.807   3.842   3.617
   71c3c     C2  611   0.891   4.014   3.718
   71c3c     HC  612   0.903   4.121   3.704
   71c3c     HC  613   0.993   3.974   3.729
   71c3c     CT  614   0.817   3.991   3.850
   71c3c     HC  615   0.808   3.885   3.872
   71c3c     HC  616   0.717   4.034   3.846
   71c3c     HC  617   0.871   4.038   3.932
   72c3c     N4  618   5.008   1.513   3.582
   72c3c     C1  619   5.012   1.570   3.718
   72c3c     C1  620   5.140   1.531   3.519
   72c3c     C2  621   5.144   1.644   3.736
   72c3c     C2  622   5.225   1.619   3.610
   72c3c     C1  623   4.981   1.369   3.593
   72c3c     C1  624   4.901   1.575   3.501
   72c3c     H1  625   5.004   1.494   3.796
   72c3c     H1  626   4.928   1.637   3.739
   72c3c     H1  627   5.192   1.436   3.504
   72c3c     H1  628   5.134   1.573   3.419
   72c3c     HC  629   5.197   1.606   3.823
   72c3c     HC  630   5.129   1.751   3.750
   72c3c     HC  631   5.319   1.569   3.634
   72c3c     HC  632   5.250   1.714   3.561
   72c3c     H1  633   4.886   1.349   3.642
   72c3c     H1  634   4.979   1.320   3.496
   72c3c     H1  635   5.057   1.319   3.653
   72c3c     H1  636   4.897   1.527   3.404
   72c3c     H1  637   4.804   1.555   3.548
   72c3c     C2  638   4.915   1.728   3.480
   72c3c     HC  639   5.009   1.753   3.431
   72c3c     HC  640   4.916   1.782   3.575
   72c3c     CT  641   4.801   1.786   3.395
   72c3c     HC  642   4.705   1.770   3.442
   72c3c     HC  643   4.799   1.741   3.296
   72c3c     HC  644   4.814   1.894   3.382
   73c3c     N4  645   3.031   1.362   1.193
   73c3c     C1  646   3.094   1.243   1.134
   73c3c     C1  647   3.118   1.479   1.171
   73c3c     C2  648   3.235   1.281   1.089
   73c3c     C2  649   3.250   1.430   1.112
   73c3c     C1  650   2.903   1.386   1.124
   73c3c     C1  651   3.004   1.342   1.337
   73c3c     H1  652   3.039   1.204   1.048
   73c3c     H1  653   3.097   1.158   1.202
   73c3c     H1  654   3.075   1.552   1.102
   73c3c     H1  655   3.136   1.537   1.262
   73c3c     HC  656   3.249   1.257   0.983
   73c3c     HC  657   3.310   1.225   1.145
   73c3c     HC  658   3.272   1.481   1.018
   73c3c     HC  659   3.333   1.449   1.180
   73c3c     H1  660   2.835   1.302   1.135
   73c3c     H1  661   2.852   1.475   1.162
   73c3c     H1  662   2.919   1.401   1.018
   73c3c     H1  663   2.952   1.429   1.377
   73c3c     H1  664   2.935   1.259   1.350
   73c3c     C2  665   3.129   1.316   1.425
   73c3c     HC  666   3.201   1.398   1.418
   73c3c     HC  667   3.183   1.227   1.391
   73c3c     CT  668   3.094   1.296   1.572
   73c3c     HC  669   3.028   1.211   1.586
   73c3c     HC  670   3.045   1.385   1.613
   73c3c     HC  671   3.184   1.278   1.631
   74c3c     N4  672   3.970   3.398   5.999
   74c3c     C1  673   3.987   3.268   6.067
   74c3c     C1  674   3.983   3.378   5.853
   74c3c     C2  675   4.032   3.165   5.963
   74c3c     C2  676   4.029   3.234   5.828
   74c3c     C1  677   3.835   3.447   6.028
   74c3c     C1  678   4.068   3.497   6.048
   74c3c     H1  679   3.896   3.233   6.115
   74c3c     H1  680   4.059   3.272   6.149
   74c3c     H1  681   3.889   3.395   5.800
   74c3c     H1  682   4.051   3.449   5.807
   74c3c     HC  683   3.964   3.079   5.963
   74c3c     HC  684   4.132   3.128   5.984
   74c3c     HC  685   3.960   3.184   5.760
   74c3c     HC  686   4.128   3.232   5.782
   74c3c     H1  687   3.818   3.462   6.134
   74c3c     H1  688   3.815   3.542   5.979
   74c3c     H1  689   3.759   3.377   5.993
   74c3c     H1  690   4.049   3.594   6.001
   74c3c     H1  691   4.053   3.514   6.155
   74c3c     C2  692   4.217   3.459   6.025
   74c3c     HC  693   4.239   3.445   5.920
   74c3c     HC  694   4.242   3.365   6.074
   74c3c     CT  695   4.312   3.566   6.078
   74c3c     HC  696   4.300   3.581   6.186
   74c3c     HC  697   4.296   3.662   6.029
   74c3c     HC  698   4.416   3.537   6.061
   75c3c     N4  699   1.952   3.300   4.396
   75c3c     C1  700   2.043   3.294   4.512
   75c3c     C1  701   1.813   3.277   4.442
   75c3c     C2  702   1.962   3.246   4.634
   75c3c     C2  703   1.817   3.236   4.590
   75c3c     C1  704   1.960   3.434   4.338
   75c3c     C1  705   1.990   3.202   4.293
   75c3c     H1  706   2.089   3.390   4.535
   75c3c     H1  707   2.128   3.228   4.496
   75c3c     H1  708   1.750   3.366   4.432
   75c3c     H1  709   1.761   3.202   4.383
   75c3c     HC  710   1.972   3.318   4.716
   75c3c     HC  711   1.998   3.150   4.669
   75c3c     HC  712   1.754   3.302   4.649
   75c3c     HC  713   1.781   3.134   4.603
   75c3c     H1  714   2.060   3.458   4.304
   75c3c     H1  715   1.893   3.446   4.253
   75c3c     H1  716   1.932   3.510   4.411
   75c3c     H1  717   1.926   3.212   4.206
   75c3c     H1  718   2.091   3.224   4.257
   75c3c     C2  719   1.987   3.053   4.338
   75c3c     HC  720   1.888   3.024   4.372
   75c3c     HC  721   2.054   3.036   4.423
   75c3c     CT  722   2.028   2.958   4.226
   75c3c     HC  723   2.129   2.978   4.192
   75c3c     HC  724   1.961   2.966   4.141
   75c3c     HC  725   2.025   2.854   4.261
   76c3c     N4  726   4.693   1.519   5.584
   76c3c     C1  727   4.552   1.552   5.615
   76c3c     C1  728   4.767   1.498   5.710
   76c3c     C2  729   4.540   1.572   5.766
   76c3c     C2  730   4.675   1.538   5.826
   76c3c     C1  731   4.694   1.393   5.508
   76c3c     C1  732   4.756   1.625   5.501
   76c3c     H1  733   4.483   1.473   5.585
   76c3c     H1  734   4.516   1.640   5.561
   76c3c     H1  735   4.796   1.394   5.724
   76c3c     H1  736   4.861   1.553   5.714
   76c3c     HC  737   4.463   1.507   5.807
   76c3c     HC  738   4.512   1.675   5.790
   76c3c     HC  739   4.666   1.456   5.896
   76c3c     HC  740   4.716   1.624   5.880
   76c3c     H1  741   4.639   1.399   5.415
   76c3c     H1  742   4.795   1.360   5.484
   76c3c     H1  743   4.649   1.312   5.566
   76c3c     H1  744   4.857   1.594   5.475
   76c3c     H1  745   4.702   1.632   5.407
   76c3c     C2  746   4.762   1.765   5.568
   76c3c     HC  747   4.817   1.762   5.662
   76c3c     HC  748   4.662   1.801   5.593
   76c3c     CT  749   4.828   1.869   5.478
   76c3c     HC  750   4.773   1.881   5.384
   76c3c     HC  751   4.931   1.841   5.454
   76c3c     HC  752   4.830   1.967   5.527
   77c3c     N4  753   3.988   6.201   4.963
   77c3c     C1  754   3.854   6.174   5.019
   77c3c     C1  755   4.055   6.305   5.043
   77c3c     C2  756   3.827   6.279   5.128
   77c3c     C2  757   3.954   6.361   5.143
   77c3c     C1  758   4.067   6.078   4.972
   77c3c     C1  759   3.979   6.241   4.821
   77c3c     H1  760   3.846   6.075   5.063
   77c3c     H1  761   3.775   6.177   4.944
   77c3c     H1  762   4.141   6.267   5.098
   77c3c     H1  763   4.097   6.385   4.983
   77c3c     HC  764   3.802   6.230   5.222
   77c3c     HC  765   3.743   6.343   5.101
   77c3c     HC  766   3.992   6.352   5.245
   77c3c     HC  767   3.933   6.466   5.124
   77c3c     H1  768   4.022   5.995   4.917
   77c3c     H1  769   4.168   6.091   4.935
   77c3c     H1  770   4.077   6.045   5.075
   77c3c     H1  771   4.079   6.255   4.781
   77c3c     H1  772   3.935   6.160   4.762
   77c3c     C2  773   3.898   6.371   4.794
   77c3c     HC  774   3.941   6.456   4.846
   77c3c     HC  775   3.795   6.362   4.830
   77c3c     CT  776   3.892   6.405   4.645
   77c3c     HC  777   3.844   6.326   4.587
   77c3c     HC  778   3.992   6.422   4.604
   77c3c     HC  779   3.835   6.497   4.629
   78c3c     N4  780   3.337   3.713   4.787
   78c3c     C1  781   3.287   3.850   4.767
   78c3c     C1  782   3.484   3.714   4.778
   78c3c     C2  783   3.404   3.939   4.724
   78c3c     C2  784   3.529   3.853   4.731
   78c3c     C1  785   3.299   3.669   4.922
   78c3c     C1  786   3.278   3.619   4.689
   78c3c     H1  787   3.241   3.892   4.856
   78c3c     H1  788   3.207   3.855   4.692
   78c3c     H1  789   3.533   3.692   4.873
   78c3c     H1  790   3.523   3.637   4.711
   78c3c     HC  791   3.413   4.024   4.791
   78c3c     HC  792   3.390   3.976   4.623
   78c3c     HC  793   3.600   3.896   4.801
   78c3c     HC  794   3.577   3.848   4.634
   78c3c     H1  795   3.191   3.668   4.935
   78c3c     H1  796   3.335   3.569   4.944
   78c3c     H1  797   3.340   3.736   4.998
   78c3c     H1  798   3.312   3.518   4.710
   78c3c     H1  799   3.170   3.615   4.701
   78c3c     C2  800   3.309   3.651   4.540
   78c3c     HC  801   3.417   3.652   4.521
   78c3c     HC  802   3.273   3.750   4.513
   78c3c     CT  803   3.246   3.551   4.445
   78c3c     HC  804   3.137   3.550   4.455
   78c3c     HC  805   3.282   3.449   4.464
   78c3c     HC  806   3.269   3.576   4.342
   79c3c     N4  807   4.632   2.300   4.028
   79c3c     C1  808   4.518   2.223   3.976
   79c3c     C1  809   4.582   2.411   4.111
   79c3c     C2  810   4.389   2.299   4.010
   79c3c     C2  811   4.430   2.418   4.095
   79c3c     C1  812   4.712   2.211   4.114
   79c3c     C1  813   4.718   2.349   3.919
   79c3c     H1  814   4.511   2.122   4.018
   79c3c     H1  815   4.524   2.205   3.869
   79c3c     H1  816   4.606   2.400   4.216
   79c3c     H1  817   4.627   2.507   4.084
   79c3c     HC  818   4.321   2.235   4.065
   79c3c     HC  819   4.339   2.333   3.919
   79c3c     HC  820   4.382   2.414   4.192
   79c3c     HC  821   4.400   2.511   4.047
   79c3c     H1  822   4.750   2.124   4.060
   79c3c     H1  823   4.797   2.262   4.159
   79c3c     H1  824   4.652   2.172   4.197
   79c3c     H1  825   4.805   2.400   3.961
   79c3c     H1  826   4.759   2.264   3.864
   79c3c     C2  827   4.649   2.444   3.818
   79c3c     HC  828   4.610   2.533   3.868
   79c3c     HC  829   4.563   2.397   3.771
   79c3c     CT  830   4.744   2.491   3.708
   79c3c     HC  831   4.782   2.406   3.650
   79c3c     HC  832   4.829   2.545   3.749
   79c3c     HC  833   4.692   2.558   3.639
   80c3c     N4  834   4.389   1.183   1.596
   80c3c     C1  835   4.404   1.330   1.601
   80c3c     C1  836   4.522   1.120   1.601
   80c3c     C2  837   4.553   1.363   1.589
   80c3c     C2  838   4.627   1.230   1.589
   80c3c     C1  839   4.314   1.140   1.715
   80c3c     C1  840   4.314   1.141   1.476
   80c3c     H1  841   4.366   1.374   1.693
   80c3c     H1  842   4.348   1.381   1.522
   80c3c     H1  843   4.540   1.064   1.692
   80c3c     H1  844   4.537   1.045   1.523
   80c3c     HC  845   4.585   1.424   1.673
   80c3c     HC  846   4.574   1.418   1.497
   80c3c     HC  847   4.697   1.225   1.673
   80c3c     HC  848   4.686   1.219   1.498
   80c3c     H1  849   4.214   1.185   1.718
   80c3c     H1  850   4.302   1.032   1.718
   80c3c     H1  851   4.366   1.169   1.806
   80c3c     H1  852   4.300   1.033   1.478
   80c3c     H1  853   4.214   1.183   1.478
   80c3c     C2  854   4.381   1.178   1.341
   80c3c     HC  855   4.480   1.134   1.332
   80c3c     HC  856   4.395   1.286   1.332
   80c3c     CT  857   4.298   1.132   1.221
   80c3c     HC  858   4.199   1.178   1.221
   80c3c     HC  859   4.285   1.024   1.221
   80c3c     HC  860   4.347   1.160   1.128
   81c3c     N4  861   3.866   1.839   4.315
   81c3c     C1  862   3.840   1.984   4.318
   81c3c     C1  863   3.992   1.815   4.241
   81c3c     C2  864   3.942   2.054   4.228
   81c3c     C2  865   4.038   1.947   4.179
   81c3c     C1  866   3.884   1.792   4.453
   81c3c     C1  867   3.754   1.766   4.254
   81c3c     H1  868   3.848   2.026   4.419
   81c3c     H1  869   3.738   2.010   4.289
   81c3c     H1  870   4.072   1.777   4.305
   81c3c     H1  871   3.983   1.737   4.165
   81c3c     HC  872   3.995   2.131   4.283
   81c3c     HC  873   3.892   2.102   4.143
   81c3c     HC  874   4.140   1.970   4.210
   81c3c     HC  875   4.036   1.941   4.070
   81c3c     H1  876   3.796   1.808   4.514
   81c3c     H1  877   3.907   1.685   4.457
   81c3c     H1  878   3.967   1.843   4.502
   81c3c     H1  879   3.773   1.659   4.258
   81c3c     H1  880   3.664   1.781   4.314
   81c3c     C2  881   3.722   1.805   4.107
   81c3c     HC  882   3.808   1.788   4.042
   81c3c     HC  883   3.698   1.911   4.098
   81c3c     CT  884   3.604   1.725   4.050
   81c3c     HC  885   3.513   1.743   4.108
   81c3c     HC  886   3.625   1.618   4.051
   81c3c     HC  887   3.584   1.755   3.947
   82c3c     N4  888   0.894   3.414   1.276
   82c3c     C1  889   0.941   3.320   1.379
   82c3c     C1  890   0.834   3.532   1.341
   82c3c     C2  891   0.893   3.370   1.515
   82c3c     C2  892   0.825   3.504   1.492
   82c3c     C1  893   1.010   3.459   1.198
   82c3c     C1  894   0.797   3.350   1.184
   82c3c     H1  895   1.050   3.312   1.382
   82c3c     H1  896   0.908   3.218   1.362
   82c3c     H1  897   0.893   3.623   1.327
   82c3c     H1  898   0.736   3.559   1.302
   82c3c     HC  899   0.977   3.382   1.583
   82c3c     HC  900   0.823   3.300   1.561
   82c3c     HC  901   0.876   3.583   1.548
   82c3c     HC  902   0.722   3.501   1.525
   82c3c     H1  903   1.061   3.377   1.149
   82c3c     H1  904   0.983   3.532   1.121
   82c3c     H1  905   1.083   3.508   1.262
   82c3c     H1  906   0.769   3.420   1.106
   82c3c     H1  907   0.846   3.267   1.133
   82c3c     C2  908   0.668   3.296   1.252
   82c3c     HC  909   0.613   3.376   1.302
   82c3c     HC  910   0.691   3.223   1.329
   82c3c     CT  911   0.573   3.231   1.152
   82c3c     HC  912   0.619   3.145   1.103
   82c3c     HC  913   0.541   3.301   1.075
   82c3c     HC  914   0.483   3.195   1.203
   83c3c     N4  915   0.741   1.809   2.999
   83c3c     C1  916   0.779   1.759   2.865
   83c3c     C1  917   0.595   1.794   3.016
   83c3c     C2  918   0.651   1.730   2.786
   83c3c     C2  919   0.535   1.752   2.882
   83c3c     C1  920   0.808   1.726   3.100
   83c3c     C1  921   0.783   1.949   3.018
   83c3c     H1  922   0.840   1.669   2.869
   83c3c     H1  923   0.842   1.830   2.810
   83c3c     H1  924   0.568   1.720   3.091
   83c3c     H1  925   0.547   1.885   3.051
   83c3c     HC  926   0.652   1.627   2.750
   83c3c     HC  927   0.642   1.795   2.700
   83c3c     HC  928   0.477   1.660   2.893
   83c3c     HC  929   0.468   1.828   2.842
   83c3c     H1  930   0.917   1.731   3.092
   83c3c     H1  931   0.782   1.757   3.201
   83c3c     H1  932   0.779   1.622   3.090
   83c3c     H1  933   0.760   1.981   3.119
   83c3c     H1  934   0.892   1.956   3.011
   83c3c     C2  935   0.721   2.051   2.918
   83c3c     HC  936   0.612   2.051   2.924
   83c3c     HC  937   0.746   2.025   2.815
   83c3c     CT  938   0.770   2.193   2.944
   83c3c     HC  939   0.878   2.201   2.933
   83c3c     HC  940   0.743   2.227   3.044
   83c3c     HC  941   0.724   2.262   2.873
   84c3c     N4  942   1.529   2.057   3.043
   84c3c     C1  943   1.458   2.049   2.913
   84c3c     C1  944   1.447   2.136   3.138
   84c3c     C2  945   1.337   2.142   2.920
   84c3c     C2  946   1.330   2.197   3.061
   84c3c     C1  947   1.542   1.921   3.096
   84c3c     C1  948   1.663   2.115   3.027
   84c3c     H1  949   1.425   1.949   2.889
   84c3c     H1  950   1.522   2.076   2.829
   84c3c     H1  951   1.409   2.076   3.221
   84c3c     H1  952   1.505   2.214   3.189
   84c3c     HC  953   1.246   2.088   2.895
   84c3c     HC  954   1.347   2.224   2.848
   84c3c     HC  955   1.236   2.170   3.109
   84c3c     HC  956   1.337   2.306   3.061
   84c3c     H1  957   1.600   1.856   3.030
   84c3c     H1  958   1.591   1.920   3.194
   84c3c     H1  959   1.445   1.874   3.110
   84c3c     H1  960   1.715   2.115   3.124
   84c3c     H1  961   1.723   2.052   2.962
   84c3c     C2  962   1.666   2.260   2.972
   84c3c     HC  963   1.612   2.328   3.037
   84c3c     HC  964   1.618   2.267   2.874
   84c3c     CT  965   1.809   2.313   2.958
   84c3c     HC  966   1.867   2.252   2.889
   84c3c     HC  967   1.860   2.315   3.054
   84c3c     HC  968   1.807   2.415   2.919
   85c3c     N4  969   3.114   4.558   6.361
   85c3c     C1  970   3.093   4.541   6.215
   85c3c     C1  971   2.996   4.507   6.433
   85c3c     C2  972   2.948   4.495   6.194
   85c3c     C2  973   2.888   4.473   6.331
   85c3c     C1  974   3.231   4.478   6.400
   85c3c     C1  975   3.140   4.699   6.394
   85c3c     H1  976   3.160   4.467   6.172
   85c3c     H1  977   3.113   4.632   6.159
   85c3c     H1  978   3.018   4.418   6.492
   85c3c     H1  979   2.959   4.577   6.508
   85c3c     HC  980   2.946   4.402   6.136
   85c3c     HC  981   2.891   4.569   6.139
   85c3c     HC  982   2.855   4.370   6.343
   85c3c     HC  983   2.800   4.537   6.345
   85c3c     H1  984   3.322   4.509   6.349
   85c3c     H1  985   3.250   4.485   6.507
   85c3c     H1  986   3.216   4.372   6.378
   85c3c     H1  987   3.161   4.708   6.501
   85c3c     H1  988   3.232   4.733   6.345
   85c3c     C2  989   3.026   4.798   6.359
   85c3c     HC  990   2.933   4.771   6.411
   85c3c     HC  991   3.002   4.795   6.253
   85c3c     CT  992   3.060   4.942   6.396
   85c3c     HC  993   3.149   4.977   6.343
   85c3c     HC  994   3.078   4.951   6.503
   85c3c     HC  995   2.977   5.008   6.371
   86c3c     N4  996   6.056   1.714   3.338
   86c3c     C1  997   5.990   1.799   3.440
   86c3c     C1  998   6.081   1.580   3.396
   86c3c     C2  999   5.990   1.723   3.573
   86c3c     C2 1000   6.047   1.585   3.545
   86c3c     C1 1001   5.965   1.698   3.224
   86c3c     C1 1002   6.182   1.775   3.290
   86c3c     H1 1003   5.887   1.823   3.413
   86c3c     H1 1004   6.038   1.896   3.452
   86c3c     H1 1005   6.021   1.502   3.349
   86c3c     H1 1006   6.183   1.545   3.381
   86c3c     HC 1007   5.889   1.715   3.612
   86c3c     HC 1008   6.050   1.775   3.648
   86c3c     HC 1009   5.974   1.508   3.570
   86c3c     HC 1010   6.136   1.568   3.606
   86c3c     H1 1011   5.940   1.794   3.178
   86c3c     H1 1012   6.007   1.634   3.147
   86c3c     H1 1013   5.871   1.653   3.255
   86c3c     H1 1014   6.225   1.713   3.212
   86c3c     H1 1015   6.159   1.871   3.243
   86c3c     C2 1016   6.290   1.798   3.399
   86c3c     HC 1017   6.318   1.705   3.447
   86c3c     HC 1018   6.252   1.863   3.479
   86c3c     CT 1019   6.417   1.863   3.343
   86c3c     HC 1020   6.395   1.960   3.299
   86c3c     HC 1021   6.462   1.799   3.267
   86c3c     HC 1022   6.490   1.877   3.422
   87c3c     N4 1023   2.380   2.991   5.362
   87c3c     C1 1024   2.436   3.013   5.227
   87c3c     C1 1025   2.395   3.115   5.441
   87c3c     C2 1026   2.505   3.149   5.225
   87c3c     C2 1027   2.480   3.213   5.360
   87c3c     C1 1028   2.237   2.961   5.349
   87c3c     C1 1029   2.446   2.877   5.429
   87c3c     H1 1030   2.359   3.012   5.149
   87c3c     H1 1031   2.505   2.935   5.196
   87c3c     H1 1032   2.299   3.162   5.464
   87c3c     H1 1033   2.439   3.098   5.539
   87c3c     HC 1034   2.466   3.211   5.145
   87c3c     HC 1035   2.613   3.138   5.208
   87c3c     HC 1036   2.427   3.308   5.348
   87c3c     HC 1037   2.574   3.234   5.411
   87c3c     H1 1038   2.219   2.872   5.289
   87c3c     H1 1039   2.189   2.946   5.445
   87c3c     H1 1040   2.184   3.043   5.300
   87c3c     H1 1041   2.398   2.859   5.525
   87c3c     H1 1042   2.428   2.786   5.371
   87c3c     C2 1043   2.598   2.892   5.451
   87c3c     HC 1044   2.621   2.980   5.511
   87c3c     HC 1045   2.651   2.907   5.356
   87c3c     CT 1046   2.660   2.771   5.520
   87c3c     HC 1047   2.645   2.680   5.462
   87c3c     HC 1048   2.615   2.755   5.619
   87c3c     HC 1049   2.767   2.785   5.534
   88c3c     N4 1050   3.527   2.549   5.471
   88c3c     C1 1051   3.608   2.603   5.581
   88c3c     C1 1052   3.463   2.661   5.398
   88c3c     C2 1053   3.579   2.753   5.593
   88c3c     C2 1054   3.488   2.790   5.477
   88c3c     C1 1055   3.616   2.480   5.377
   88c3c     C1 1056   3.426   2.453   5.520
   88c3c     H1 1057   3.715   2.589   5.566
   88c3c     H1 1058   3.588   2.553   5.676
   88c3c     H1 1059   3.501   2.673   5.297
   88c3c     H1 1060   3.356   2.646   5.383
   88c3c     HC 1061   3.672   2.810   5.587
   88c3c     HC 1062   3.532   2.777   5.688
   88c3c     HC 1063   3.534   2.865   5.414
   88c3c     HC 1064   3.394   2.831   5.515
   88c3c     H1 1065   3.669   2.397   5.425
   88c3c     H1 1066   3.563   2.439   5.292
   88c3c     H1 1067   3.692   2.547   5.338
   88c3c     H1 1068   3.372   2.410   5.436
   88c3c     H1 1069   3.477   2.368   5.567
   88c3c     C2 1070   3.323   2.511   5.620
   88c3c     HC 1071   3.267   2.593   5.576
   88c3c     HC 1072   3.372   2.552   5.709
   88c3c     CT 1073   3.223   2.406   5.667
   88c3c     HC 1074   3.273   2.323   5.717
   88c3c     HC 1075   3.166   2.365   5.583
   88c3c     HC 1076   3.152   2.449   5.737
   89c3c     N4 1077   5.254   2.281   3.137
   89c3c     C1 1078   5.232   2.141   3.177
   89c3c     C1 1079   5.188   2.305   3.007
   89c3c     C2 1080   5.166   2.067   3.061
   89c3c     C2 1081   5.139   2.170   2.953
   89c3c     C1 1082   5.191   2.369   3.237
   89c3c     C1 1083   5.398   2.313   3.130
   89c3c     H1 1084   5.167   2.132   3.265
   89c3c     H1 1085   5.324   2.090   3.207
   89c3c     H1 1086   5.103   2.373   3.014
   89c3c     H1 1087   5.253   2.353   2.934
   89c3c     HC 1088   5.073   2.020   3.093
   89c3c     HC 1089   5.231   1.989   3.022
   89c3c     HC 1090   5.032   2.175   2.931
   89c3c     HC 1091   5.190   2.144   2.860
   89c3c     H1 1092   5.233   2.355   3.336
   89c3c     H1 1093   5.201   2.474   3.211
   89c3c     H1 1094   5.084   2.349   3.245
   89c3c     H1 1095   5.411   2.418   3.106
   89c3c     H1 1096   5.442   2.301   3.229
   89c3c     C2 1097   5.479   2.229   3.028
   89c3c     HC 1098   5.441   2.241   2.927
   89c3c     HC 1099   5.472   2.122   3.050
   89c3c     CT 1100   5.627   2.267   3.027
   89c3c     HC 1101   5.673   2.251   3.125
   89c3c     HC 1102   5.641   2.371   2.999
   89c3c     HC 1103   5.681   2.206   2.954
   90c3c     N4 1104   0.726   3.396   0.573
   90c3c     C1 1105   0.610   3.313   0.536
   90c3c     C1 1106   0.687   3.539   0.568
   90c3c     C2 1107   0.499   3.405   0.487
   90c3c     C2 1108   0.547   3.548   0.507
   90c3c     C1 1109   0.765   3.364   0.711
   90c3c     C1 1110   0.842   3.370   0.485
   90c3c     H1 1111   0.573   3.253   0.619
   90c3c     H1 1112   0.634   3.239   0.459
   90c3c     H1 1113   0.686   3.586   0.666
   90c3c     H1 1114   0.757   3.601   0.511
   90c3c     HC 1115   0.407   3.387   0.544
   90c3c     HC 1116   0.476   3.387   0.382
   90c3c     HC 1117   0.480   3.601   0.574
   90c3c     HC 1118   0.549   3.601   0.412
   90c3c     H1 1119   0.792   3.259   0.722
   90c3c     H1 1120   0.848   3.425   0.745
   90c3c     H1 1121   0.682   3.382   0.779
   90c3c     H1 1122   0.927   3.429   0.518
   90c3c     H1 1123   0.872   3.266   0.495
   90c3c     C2 1124   0.818   3.400   0.334
   90c3c     HC 1125   0.791   3.504   0.318
   90c3c     HC 1126   0.735   3.341   0.295
   90c3c     CT 1127   0.941   3.369   0.249
   90c3c     HC 1128   0.969   3.264   0.256
   90c3c     HC 1129   1.026   3.431   0.280
   90c3c     HC 1130   0.920   3.392   0.144
   91c3c     N4 1131   3.776   5.237   3.354
   91c3c     C1 1132   3.861   5.125   3.310
   91c3c     C1 1133   3.852   5.362   3.344
   91c3c     C2 1134   4.003   5.178   3.291
   91c3c     C2 1135   3.998   5.328   3.313
   91c3c     C1 1136   3.661   5.245   3.261
   91c3c     C1 1137   3.724   5.215   3.491
   91c3c     H1 1138   3.828   5.080   3.217
   91c3c     H1 1139   3.861   5.041   3.380
   91c3c     H1 1140   3.815   5.429   3.266
   91c3c     H1 1141   3.846   5.423   3.435
   91c3c     HC 1142   4.039   5.155   3.191
   91c3c     HC 1143   4.073   5.132   3.362
   91c3c     HC 1144   4.030   5.380   3.223
   91c3c     HC 1145   4.064   5.357   3.394
   91c3c     H1 1146   3.602   5.154   3.261
   91c3c     H1 1147   3.595   5.328   3.286
   91c3c     H1 1148   3.695   5.261   3.159
   91c3c     H1 1149   3.656   5.296   3.517
   91c3c     H1 1150   3.663   5.125   3.492
   91c3c     C2 1151   3.833   5.204   3.601
   91c3c     HC 1152   3.895   5.293   3.605
   91c3c     HC 1153   3.902   5.121   3.580
   91c3c     CT 1154   3.773   5.182   3.740
   91c3c     HC 1155   3.715   5.090   3.743
   91c3c     HC 1156   3.708   5.264   3.768
   91c3c     HC 1157   3.853   5.174   3.814
   92c3c     N4 1158   4.127   2.681   6.354
   92c3c     C1 1159   4.085   2.697   6.213
   92c3c     C1 1160   4.013   2.714   6.442
   92c3c     C2 1161   3.947   2.762   6.211
   92c3c     C2 1162   3.901   2.773   6.356
   92c3c     C1 1163   4.161   2.539   6.376
   92c3c     C1 1164   4.245   2.764   6.386
   92c3c     H1 1165   4.080   2.602   6.160
   92c3c     H1 1166   4.157   2.756   6.155
   92c3c     H1 1167   3.974   2.628   6.496
   92c3c     H1 1168   4.039   2.783   6.522
   92c3c     HC 1169   3.877   2.701   6.154
   92c3c     HC 1170   3.951   2.861   6.165
   92c3c     HC 1171   3.809   2.717   6.370
   92c3c     HC 1172   3.882   2.877   6.382
   92c3c     H1 1173   4.243   2.506   6.313
   92c3c     H1 1174   4.190   2.520   6.479
   92c3c     H1 1175   4.076   2.474   6.354
   92c3c     H1 1176   4.275   2.745   6.489
   92c3c     H1 1177   4.329   2.732   6.325
   92c3c     C2 1178   4.224   2.916   6.368
   92c3c     HC 1179   4.144   2.953   6.432
   92c3c     HC 1180   4.196   2.941   6.266
   92c3c     CT 1181   4.350   2.996   6.402
   92c3c     HC 1182   4.434   2.968   6.338
   92c3c     HC 1183   4.380   2.980   6.505
   92c3c     HC 1184   4.333   3.103   6.389
   93c3c     N4 1185   2.306   2.561   2.758
   93c3c     C1 1186   2.198   2.514   2.670
   93c3c     C1 1187   2.268   2.537   2.899
   93c3c     C2 1188   2.078   2.476   2.757
   93c3c     C2 1189   2.122   2.491   2.902
   93c3c     C1 1190   2.427   2.482   2.729
   93c3c     C1 1191   2.336   2.704   2.735
   93c3c     H1 1192   2.227   2.427   2.611
   93c3c     H1 1193   2.169   2.588   2.595
   93c3c     H1 1194   2.330   2.462   2.947
   93c3c     H1 1195   2.281   2.625   2.962
   93c3c     HC 1196   2.048   2.373   2.737
   93c3c     HC 1197   1.993   2.541   2.737
   93c3c     HC 1198   2.114   2.396   2.954
   93c3c     HC 1199   2.059   2.563   2.953
   93c3c     H1 1200   2.460   2.493   2.626
   93c3c     H1 1201   2.511   2.510   2.793
   93c3c     H1 1202   2.410   2.376   2.745
   93c3c     H1 1203   2.420   2.734   2.797
   93c3c     H1 1204   2.370   2.718   2.633
   93c3c     C2 1205   2.218   2.801   2.761
   93c3c     HC 1206   2.183   2.794   2.864
   93c3c     HC 1207   2.132   2.777   2.699
   93c3c     CT 1208   2.255   2.947   2.735
   93c3c     HC 1209   2.286   2.962   2.632
   93c3c     HC 1210   2.337   2.979   2.800
   93c3c     HC 1211   2.170   3.013   2.755
   94c3c     N4 1212   1.014   5.749   2.371
   94c3c     C1 1213   0.926   5.724   2.487
   94c3c     C1 1214   0.931   5.768   2.251
   94c3c     C2 1215   0.783   5.707   2.435
   94c3c     C2 1216   0.786   5.734   2.286
   94c3c     C1 1217   1.088   5.874   2.396
   94c3c     C1 1218   1.111   5.639   2.353
   94c3c     H1 1219   0.927   5.805   2.560
   94c3c     H1 1220   0.956   5.638   2.545
   94c3c     H1 1221   0.935   5.870   2.212
   94c3c     H1 1222   0.965   5.708   2.167
   94c3c     HC 1223   0.715   5.776   2.485
   94c3c     HC 1224   0.746   5.606   2.454
   94c3c     HC 1225   0.720   5.818   2.261
   94c3c     HC 1226   0.751   5.647   2.231
   94c3c     H1 1227   1.150   5.867   2.486
   94c3c     H1 1228   1.155   5.899   2.314
   94c3c     H1 1229   1.021   5.958   2.411
   94c3c     H1 1230   1.180   5.664   2.272
   94c3c     H1 1231   1.175   5.632   2.441
   94c3c     C2 1232   1.049   5.500   2.326
   94c3c     HC 1233   0.986   5.501   2.236
   94c3c     HC 1234   0.983   5.469   2.407
   94c3c     CT 1235   1.155   5.391   2.308
   94c3c     HC 1236   1.217   5.382   2.397
   94c3c     HC 1237   1.220   5.413   2.224
   94c3c     HC 1238   1.108   5.295   2.289
   95c3c     N4 1239   3.836   0.734   4.728
   95c3c     C1 1240   3.910   0.862   4.717
   95c3c     C1 1241   3.922   0.624   4.679
   95c3c     C2 1242   4.040   0.836   4.640
   95c3c     C2 1243   4.048   0.686   4.616
   95c3c     C1 1244   3.807   0.710   4.870
   95c3c     C1 1245   3.709   0.740   4.654
   95c3c     H1 1246   3.935   0.904   4.814
   95c3c     H1 1247   3.852   0.940   4.669
   95c3c     H1 1248   3.953   0.557   4.759
   95c3c     H1 1249   3.872   0.559   4.608
   95c3c     HC 1250   4.126   0.869   4.699
   95c3c     HC 1251   4.041   0.889   4.546
   95c3c     HC 1252   4.137   0.644   4.662
   95c3c     HC 1253   4.053   0.665   4.509
   95c3c     H1 1254   3.746   0.790   4.914
   95c3c     H1 1255   3.755   0.616   4.887
   95c3c     H1 1256   3.899   0.706   4.929
   95c3c     H1 1257   3.654   0.647   4.670
   95c3c     H1 1258   3.646   0.817   4.697
   95c3c     C2 1259   3.722   0.764   4.501
   95c3c     HC 1260   3.782   0.687   4.454
   95c3c     HC 1261   3.774   0.859   4.481
   95c3c     CT 1262   3.587   0.769   4.431
   95c3c     HC 1263   3.524   0.848   4.470
   95c3c     HC 1264   3.533   0.674   4.442
   95c3c     HC 1265   3.600   0.786   4.324
   96c3c     N4 1266   1.519   3.201   0.638
   96c3c     C1 1267   1.498   3.136   0.769
   96c3c     C1 1268   1.408   3.165   0.548
   96c3c     C2 1269   1.380   3.039   0.756
   96c3c     C2 1270   1.324   3.057   0.616
   96c3c     C1 1271   1.517   3.347   0.659
   96c3c     C1 1272   1.650   3.164   0.580
   96c3c     H1 1273   1.477   3.207   0.849
   96c3c     H1 1274   1.586   3.083   0.805
   96c3c     H1 1275   1.345   3.251   0.524
   96c3c     H1 1276   1.443   3.131   0.451
   96c3c     HC 1277   1.304   3.061   0.831
   96c3c     HC 1278   1.412   2.936   0.770
   96c3c     HC 1279   1.219   3.088   0.621
   96c3c     HC 1280   1.328   2.963   0.561
   96c3c     H1 1281   1.596   3.380   0.727
   96c3c     H1 1282   1.531   3.402   0.566
   96c3c     H1 1283   1.423   3.380   0.702
   96c3c     H1 1284   1.666   3.219   0.488
   96c3c     H1 1285   1.730   3.197   0.646
   96c3c     C2 1286   1.668   3.012   0.552
   96c3c     HC 1287   1.592   2.974   0.484
   96c3c     HC 1288   1.658   2.953   0.644
   96c3c     CT 1289   1.805   2.981   0.492
   96c3c     HC 1290   1.885   3.011   0.559
   96c3c     HC 1291   1.820   3.032   0.397
   96c3c     HC 1292   1.815   2.874   0.474
   97c3c     N4 1293   2.019   3.964   5.000
   97c3c     C1 1294   2.007   4.102   5.050
   97c3c     C1 1295   2.006   3.871   5.113
   97c3c     C2 1296   2.007   4.099   5.202
   97c3c     C2 1297   2.006   3.952   5.243
   97c3c     C1 1298   1.907   3.939   4.907
   97c3c     C1 1299   2.146   3.943   4.927
   97c3c     H1 1300   1.916   4.152   5.016
   97c3c     H1 1301   2.087   4.168   5.014
   97c3c     H1 1302   1.915   3.812   5.110
   97c3c     H1 1303   2.085   3.796   5.116
   97c3c     HC 1304   1.918   4.149   5.241
   97c3c     HC 1305   2.094   4.149   5.243
   97c3c     HC 1306   1.917   3.930   5.302
   97c3c     HC 1307   2.093   3.929   5.304
   97c3c     H1 1308   1.908   4.006   4.822
   97c3c     H1 1309   1.908   3.837   4.869
   97c3c     H1 1310   1.811   3.953   4.957
   97c3c     H1 1311   2.149   3.842   4.887
   97c3c     H1 1312   2.149   4.009   4.840
   97c3c     C2 1313   2.274   3.966   5.011
   97c3c     HC 1314   2.277   3.900   5.098
   97c3c     HC 1315   2.278   4.067   5.052
   97c3c     CT 1316   2.402   3.943   4.930
   97c3c     HC 1317   2.408   4.011   4.845
   97c3c     HC 1318   2.407   3.841   4.893
   97c3c     HC 1319   2.490   3.960   4.992
   98c3c     N4 1320   0.603   3.053   3.812
   98c3c     C1 1321   0.584   3.174   3.728
   98c3c     C1 1322   0.747   3.033   3.835
   98c3c     C2 1323   0.721   3.221   3.681
   98c3c     C2 1324   0.824   3.132   3.748
   98c3c     C1 1325   0.537   3.076   3.941
   98c3c     C1 1326   0.541   2.935   3.748
   98c3c     H1 1327   0.536   3.255   3.783
   98c3c     H1 1328   0.518   3.157   3.643
   98c3c     H1 1329   0.775   3.049   3.939
   98c3c     H1 1330   0.780   2.931   3.814
   98c3c     HC 1331   0.737   3.325   3.709
   98c3c     HC 1332   0.730   3.214   3.573
   98c3c     HC 1333   0.892   3.192   3.810
   98c3c     HC 1334   0.885   3.080   3.674
   98c3c     H1 1335   0.431   3.095   3.931
   98c3c     H1 1336   0.549   2.992   4.010
   98c3c     H1 1337   0.580   3.163   3.992
   98c3c     H1 1338   0.550   2.849   3.815
   98c3c     H1 1339   0.434   2.951   3.737
   98c3c     C2 1340   0.599   2.896   3.609
   98c3c     HC 1341   0.706   2.877   3.615
   98c3c     HC 1342   0.588   2.978   3.538
   98c3c     CT 1343   0.531   2.773   3.550
   98c3c     HC 1344   0.425   2.789   3.536
   98c3c     HC 1345   0.544   2.686   3.614
   98c3c     HC 1346   0.574   2.749   3.453
   99c3c     N4 1347   5.559   2.532   6.074
   99c3c     C1 1348   5.587   2.671   6.116
   99c3c     C1 1349   5.499   2.458   6.187
   99c3c     C2 1350   5.561   2.682   6.266
   99c3c     C2 1351   5.506   2.548   6.311
   99c3c     C1 1352   5.460   2.536   5.965
   99c3c     C1 1353   5.681   2.465   6.026
   99c3c     H1 1354   5.524   2.744   6.065
   99c3c     H1 1355   5.688   2.703   6.093
   99c3c     H1 1356   5.394   2.431   6.170
   99c3c     H1 1357   5.547   2.363   6.208
   99c3c     HC 1358   5.490   2.761   6.287
   99c3c     HC 1359   5.653   2.704   6.320
   99c3c     HC 1360   5.406   2.560   6.355
   99c3c     HC 1361   5.570   2.504   6.388
   99c3c     H1 1362   5.496   2.592   5.879
   99c3c     H1 1363   5.432   2.436   5.932
   99c3c     H1 1364   5.369   2.585   5.998
   99c3c     H1 1365   5.656   2.364   5.993
   99c3c     H1 1366   5.719   2.518   5.939
   99c3c     C2 1367   5.795   2.453   6.131
   99c3c     HC 1368   5.763   2.397   6.219
   99c3c     HC 1369   5.827   2.550   6.168
   99c3c     CT 1370   5.919   2.382   6.074
   99c3c     HC 1371   5.961   2.437   5.989
   99c3c     HC 1372   5.896   2.281   6.042
   99c3c     HC 1373   5.996   2.375   6.150
  100c3c     N4 1374   2.961   2.555   1.801
  100c3c     C1 1375   2.823   2.593   1.763
  100c3c     C1 1376   2.956   2.432   1.883
  100c3c     C2 1377   2.726   2.503   1.838
  100c3c     C2 1378   2.810   2.401   1.914
  100c3c     C1 1379   3.037   2.527   1.678
  100c3c     C1 1380   3.029   2.665   1.873
  100c3c     H1 1381   2.805   2.583   1.656
  100c3c     H1 1382   2.801   2.698   1.783
  100c3c     H1 1383   3.000   2.346   1.832
  100c3c     H1 1384   3.014   2.440   1.975
  100c3c     HC 1385   2.659   2.452   1.769
  100c3c     HC 1386   2.665   2.560   1.908
  100c3c     HC 1387   2.785   2.300   1.882
  100c3c     HC 1388   2.791   2.408   2.021
  100c3c     H1 1389   3.042   2.613   1.612
  100c3c     H1 1390   3.139   2.496   1.699
  100c3c     H1 1391   2.991   2.446   1.621
  100c3c     H1 1392   3.132   2.637   1.895
  100c3c     H1 1393   3.036   2.752   1.808
  100c3c     C2 1394   2.961   2.708   2.006
  100c3c     HC 1395   2.954   2.624   2.076
  100c3c     HC 1396   2.858   2.741   1.990
  100c3c     CT 1397   3.036   2.821   2.076
  100c3c     HC 1398   3.040   2.910   2.012
  100c3c     HC 1399   3.138   2.792   2.100
  100c3c     HC 1400   2.986   2.849   2.168
  101fsi    FSI 1401   4.015   3.225   3.671
  101fsi    SBT 1402   3.924   3.100   3.642
  101fsi    NBT 1403   4.027   2.980   3.651
  101fsi    OBT 1404   3.827   3.102   3.748
  101fsi    OBT 1405   3.880   3.122   3.508
  101fsi    SBT 1406   4.075   2.903   3.779
  101fsi    OBT 1407   4.065   2.976   3.903
  101fsi    OBT 1408   4.197   2.830   3.757
  101fsi    FSI 1409   3.967   2.789   3.794
  102fsi    FSI 1410   1.654   0.305   1.022
  102fsi    SBT 1411   1.664   0.234   0.881
  102fsi    NBT 1412   1.703   0.355   0.787
  102fsi    OBT 1413   1.767   0.136   0.900
  102fsi    OBT 1414   1.530   0.189   0.859
  102fsi    SBT 1415   1.846   0.414   0.758
  102fsi    OBT 1416   1.944   0.390   0.860
  102fsi    OBT 1417   1.838   0.548   0.707
  102fsi    FSI 1418   1.896   0.330   0.634
  103fsi    FSI 1419   4.113   5.342   2.623
  103fsi    SBT 1420   3.962   5.382   2.646
  103fsi    NBT 1421   3.972   5.535   2.682
  103fsi    OBT 1422   3.898   5.354   2.520
  103fsi    OBT 1423   3.923   5.302   2.759
  103fsi    SBT 1424   3.982   5.658   2.586
  103fsi    OBT 1425   4.033   5.630   2.455
  103fsi    OBT 1426   4.034   5.774   2.652
  103fsi    FSI 1427   3.831   5.695   2.561
  104fsi    FSI 1428   3.446   0.792   5.532
  104fsi    SBT 1429   3.391   0.930   5.584
  104fsi    NBT 1430   3.443   0.935   5.732
  104fsi    OBT 1431   3.451   1.028   5.497
  104fsi    OBT 1432   3.249   0.914   5.576
  104fsi    SBT 1433   3.585   0.977   5.784
  104fsi    OBT 1434   3.692   0.965   5.688
  104fsi    OBT 1435   3.611   0.928   5.917
  104fsi    FSI 1436   3.570   1.132   5.806
  105fsi    FSI 1437   2.056   2.140   2.554
  105fsi    SBT 1438   2.187   2.134   2.467
  105fsi    NBT 1439   2.299   2.134   2.577
  105fsi    OBT 1440   2.173   2.010   2.394
  105fsi    OBT 1441   2.182   2.256   2.392
  105fsi    SBT 1442   2.363   2.013   2.653
  105fsi    OBT 1443   2.282   1.893   2.658
  105fsi    OBT 1444   2.424   2.054   2.777
  105fsi    FSI 1445   2.485   1.974   2.563
  106fsi    FSI 1446   1.517   4.426   1.821
  106fsi    SBT 1447   1.520   4.471   1.670
  106fsi    NBT 1448   1.373   4.443   1.622
  106fsi    OBT 1449   1.556   4.610   1.674
  106fsi    OBT 1450   1.614   4.380   1.609
  106fsi    SBT 1451   1.246   4.534   1.636
  106fsi    OBT 1452   1.248   4.627   1.745
  106fsi    OBT 1453   1.124   4.459   1.617
  106fsi    FSI 1454   1.252   4.625   1.507
  107fsi    FSI 1455   1.110   4.771   5.777
  107fsi    SBT 1456   1.190   4.733   5.907
  107fsi    NBT 1457   1.091   4.638   5.983
  107fsi    OBT 1458   1.310   4.670   5.858
  107fsi    OBT 1459   1.206   4.860   5.974
  107fsi    SBT 1460   1.068   4.484   5.962
  107fsi    OBT 1461   1.110   4.433   5.834
  107fsi    OBT 1462   0.940   4.440   6.011
  107fsi    FSI 1463   1.169   4.419   6.063
  108fsi    FSI 1464   1.115   4.631   4.915
  108fsi    SBT 1465   1.271   4.616   4.928
  108fsi    NBT 1466   1.289   4.463   4.961
  108fsi    OBT 1467   1.322   4.656   4.800
  108fsi    OBT 1468   1.304   4.700   5.040
  108fsi    SBT 1469   1.295   4.342   4.862
  108fsi    OBT 1470   1.237   4.365   4.732
  108fsi    OBT 1471   1.266   4.216   4.925
  108fsi    FSI 1472   1.449   4.331   4.832
  109fsi    FSI 1473   2.773   5.251   2.381
  109fsi    SBT 1474   2.689   5.379   2.417
  109fsi    NBT 1475   2.795   5.495   2.405
  109fsi    OBT 1476   2.584   5.382   2.318
  109fsi    OBT 1477   2.650   5.356   2.554
  109fsi    SBT 1478   2.840   5.573   2.276
  109fsi    OBT 1479   2.825   5.503   2.152
  109fsi    OBT 1480   2.966   5.641   2.297
  109fsi    FSI 1481   2.736   5.691   2.267
  110fsi    FSI 1482   3.161   4.906   0.416
  110fsi    SBT 1483   3.258   5.030   0.409
  110fsi    NBT 1484   3.165   5.144   0.353
  110fsi    OBT 1485   3.305   5.047   0.544
  110fsi    OBT 1486   3.355   4.989   0.310
  110fsi    SBT 1487   3.059   5.232   0.431
  110fsi    OBT 1488   3.010   5.174   0.552
  110fsi    OBT 1489   2.962   5.288   0.340
  110fsi    FSI 1490   3.142   5.357   0.477
  111fsi    FSI 1491   4.331   1.356   4.301
  111fsi    SBT 1492   4.340   1.511   4.328
  111fsi    NBT 1493   4.493   1.542   4.304
  111fsi    OBT 1494   4.252   1.570   4.230
  111fsi    OBT 1495   4.301   1.525   4.465
  111fsi    SBT 1496   4.568   1.570   4.169
  111fsi    OBT 1497   4.501   1.524   4.051
  111fsi    OBT 1498   4.709   1.547   4.178
  111fsi    FSI 1499   4.559   1.727   4.159
  112fsi    FSI 1500   5.543   4.945   3.290
  112fsi    SBT 1501   5.531   4.982   3.442
  112fsi    NBT 1502   5.551   5.138   3.444
  112fsi    OBT 1503   5.399   4.938   3.480
  112fsi    OBT 1504   5.642   4.913   3.502
  112fsi    SBT 1505   5.444   5.248   3.409
  112fsi    OBT 1506   5.331   5.200   3.336
  112fsi    OBT 1507   5.503   5.373   3.368
  112fsi    FSI 1508   5.384   5.283   3.551
  113fsi    FSI 1509   1.899   5.932   2.247
  113fsi    SBT 1510   1.785   5.826   2.274
  113fsi    NBT 1511   1.699   5.898   2.384
  113fsi    OBT 1512   1.719   5.814   2.146
  113fsi    OBT 1513   1.856   5.712   2.323
  113fsi    SBT 1514   1.582   6.001   2.366
  113fsi    OBT 1515   1.583   6.073   2.242
  113fsi    OBT 1516   1.557   6.078   2.485
  113fsi    FSI 1517   1.454   5.909   2.356
  114fsi    FSI 1518   5.954   2.773   1.814
  114fsi    SBT 1519   6.096   2.786   1.745
  114fsi    NBT 1520   6.173   2.885   1.840
  114fsi    OBT 1521   6.149   2.652   1.744
  114fsi    OBT 1522   6.067   2.846   1.618
  114fsi    SBT 1523   6.251   2.852   1.973
  114fsi    OBT 1524   6.213   2.731   2.040
  114fsi    OBT 1525   6.274   2.969   2.054
  114fsi    FSI 1526   6.396   2.820   1.919
  115fsi    FSI 1527   5.669   6.181   4.897
  115fsi    SBT 1528   5.541   6.252   4.837
  115fsi    NBT 1529   5.426   6.195   4.926
  115fsi    OBT 1530   5.569   6.392   4.853
  115fsi    OBT 1531   5.537   6.201   4.703
  115fsi    SBT 1532   5.377   6.244   5.067
  115fsi    OBT 1533   5.476   6.318   5.142
  115fsi    OBT 1534   5.306   6.141   5.138
  115fsi    FSI 1535   5.266   6.350   5.032
  116fsi    FSI 1536   3.807   3.230   1.592
  116fsi    SBT 1537   3.797   3.174   1.445
  116fsi    NBT 1538   3.824   3.020   1.466
  116fsi    OBT 1539   3.662   3.206   1.405
  116fsi    OBT 1540   3.904   3.240   1.377
  116fsi    SBT 1541   3.722   2.907   1.505
  116fsi    OBT 1542   3.603   2.953   1.572
  116fsi    OBT 1543   3.787   2.791   1.561
  116fsi    FSI 1544   3.671   2.856   1.365
  117fsi    FSI 1545   3.324   4.940   0.856
  117fsi    SBT 1546   3.227   4.997   0.966
  117fsi    NBT 1547   3.298   5.131   1.007
  117fsi    OBT 1548   3.101   5.014   0.900
  117fsi    OBT 1549   3.234   4.899   1.072
  117fsi    SBT 1550   3.291   5.269   0.933
  117fsi    OBT 1551   3.256   5.265   0.794
  117fsi    OBT 1552   3.402   5.354   0.970
  117fsi    FSI 1553   3.168   5.340   1.002
  118fsi    FSI 1554   1.575   2.861   3.492
  118fsi    SBT 1555   1.621   2.712   3.470
  118fsi    NBT 1556   1.483   2.636   3.463
  118fsi    OBT 1557   1.693   2.715   3.345
  118fsi    OBT 1558   1.693   2.682   3.589
  118fsi    SBT 1559   1.389   2.615   3.339
  118fsi    OBT 1560   1.400   2.714   3.235
  118fsi    OBT 1561   1.255   2.577   3.378
  118fsi    FSI 1562   1.445   2.483   3.273
  119fsi    FSI 1563   4.950   0.528   5.029
  119fsi    SBT 1564   4.800   0.559   5.061
  119fsi    NBT 1565   4.723   0.447   4.980
  119fsi    OBT 1566   4.793   0.548   5.204
  119fsi    OBT 1567   4.780   0.690   5.004
  119fsi    SBT 1568   4.689   0.300   5.024
  119fsi    OBT 1569   4.769   0.247   5.130
  119fsi    OBT 1570   4.666   0.215   4.910
  119fsi    FSI 1571   4.545   0.315   5.087
  120fsi    FSI 1572   3.689   6.303   4.099
  120fsi    SBT 1573   3.815   6.362   4.174
  120fsi    NBT 1574   3.932   6.326   4.076
  120fsi    OBT 1575   3.786   6.502   4.186
  120fsi    OBT 1576   3.819   6.286   4.296
  120fsi    SBT 1577   3.979   6.401   3.946
  120fsi    OBT 1578   3.881   6.488   3.888
  120fsi    OBT 1579   4.052   6.315   3.857
  120fsi    FSI 1580   4.090   6.500   4.000
  121fsi    FSI 1581   3.996   5.591   0.586
  121fsi    SBT 1582   4.152   5.571   0.584
  121fsi    NBT 1583   4.207   5.718   0.595
  121fsi    OBT 1584   4.179   5.489   0.699
  121fsi    OBT 1585   4.179   5.513   0.455
  121fsi    SBT 1586   4.229   5.805   0.724
  121fsi    OBT 1587   4.153   5.766   0.839
  121fsi    OBT 1588   4.236   5.946   0.695
  121fsi    FSI 1589   4.378   5.770   0.764
  122fsi    FSI 1590   5.660   5.393   6.011
  122fsi    SBT 1591   5.597   5.253   5.975
  122fsi    NBT 1592   5.483   5.238   6.082
  122fsi    OBT 1593   5.549   5.269   5.840
  122fsi    OBT 1594   5.705   5.161   5.996
  122fsi    SBT 1595   5.335   5.291   6.078
  122fsi    OBT 1596   5.309   5.398   5.983
  122fsi    OBT 1597   5.277   5.303   6.208
  122fsi    FSI 1598   5.257   5.169   6.015
  123fsi    FSI 1599   4.778   0.599   1.633
  123fsi    SBT 1600   4.798   0.730   1.546
  123fsi    NBT 1601   4.791   0.675   1.400
  123fsi    OBT 1602   4.686   0.813   1.585
  123fsi    OBT 1603   4.928   0.775   1.584
  123fsi    SBT 1604   4.664   0.644   1.311
  123fsi    OBT 1605   4.542   0.630   1.387
  123fsi    OBT 1606   4.689   0.547   1.209
  123fsi    FSI 1607   4.645   0.779   1.232
  124fsi    FSI 1608   4.511   0.829   5.907
  124fsi    SBT 1609   4.564   0.927   5.795
  124fsi    NBT 1610   4.433   0.961   5.715
  124fsi    OBT 1611   4.618   1.038   5.869
  124fsi    OBT 1612   4.658   0.846   5.723
  124fsi    SBT 1613   4.323   1.067   5.749
  124fsi    OBT 1614   4.324   1.112   5.886
  124fsi    OBT 1615   4.195   1.039   5.690
  124fsi    FSI 1616   4.372   1.193   5.668
  125fsi    FSI 1617   3.391   0.423   0.986
  125fsi    SBT 1618   3.412   0.343   1.121
  125fsi    NBT 1619   3.536   0.252   1.089
  125fsi    OBT 1620   3.435   0.446   1.219
  125fsi    OBT 1621   3.291   0.266   1.133
  125fsi    SBT 1622   3.689   0.290   1.095
  125fsi    OBT 1623   3.717   0.431   1.092
  125fsi    OBT 1624   3.769   0.203   1.014
  125fsi    FSI 1625   3.728   0.247   1.242
  126fsi    FSI 1626   5.547   3.567   1.332
  126fsi    SBT 1627   5.635   3.697   1.335
  126fsi    NBT 1628   5.531   3.812   1.358
  126fsi    OBT 1629   5.727   3.677   1.445
  126fsi    OBT 1630   5.694   3.702   1.204
  126fsi    SBT 1631   5.464   3.859   1.493
  126fsi    OBT 1632   5.471   3.764   1.600
  126fsi    OBT 1633   5.340   3.928   1.472
  126fsi    FSI 1634   5.561   3.975   1.539
  127fsi    FSI 1635   5.846   2.183   1.806
  127fsi    SBT 1636   5.927   2.302   1.741
  127fsi    NBT 1637   6.063   2.233   1.702
  127fsi    OBT 1638   5.846   2.343   1.629
  127fsi    OBT 1639   5.941   2.394   1.850
  127fsi    SBT 1640   6.097   2.150   1.573
  127fsi    OBT 1641   5.982   2.096   1.503
  127fsi    OBT 1642   6.210   2.064   1.591
  127fsi    FSI 1643   6.151   2.261   1.474
  128fsi    FSI 1644   3.673   2.815   3.301
  128fsi    SBT 1645   3.680   2.929   3.192
  128fsi    NBT 1646   3.539   2.996   3.203
  128fsi    OBT 1647   3.791   3.010   3.233
  128fsi    OBT 1648   3.696   2.854   3.070
  128fsi    SBT 1649   3.486   3.099   3.309
  128fsi    OBT 1650   3.559   3.099   3.433
  128fsi    OBT 1651   3.343   3.098   3.317
  128fsi    FSI 1652   3.520   3.238   3.244
  129fsi    FSI 1653   2.409   0.491   3.431
  129fsi    SBT 1654   2.505   0.366   3.436
  129fsi    NBT 1655   2.473   0.295   3.300
  129fsi    OBT 1656   2.636   0.424   3.445
  129fsi    OBT 1657   2.457   0.293   3.550
  129fsi    SBT 1658   2.533   0.323   3.158
  129fsi    OBT 1659   2.591   0.454   3.141
  129fsi    OBT 1660   2.447   0.277   3.053
  129fsi    FSI 1661   2.656   0.226   3.151
  130fsi    FSI 1662   1.282   1.876   0.750
  130fsi    SBT 1663   1.139   1.814   0.722
  130fsi    NBT 1664   1.044   1.919   0.791
  130fsi    OBT 1665   1.131   1.809   0.579
  130fsi    OBT 1666   1.144   1.690   0.794
  130fsi    SBT 1667   0.987   2.053   0.732
  130fsi    OBT 1668   1.067   2.111   0.627
  130fsi    OBT 1669   0.943   2.142   0.836
  130fsi    FSI 1670   0.854   2.009   0.661
  131fsi    FSI 1671   1.472   6.220   0.707
  131fsi    SBT 1672   1.522   6.071   0.718
  131fsi    NBT 1673   1.666   6.086   0.779
  131fsi    OBT 1674   1.427   6.009   0.806
  131fsi    OBT 1675   1.524   6.026   0.582
  131fsi    SBT 1676   1.709   6.108   0.929
  131fsi    OBT 1677   1.604   6.153   1.016
  131fsi    OBT 1678   1.837   6.171   0.943
  131fsi    FSI 1679   1.737   5.961   0.977
  132fsi    FSI 1680   6.023   5.077   3.104
  132fsi    SBT 1681   5.991   5.159   2.973
  132fsi    NBT 1682   5.880   5.072   2.904
  132fsi    OBT 1683   5.948   5.288   3.021
  132fsi    OBT 1684   6.115   5.154   2.900
  132fsi    SBT 1685   5.726   5.067   2.937
  132fsi    OBT 1686   5.691   5.113   3.068
  132fsi    OBT 1687   5.668   4.943   2.892
  132fsi    FSI 1688   5.665   5.174   2.839
  133fsi    FSI 1689   2.752   3.610   4.770
  133fsi    SBT 1690   2.780   3.474   4.845
  133fsi    NBT 1691   2.745   3.367   4.736
  133fsi    OBT 1692   2.920   3.482   4.881
  133fsi    OBT 1693   2.685   3.476   4.953
  133fsi    SBT 1694   2.832   3.316   4.616
  133fsi    OBT 1695   2.944   3.402   4.584
  133fsi    OBT 1696   2.753   3.265   4.509
  133fsi    FSI 1697   2.900   3.187   4.676
  134fsi    FSI 1698   4.039   5.546   5.090
  134fsi    SBT 1699   4.146   5.660   5.112
  134fsi    NBT 1700   4.281   5.581   5.096
  134fsi    OBT 1701   4.117   5.754   5.006
  134fsi    OBT 1702   4.120   5.703   5.246
  134fsi    SBT 1703   4.360   5.546   4.966
  134fsi    OBT 1704   4.282   5.553   4.845
  134fsi    OBT 1705   4.447   5.432   4.981
  134fsi    FSI 1706   4.461   5.666   4.952
  135fsi    FSI 1707   4.584   5.878   4.087
  135fsi    SBT 1708   4.724   5.950   4.081
  135fsi    NBT 1709   4.821   5.829   4.057
  135fsi    OBT 1710   4.710   6.040   3.968
  135fsi    OBT 1711   4.734   6.009   4.211
  135fsi    SBT 1712   4.869   5.765   3.922
  135fsi    OBT 1713   4.779   5.786   3.811
  135fsi    OBT 1714   4.920   5.632   3.941
  135fsi    FSI 1715   4.995   5.850   3.884
  136fsi    FSI 1716   3.786   1.272   2.954
  136fsi    SBT 1717   3.894   1.193   3.037
  136fsi    NBT 1718   3.878   1.047   2.982
  136fsi    OBT 1719   4.016   1.262   3.004
  136fsi    OBT 1720   3.847   1.213   3.171
  136fsi    SBT 1721   3.936   0.987   2.848
  136fsi    OBT 1722   3.987   1.087   2.758
  136fsi    OBT 1723   3.853   0.883   2.794
  136fsi    FSI 1724   4.065   0.911   2.897
  137fsi    FSI 1725   1.942   4.133   2.049
  137fsi    SBT 1726   2.073   4.212   2.082
  137fsi    NBT 1727   2.017   4.342   2.151
  137fsi    OBT 1728   2.146   4.123   2.168
  137fsi    OBT 1729   2.128   4.237   1.951
  137fsi    SBT 1730   1.975   4.363   2.301
  137fsi    OBT 1731   1.944   4.242   2.372
  137fsi    OBT 1732   1.882   4.472   2.317
  137fsi    FSI 1733   2.107   4.416   2.369
  138fsi    FSI 1734   6.009   5.677   5.399
  138fsi    SBT 1735   5.899   5.748   5.312
  138fsi    NBT 1736   5.789   5.636   5.297
  138fsi    OBT 1737   5.859   5.862   5.390
  138fsi    OBT 1738   5.967   5.775   5.189
  138fsi    SBT 1739   5.675   5.596   5.398
  138fsi    OBT 1740   5.697   5.634   5.535
  138fsi    OBT 1741   5.624   5.464   5.373
  138fsi    FSI 1742   5.555   5.687   5.352
  139fsi    FSI 1743   1.414   6.110   5.188
  139fsi    SBT 1744   1.296   6.048   5.105
  139fsi    NBT 1745   1.179   6.045   5.210
  139fsi    OBT 1746   1.279   6.140   4.995
  139fsi    OBT 1747   1.345   5.916   5.073
  139fsi    SBT 1748   1.082   6.161   5.252
  139fsi    OBT 1749   1.131   6.293   5.223
  139fsi    OBT 1750   1.026   6.140   5.383
  139fsi    FSI 1751   0.959   6.142   5.155
  140fsi    FSI 1752   0.806   5.904   4.320
  140fsi    SBT 1753   0.778   5.992   4.447
  140fsi    NBT 1754   0.654   5.920   4.512
  140fsi    OBT 1755   0.900   5.985   4.523
  140fsi    OBT 1756   0.744   6.120   4.390
  140fsi    SBT 1757   0.653   5.795   4.608
  140fsi    OBT 1758   0.771   5.714   4.602
  140fsi    OBT 1759   0.527   5.727   4.607
  140fsi    FSI 1760   0.657   5.860   4.751
  141fsi    FSI 1761   4.132   1.079   0.518
  141fsi    SBT 1762   4.179   1.125   0.375
  141fsi    NBT 1763   4.205   1.278   0.395
  141fsi    OBT 1764   4.297   1.046   0.349
  141fsi    OBT 1765   4.064   1.100   0.293
  141fsi    SBT 1766   4.333   1.349   0.452
  141fsi    OBT 1767   4.414   1.267   0.537
  141fsi    OBT 1768   4.302   1.482   0.499
  141fsi    FSI 1769   4.421   1.374   0.324
  142fsi    FSI 1770   4.516   0.717   5.262
  142fsi    SBT 1771   4.546   0.661   5.406
  142fsi    NBT 1772   4.420   0.706   5.487
  142fsi    OBT 1773   4.554   0.518   5.388
  142fsi    OBT 1774   4.666   0.730   5.443
  142fsi    SBT 1775   4.281   0.635   5.497
  142fsi    OBT 1776   4.248   0.550   5.386
  142fsi    OBT 1777   4.177   0.722   5.544
  142fsi    FSI 1778   4.301   0.535   5.617
  143fsi    FSI 1779   1.002   1.117   2.541
  143fsi    SBT 1780   0.873   1.072   2.620
  143fsi    NBT 1781   0.755   1.129   2.535
  143fsi    OBT 1782   0.882   0.929   2.628
  143fsi    OBT 1783   0.885   1.144   2.745
  143fsi    SBT 1784   0.694   1.069   2.402
  143fsi    OBT 1785   0.779   0.977   2.333
  143fsi    OBT 1786   0.629   1.171   2.324
  143fsi    FSI 1787   0.575   0.981   2.455
  144fsi    FSI 1788   2.410   3.470   0.537
  144fsi    SBT 1789   2.504   3.587   0.586
  144fsi    NBT 1790   2.427   3.714   0.537
  144fsi    OBT 1791   2.509   3.569   0.729
  144fsi    OBT 1792   2.625   3.563   0.513
  144fsi    SBT 1793   2.308   3.790   0.606
  144fsi    OBT 1794   2.234   3.711   0.700
  144fsi    OBT 1795   2.232   3.867   0.512
  144fsi    FSI 1796   2.381   3.899   0.694
  145fsi    FSI 1797   2.960   2.152   5.243
  145fsi    SBT 1798   2.920   2.000   5.251
  145fsi    NBT 1799   3.050   1.934   5.307
  145fsi    OBT 1800   2.807   1.999   5.340
  145fsi    OBT 1801   2.895   1.967   5.113
  145fsi    SBT 1802   3.098   1.922   5.456
  145fsi    OBT 1803   3.039   2.018   5.546
  145fsi    OBT 1804   3.240   1.904   5.466
  145fsi    FSI 1805   3.039   1.783   5.502
  146fsi    FSI 1806   5.228   3.960   5.951
  146fsi    SBT 1807   5.330   4.073   5.994
  146fsi    NBT 1808   5.365   4.033   6.141
  146fsi    OBT 1809   5.438   4.059   5.900
  146fsi    OBT 1810   5.250   4.192   5.986
  146fsi    SBT 1811   5.471   3.929   6.192
  146fsi    OBT 1812   5.511   3.830   6.095
  146fsi    OBT 1813   5.443   3.881   6.325
  146fsi    FSI 1814   5.600   4.017   6.212
  147fsi    FSI 1815   1.788   1.688   4.418
  147fsi    SBT 1816   1.798   1.769   4.283
  147fsi    NBT 1817   1.689   1.881   4.304
  147fsi    OBT 1818   1.934   1.816   4.282
  147fsi    OBT 1819   1.761   1.673   4.183
  147fsi    SBT 1820   1.701   2.020   4.377
  147fsi    OBT 1821   1.809   2.027   4.473
  147fsi    OBT 1822   1.574   2.072   4.418
  147fsi    FSI 1823   1.746   2.117   4.261
  148fsi    FSI 1824   2.703   5.505   5.163
  148fsi    SBT 1825   2.747   5.451   5.304
  148fsi    NBT 1826   2.903   5.466   5.299
  148fsi    OBT 1827   2.681   5.538   5.397
  148fsi    OBT 1828   2.706   5.313   5.300
  148fsi    SBT 1829   2.991   5.593   5.331
  148fsi    OBT 1830   2.924   5.719   5.315
  148fsi    OBT 1831   3.123   5.583   5.274
  148fsi    FSI 1832   3.016   5.580   5.486
  149fsi    FSI 1833   1.921   2.533   3.978
  149fsi    SBT 1834   2.054   2.465   3.928
  149fsi    NBT 1835   2.016   2.414   3.784
  149fsi    OBT 1836   2.151   2.572   3.931
  149fsi    OBT 1837   2.073   2.358   4.021
  149fsi    SBT 1838   2.017   2.494   3.648
  149fsi    OBT 1839   2.010   2.637   3.662
  149fsi    OBT 1840   1.936   2.433   3.546
  149fsi    FSI 1841   2.163   2.469   3.595
  150fsi    FSI 1842   5.598   3.052   5.057
  150fsi    SBT 1843   5.592   3.087   5.211
  150fsi    NBT 1844   5.439   3.111   5.237
  150fsi    OBT 1845   5.651   2.973   5.277
  150fsi    OBT 1846   5.671   3.207   5.220
  150fsi    SBT 1847   5.324   3.004   5.258
  150fsi    OBT 1848   5.360   2.871   5.218
  150fsi    OBT 1849   5.194   3.053   5.221
  150fsi    FSI 1850   5.317   2.995   5.415
  151fsi    FSI 1851   2.437   6.139   6.153
  151fsi    SBT 1852   2.471   6.279   6.216
  151fsi    NBT 1853   2.344   6.365   6.179
  151fsi    OBT 1854   2.487   6.252   6.357
  151fsi    OBT 1855   2.588   6.320   6.144
  151fsi    SBT 1856   2.205   6.371   6.251
  151fsi    OBT 1857   2.174   6.256   6.332
  151fsi    OBT 1858   2.101   6.418   6.163
  151fsi    FSI 1859   2.222   6.489   6.354
  152fsi    FSI 1860   3.463   1.170   5.204
  152fsi    SBT 1861   3.584   1.091   5.141
  152fsi    NBT 1862   3.678   1.207   5.090
  152fsi    OBT 1863   3.638   1.013   5.247
  152fsi    OBT 1864   3.525   1.020   5.031
  152fsi    SBT 1865   3.783   1.290   5.173
  152fsi    OBT 1866   3.756   1.302   5.313
  152fsi    OBT 1867   3.822   1.410   5.104
  152fsi    FSI 1868   3.913   1.201   5.165
  153fsi    FSI 1869   2.881   3.424   3.969
  153fsi    SBT 1870   2.905   3.306   3.867
  153fsi    NBT 1871   2.862   3.368   3.730
  153fsi    OBT 1872   3.044   3.275   3.881
  153fsi    OBT 1873   2.812   3.206   3.913
  153fsi    SBT 1874   2.944   3.463   3.635
  153fsi    OBT 1875   3.055   3.529   3.698
  153fsi    OBT 1876   2.858   3.542   3.550
  153fsi    FSI 1877   3.011   3.362   3.535
  154fsi    FSI 1878   0.986   3.954   5.215
  154fsi    SBT 1879   0.858   3.875   5.263
  154fsi    NBT 1880   0.897   3.831   5.409
  154fsi    OBT 1881   0.752   3.971   5.255
  154fsi    OBT 1882   0.853   3.763   5.173
  154fsi    SBT 1883   0.889   3.915   5.542
  154fsi    OBT 1884   0.886   4.057   5.524
  154fsi    OBT 1885   0.976   3.863   5.644
  154fsi    FSI 1886   0.745   3.880   5.596
  155fsi    FSI 1887   1.394   5.120   2.242
  155fsi    SBT 1888   1.350   4.972   2.208
  155fsi    NBT 1889   1.318   4.980   2.054
  155fsi    OBT 1890   1.464   4.891   2.242
  155fsi    OBT 1891   1.231   4.954   2.286
  155fsi    SBT 1892   1.418   4.972   1.933
  155fsi    OBT 1893   1.552   5.011   1.962
  155fsi    OBT 1894   1.358   5.025   1.813
  155fsi    FSI 1895   1.427   4.817   1.904
  156fsi    FSI 1896   5.657   3.400   2.247
  156fsi    SBT 1897   5.774   3.355   2.152
  156fsi    NBT 1898   5.902   3.390   2.237
  156fsi    OBT 1899   5.752   3.214   2.132
  156fsi    OBT 1900   5.761   3.441   2.038
  156fsi    SBT 1901   5.972   3.305   2.348
  156fsi    OBT 1902   5.889   3.207   2.414
  156fsi    OBT 1903   6.057   3.385   2.432
  156fsi    FSI 1904   6.075   3.218   2.267
  157fsi    FSI 1905   1.730   6.508   0.178
  157fsi    SBT 1906   1.824   6.416   0.264
  157fsi    NBT 1907   1.794   6.465   0.410
  157fsi    OBT 1908   1.781   6.283   0.232
  157fsi    OBT 1909   1.956   6.455   0.220
  157fsi    SBT 1910   1.678   6.418   0.506
  157fsi    OBT 1911   1.564   6.362   0.439
  157fsi    OBT 1912   1.652   6.514   0.610
  157fsi    FSI 1913   1.744   6.297   0.582
  158fsi    FSI 1914   1.613   1.190   4.508
  158fsi    SBT 1915   1.546   1.323   4.561
  158fsi    NBT 1916   1.527   1.407   4.430
  158fsi    OBT 1917   1.423   1.278   4.622
  158fsi    OBT 1918   1.646   1.378   4.648
  158fsi    SBT 1919   1.411   1.400   4.324
  158fsi    OBT 1920   1.336   1.276   4.323
  158fsi    OBT 1921   1.448   1.454   4.196
  158fsi    FSI 1922   1.307   1.505   4.379
  159fsi    FSI 1923   6.092   1.065   2.412
  159fsi    SBT 1924   5.952   0.992   2.410
  159fsi    NBT 1925   5.993   0.841   2.416
  159fsi    OBT 1926   5.886   1.042   2.527
  159fsi    OBT 1927   5.898   1.030   2.283
  159fsi    SBT 1928   6.031   0.753   2.541
  159fsi    OBT 1929   6.070   0.830   2.657
  159fsi    OBT 1930   6.113   0.641   2.507
  159fsi    FSI 1931   5.893   0.689   2.582
  160fsi    FSI 1932   3.205   4.246   1.418
  160fsi    SBT 1933   3.357   4.208   1.437
  160fsi    NBT 1934   3.429   4.347   1.443
  160fsi    OBT 1935   3.360   4.133   1.561
  160fsi    OBT 1936   3.388   4.135   1.318
  160fsi    SBT 1937   3.442   4.446   1.564
  160fsi    OBT 1938   3.348   4.425   1.671
  160fsi    OBT 1939   3.466   4.581   1.521
  160fsi    FSI 1940   3.580   4.404   1.627
  161fsi    FSI 1941   2.448   1.751   2.232
  161fsi    SBT 1942   2.442   1.651   2.353
  161fsi    NBT 1943   2.505   1.518   2.300
  161fsi    OBT 1944   2.520   1.710   2.459
  161fsi    OBT 1945   2.303   1.634   2.384
  161fsi    SBT 1946   2.658   1.482   2.286
  161fsi    OBT 1947   2.746   1.595   2.278
  161fsi    OBT 1948   2.680   1.373   2.196
  161fsi    FSI 1949   2.689   1.420   2.428
  162fsi    FSI 1950   2.895   4.390   0.913
  162fsi    SBT 1951   2.832   4.534   0.911
  162fsi    NBT 1952   2.959   4.626   0.905
  162fsi    OBT 1953   2.750   4.534   0.793
  162fsi    OBT 1954   2.763   4.540   1.038
  162fsi    SBT 1955   3.045   4.665   0.779
  162fsi    OBT 1956   3.024   4.581   0.664
  162fsi    OBT 1957   3.181   4.693   0.813
  162fsi    FSI 1958   2.984   4.804   0.736
  163fsi    FSI 1959   1.759   4.704   0.725
  163fsi    SBT 1960   1.663   4.823   0.761
  163fsi    NBT 1961   1.521   4.766   0.724
  163fsi    OBT 1962   1.682   4.844   0.903
  163fsi    OBT 1963   1.704   4.929   0.673
  163fsi    SBT 1964   1.425   4.678   0.810
  163fsi    OBT 1965   1.489   4.600   0.913
  163fsi    OBT 1966   1.326   4.611   0.731
  163fsi    FSI 1967   1.342   4.785   0.890
  164fsi    FSI 1968   0.455   2.871   5.693
  164fsi    SBT 1969   0.500   2.729   5.641
  164fsi    NBT 1970   0.370   2.675   5.573
  164fsi    OBT 1971   0.609   2.758   5.551
  164fsi    OBT 1972   0.532   2.659   5.762
  164fsi    SBT 1973   0.316   2.702   5.427
  164fsi    OBT 1974   0.366   2.822   5.366
  164fsi    OBT 1975   0.175   2.677   5.416
  164fsi    FSI 1976   0.381   2.586   5.343
  165fsi    FSI 1977   3.468   3.838   3.623
  165fsi    SBT 1978   3.565   3.721   3.582
  165fsi    NBT 1979   3.468   3.615   3.519
  165fsi    OBT 1980   3.657   3.783   3.490
  165fsi    OBT 1981   3.621   3.679   3.708
  165fsi    SBT 1982   3.408   3.611   3.374
  165fsi    OBT 1983   3.412   3.736   3.304
  165fsi    OBT 1984   3.287   3.534   3.365
  165fsi    FSI 1985   3.512   3.522   3.296
  166fsi    FSI 1986   6.054   1.620   4.151
  166fsi    SBT 1987   6.026   1.750   4.235
  166fsi    NBT 1988   5.938   1.836   4.137
  166fsi    OBT 1989   5.957   1.703   4.353
  166fsi    OBT 1990   6.157   1.807   4.253
  166fsi    SBT 1991   5.782   1.828   4.113
  166fsi    OBT 1992   5.721   1.703   4.146
  166fsi    OBT 1993   5.745   1.888   3.988
  166fsi    FSI 1994   5.725   1.929   4.220
  167fsi    FSI 1995   2.705   0.783   5.882
  167fsi    SBT 1996   2.720   0.629   5.854
  167fsi    NBT 1997   2.601   0.600   5.755
  167fsi    OBT 1998   2.851   0.616   5.796
  167fsi    OBT 1999   2.699   0.569   5.983
  167fsi    SBT 2000   2.596   0.620   5.599
  167fsi    OBT 2001   2.691   0.714   5.546
  167fsi    OBT 2002   2.462   0.628   5.549
  167fsi    FSI 2003   2.646   0.481   5.545
  168fsi    FSI 2004   2.640   5.967   2.357
  168fsi    SBT 2005   2.617   6.120   2.329
  168fsi    NBT 2006   2.474   6.124   2.265
  168fsi    OBT 2007   2.627   6.182   2.458
  168fsi    OBT 2008   2.720   6.152   2.234
  168fsi    SBT 2009   2.334   6.122   2.338
  168fsi    OBT 2010   2.336   6.073   2.473
  168fsi    OBT 2011   2.227   6.079   2.251
  168fsi    FSI 2012   2.304   6.276   2.355
  169fsi    FSI 2013   4.823   1.660   1.364
  169fsi    SBT 2014   4.948   1.755   1.346
  169fsi    NBT 2015   5.038   1.715   1.469
  169fsi    OBT 2016   5.001   1.718   1.217
  169fsi    OBT 2017   4.892   1.886   1.360
  169fsi    SBT 2018   5.138   1.595   1.482
  169fsi    OBT 2019   5.113   1.485   1.393
  169fsi    OBT 2020   5.164   1.562   1.620
  169fsi    FSI 2021   5.275   1.656   1.432
  170fsi    FSI 2022   5.208   1.813   0.592
  170fsi    SBT 2023   5.350   1.871   0.552
  170fsi    NBT 2024   5.403   1.930   0.688
  170fsi    OBT 2025   5.423   1.757   0.503
  170fsi    OBT 2026   5.319   1.974   0.457
  170fsi    SBT 2027   5.473   1.855   0.807
  170fsi    OBT 2028   5.450   1.713   0.812
  170fsi    OBT 2029   5.466   1.928   0.930
  170fsi    FSI 2030   5.626   1.866   0.769
  171fsi    FSI 2031   3.787   1.256   2.494
  171fsi    SBT 2032   3.840   1.386   2.423
  171fsi    NBT 2033   3.977   1.412   2.495
  171fsi    OBT 2034   3.852   1.352   2.283
  171fsi    OBT 2035   3.742   1.485   2.458
  171fsi    SBT 2036   4.116   1.346   2.464
  171fsi    OBT 2037   4.110   1.220   2.395
  171fsi    OBT 2038   4.204   1.356   2.577
  171fsi    FSI 2039   4.178   1.444   2.359
  172fsi    FSI 2040   5.306   4.976   3.050
  172fsi    SBT 2041   5.156   5.003   3.008
  172fsi    NBT 2042   5.114   5.125   3.098
  172fsi    OBT 2043   5.164   5.032   2.867
  172fsi    OBT 2044   5.088   4.882   3.045
  172fsi    SBT 2045   5.139   5.279   3.072
  172fsi    OBT 2046   5.248   5.310   2.983
  172fsi    OBT 2047   5.123   5.361   3.189
  172fsi    FSI 2048   5.012   5.318   2.988
  173fsi    FSI 2049   0.918   1.726   5.128
  173fsi    SBT 2050   1.009   1.598   5.137
  173fsi    NBT 2051   1.136   1.651   5.213
  173fsi    OBT 2052   0.928   1.503   5.210
  173fsi    OBT 2053   1.035   1.568   4.999
  173fsi    SBT 2054   1.156   1.672   5.368
  173fsi    OBT 2055   1.034   1.682   5.444
  173fsi    OBT 2056   1.258   1.769   5.397
  173fsi    FSI 2057   1.220   1.536   5.414
  174fsi    FSI 2058   1.293   5.979   2.717
  174fsi    SBT 2059   1.307   6.017   2.870
  174fsi    NBT 2060   1.168   6.083   2.902
  174fsi    OBT 2061   1.329   5.892   2.937
  174fsi    OBT 2062   1.413   6.114   2.872
  174fsi    SBT 2063   1.033   6.014   2.942
  174fsi    OBT 2064   1.020   5.877   2.900
  174fsi    OBT 2065   0.920   6.099   2.922
  174fsi    FSI 2066   1.044   6.005   3.099
  175fsi    FSI 2067   4.118   3.040   0.920
  175fsi    SBT 2068   4.212   3.152   0.864
  175fsi    NBT 2069   4.355   3.102   0.909
  175fsi    OBT 2070   4.190   3.148   0.721
  175fsi    OBT 2071   4.169   3.269   0.934
  175fsi    SBT 2072   4.446   2.994   0.841
  175fsi    OBT 2073   4.378   2.903   0.753
  175fsi    OBT 2074   4.542   2.937   0.932
  175fsi    FSI 2075   4.536   3.080   0.744
  176fsi    FSI 2076   3.881   4.690   2.027
  176fsi    SBT 2077   3.900   4.832   1.963
  176fsi    NBT 2078   3.771   4.848   1.875
  176fsi    OBT 2079   3.908   4.922   2.075
  176fsi    OBT 2080   4.019   4.818   1.883
  176fsi    SBT 2081   3.626   4.891   1.919
  176fsi    OBT 2082   3.600   4.878   2.060
  176fsi    OBT 2083   3.525   4.844   1.829
  176fsi    FSI 2084   3.627   5.046   1.894
  177fsi    FSI 2085   5.126   4.268   3.738
  177fsi    SBT 2086   5.168   4.398   3.816
  177fsi    NBT 2087   5.263   4.470   3.713
  177fsi    OBT 2088   5.043   4.465   3.843
  177fsi    OBT 2089   5.240   4.346   3.929
  177fsi    SBT 2090   5.224   4.559   3.589
  177fsi    OBT 2091   5.087   4.543   3.546
  177fsi    OBT 2092   5.326   4.556   3.487
  177fsi    FSI 2093   5.230   4.705   3.647
  178fsi    FSI 2094   2.994   3.957   4.026
  178fsi    SBT 2095   2.873   3.902   3.940
  178fsi    NBT 2096   2.885   3.986   3.807
  178fsi    OBT 2097   2.899   3.762   3.928
  178fsi    OBT 2098   2.759   3.941   4.018
  178fsi    SBT 2099   2.983   3.963   3.686
  178fsi    OBT 2100   3.100   3.886   3.717
  178fsi    OBT 2101   3.002   4.084   3.611
  178fsi    FSI 2102   2.899   3.872   3.588
  179fsi    FSI 2103   1.462   2.309   3.690
  179fsi    SBT 2104   1.586   2.211   3.701
  179fsi    NBT 2105   1.562   2.143   3.841
  179fsi    OBT 2106   1.570   2.123   3.587
  179fsi    OBT 2107   1.698   2.300   3.701
  179fsi    SBT 2108   1.475   2.018   3.877
  179fsi    OBT 2109   1.373   1.987   3.780
  179fsi    OBT 2110   1.434   2.017   4.015
  179fsi    FSI 2111   1.577   1.899   3.866
  180fsi    FSI 2112   1.646   0.442   5.268
  180fsi    SBT 2113   1.494   0.433   5.226
  180fsi    NBT 2114   1.422   0.510   5.343
  180fsi    OBT 2115   1.489   0.499   5.098
  180fsi    OBT 2116   1.468   0.292   5.229
  180fsi    SBT 2117   1.402   0.665   5.361
  180fsi    OBT 2118   1.493   0.747   5.286
  180fsi    OBT 2119   1.379   0.701   5.498
  180fsi    FSI 2120   1.263   0.690   5.293
  181fsi    FSI 2121   2.351   4.888   0.717
  181fsi    SBT 2122   2.298   4.997   0.818
  181fsi    NBT 2123   2.428   5.038   0.897
  181fsi    OBT 2124   2.244   5.100   0.733
  181fsi    OBT 2125   2.205   4.924   0.899
  181fsi    SBT 2126   2.542   5.137   0.854
  181fsi    OBT 2127   2.547   5.166   0.713
  181fsi    OBT 2128   2.666   5.111   0.921
  181fsi    FSI 2129   2.494   5.273   0.918
  182fsi    FSI 2130   4.147   3.769   0.790
  182fsi    SBT 2131   4.222   3.688   0.677
  182fsi    NBT 2132   4.369   3.679   0.731
  182fsi    OBT 2133   4.151   3.562   0.670
  182fsi    OBT 2134   4.212   3.774   0.562
  182fsi    SBT 2135   4.427   3.581   0.840
  182fsi    OBT 2136   4.331   3.530   0.933
  182fsi    OBT 2137   4.551   3.629   0.895
  182fsi    FSI 2138   4.472   3.456   0.755
  183fsi    FSI 2139   5.442   6.061   0.503
  183fsi    SBT 2140   5.562   6.129   0.427
  183fsi    NBT 2141   5.687   6.068   0.501
  183fsi    OBT 2142   5.546   6.086   0.291
  183fsi    OBT 2143   5.544   6.268   0.456
  183fsi    SBT 2144   5.759   5.931   0.475
  183fsi    OBT 2145   5.679   5.831   0.410
  183fsi    OBT 2146   5.837   5.888   0.588
  183fsi    FSI 2147   5.869   5.968   0.368
  184fsi    FSI 2148   6.065   2.178   5.225
  184fsi    SBT 2149   6.039   2.034   5.284
  184fsi    NBT 2150   5.882   2.024   5.276
  184fsi    OBT 2151   6.112   1.947   5.196
  184fsi    OBT 2152   6.083   2.049   5.420
  184fsi    SBT 2153   5.794   1.984   5.153
  184fsi    OBT 2154   5.853   2.009   5.025
  184fsi    OBT 2155   5.660   2.034   5.176
  184fsi    FSI 2156   5.781   1.827   5.164
  185fsi    FSI 2157   4.994   3.170   4.081
  185fsi    SBT 2158   4.902   3.264   3.994
  185fsi    NBT 2159   4.994   3.389   3.971
  185fsi    OBT 2160   4.873   3.187   3.877
  185fsi    OBT 2161   4.793   3.294   4.083
  185fsi    SBT 2162   5.107   3.409   3.863
  185fsi    OBT 2163   5.159   3.287   3.807
  185fsi    OBT 2164   5.202   3.509   3.902
  185fsi    FSI 2165   5.029   3.477   3.744
  186fsi    FSI 2166   3.716   5.407   0.163
  186fsi    SBT 2167   3.717   5.543   0.243
  186fsi    NBT 2168   3.594   5.527   0.339
  186fsi    OBT 2169   3.846   5.545   0.307
  186fsi    OBT 2170   3.694   5.641   0.140
  186fsi    SBT 2171   3.585   5.448   0.475
  186fsi    OBT 2172   3.688   5.350   0.494
  186fsi    OBT 2173   3.450   5.409   0.504
  186fsi    FSI 2174   3.616   5.559   0.582
  187fsi    FSI 2175   1.660   3.375   2.555
  187fsi    SBT 2176   1.790   3.287   2.561
  187fsi    NBT 2177   1.872   3.355   2.676
  187fsi    OBT 2178   1.741   3.155   2.592
  187fsi    OBT 2179   1.849   3.305   2.431
  187fsi    SBT 2180   1.859   3.336   2.832
  187fsi    OBT 2181   1.734   3.279   2.875
  187fsi    OBT 2182   1.909   3.448   2.906
  187fsi    FSI 2183   1.964   3.222   2.861
  188fsi    FSI 2184   3.202   2.070   2.613
  188fsi    SBT 2185   3.097   1.973   2.679
  188fsi    NBT 2186   3.002   2.072   2.757
  188fsi    OBT 2187   3.035   1.905   2.568
  188fsi    OBT 2188   3.177   1.894   2.768
  188fsi    SBT 2189   2.880   2.155   2.701
  188fsi    OBT 2190   2.881   2.176   2.559
  188fsi    OBT 2191   2.849   2.269   2.784
  188fsi    FSI 2192   2.759   2.058   2.726
  189fsi    FSI 2193   4.559   4.479   5.177
  189fsi    SBT 2194   4.449   4.529   5.075
  189fsi    NBT 2195   4.424   4.677   5.123
  189fsi    OBT 2196   4.512   4.517   4.946
  189fsi    OBT 2197   4.337   4.444   5.103
  189fsi    SBT 2198   4.508   4.806   5.089
  189fsi    OBT 2199   4.644   4.781   5.049
  189fsi    OBT 2200   4.487   4.910   5.186
  189fsi    FSI 2201   4.437   4.861   4.959
  190fsi    FSI 2202   5.712   0.833   5.639
  190fsi    SBT 2203   5.867   0.838   5.667
  190fsi    NBT 2204   5.927   0.765   5.542
  190fsi    OBT 2205   5.896   0.979   5.674
  190fsi    OBT 2206   5.882   0.762   5.788
  190fsi    SBT 2207   5.958   0.823   5.399
  190fsi    OBT 2208   5.887   0.944   5.366
  190fsi    OBT 2209   5.965   0.722   5.298
  190fsi    FSI 2210   6.108   0.870   5.413
  191fsi    FSI 2211   5.139   6.081   4.405
  191fsi    SBT 2212   5.174   5.979   4.290
  191fsi    NBT 2213   5.235   5.858   4.369
  191fsi    OBT 2214   5.048   5.952   4.227
  191fsi    OBT 2215   5.272   6.050   4.212
  191fsi    SBT 2216   5.161   5.736   4.436
  191fsi    OBT 2217   5.023   5.758   4.471
  191fsi    OBT 2218   5.242   5.671   4.536
  191fsi    FSI 2219   5.155   5.630   4.320
  192fsi    FSI 2220   2.245   4.671   2.147
  192fsi    SBT 2221   2.385   4.694   2.215
  192fsi    NBT 2222   2.486   4.663   2.098
  192fsi    OBT 2223   2.383   4.832   2.257
  192fsi    OBT 2224   2.389   4.595   2.319
  192fsi    SBT 2225   2.534   4.757   1.982
  192fsi    OBT 2226   2.447   4.868   1.954
  192fsi    OBT 2227   2.582   4.682   1.869
  192fsi    FSI 2228   2.664   4.823   2.041
  193fsi    FSI 2229   6.173   1.633   5.572
  193fsi    SBT 2230   6.074   1.631   5.695
  193fsi    NBT 2231   6.160   1.563   5.807
  193fsi    OBT 2232   6.043   1.770   5.719
  193fsi    OBT 2233   5.965   1.549   5.649
  193fsi    SBT 2234   6.266   1.627   5.904
  193fsi    OBT 2235   6.317   1.755   5.860
  193fsi    OBT 2236   6.361   1.532   5.955
  193fsi    FSI 2237   6.179   1.663   6.030
  194fsi    FSI 2238   1.782   5.274   2.508
  194fsi    SBT 2239   1.730   5.252   2.656
  194fsi    NBT 2240   1.705   5.398   2.707
  194fsi    OBT 2241   1.611   5.173   2.641
  194fsi    OBT 2242   1.842   5.190   2.722
  194fsi    SBT 2243   1.578   5.489   2.688
  194fsi    OBT 2244   1.492   5.454   2.578
  194fsi    OBT 2245   1.607   5.629   2.708
  194fsi    FSI 2246   1.492   5.453   2.815
  195fsi    FSI 2247   1.699   1.944   6.351
  195fsi    SBT 2248   1.733   1.790   6.352
  195fsi    NBT 2249   1.741   1.757   6.199
  195fsi    OBT 2250   1.857   1.782   6.424
  195fsi    OBT 2251   1.617   1.733   6.415
  195fsi    SBT 2252   1.863   1.776   6.101
  195fsi    OBT 2253   1.960   1.873   6.145
  195fsi    OBT 2254   1.821   1.785   5.964
  195fsi    FSI 2255   1.938   1.638   6.109
  196fsi    FSI 2256   5.050   6.252   6.062
  196fsi    SBT 2257   4.904   6.289   6.015
  196fsi    NBT 2258   4.815   6.231   6.131
  196fsi    OBT 2259   4.905   6.432   6.005
  196fsi    OBT 2260   4.888   6.214   5.893
  196fsi    SBT 2261   4.780   6.297   6.270
  196fsi    OBT 2262   4.872   6.399   6.314
  196fsi    OBT 2263   4.739   6.199   6.367
  196fsi    FSI 2264   4.647   6.376   6.240
  197fsi    FSI 2265   3.314   2.231   0.896
  197fsi    SBT 2266   3.364   2.376   0.857
  197fsi    NBT 2267   3.506   2.347   0.797
  197fsi    OBT 2268   3.266   2.422   0.763
  197fsi    OBT 2269   3.369   2.443   0.984
  197fsi    SBT 2270   3.544   2.303   0.651
  197fsi    OBT 2271   3.437   2.242   0.577
  197fsi    OBT 2272   3.673   2.239   0.645
  197fsi    FSI 2273   3.568   2.441   0.578
  198fsi    FSI 2274   5.745   0.196   3.053
  198fsi    SBT 2275   5.787   0.330   2.983
  198fsi    NBT 2276   5.649   0.401   2.959
  198fsi    OBT 2277   5.873   0.395   3.079
  198fsi    OBT 2278   5.848   0.285   2.861
  198fsi    SBT 2279   5.566   0.491   3.058
  198fsi    OBT 2280   5.595   0.470   3.198
  198fsi    OBT 2281   5.427   0.500   3.021
  198fsi    FSI 2282   5.621   0.635   3.029
  199fsi    FSI 2283   0.303   6.132   3.601
  199fsi    SBT 2284   0.329   6.190   3.745
  199fsi    NBT 2285   0.456   6.281   3.722
  199fsi    OBT 2286   0.209   6.261   3.778
  199fsi    OBT 2287   0.361   6.073   3.822
  199fsi    SBT 2288   0.461   6.430   3.671
  199fsi    OBT 2289   0.348   6.472   3.593
  199fsi    OBT 2290   0.592   6.464   3.621
  199fsi    FSI 2291   0.450   6.514   3.804
  200fsi    FSI 2292   5.357   0.639   1.267
  200fsi    SBT 2293   5.354   0.481   1.270
  200fsi    NBT 2294   5.475   0.446   1.363
  200fsi    OBT 2295   5.225   0.449   1.325
  200fsi    OBT 2296   5.378   0.444   1.133
  200fsi    SBT 2297   5.480   0.441   1.520
  200fsi    OBT 2298   5.378   0.516   1.587
  200fsi    OBT 2299   5.614   0.452   1.571
  200fsi    FSI 2300   5.443   0.291   1.551
   6.66170   6.66170   6.66170
