L1P2 short trajectory practice
 2300
    1Li+     Li    1   4.222   4.990   4.169 -0.7128 -0.1036 -2.1142
    2Li+     Li    2   2.571   3.860   3.351 -0.2815  0.8335  0.8657
    3Li+     Li    3   2.620   2.686   3.786 -0.8405  0.1287  0.1970
    4Li+     Li    4   3.760   6.419   4.018  0.3355 -0.6188  1.1417
    5Li+     Li    5   3.502   6.233   3.473  0.0464 -0.8307  0.8584
    6Li+     Li    6   2.867   2.533   3.197 -0.0864  0.5438 -0.0792
    7Li+     Li    7   4.133   6.013   3.657  1.2376 -1.5554  0.2482
    8Li+     Li    8   2.920   1.072   3.707  0.6688  0.3957 -0.3363
    9Li+     Li    9   4.180   4.268   3.308 -0.2195  0.0478 -0.5508
   10Li+     Li   10   4.663   5.626   3.188 -0.2230  0.6869  1.6938
   11Li+     Li   11   4.665   3.380   3.153 -0.1180 -0.7582 -0.2522
   12Li+     Li   12   3.803   5.673   3.162  0.2670  0.4092 -0.7862
   13Li+     Li   13   1.504   2.361   3.902 -0.5401 -0.0486  0.6062
   14Li+     Li   14   3.082   2.161   4.424  0.5634  0.4773  0.2160
   15Li+     Li   15   2.483   1.876   4.698  0.3831 -1.7309 -0.3648
   16Li+     Li   16   3.768   5.129   4.140  0.9078  0.3781 -0.1239
   17Li+     Li   17   2.456   1.615   4.181  0.4883 -0.1181 -0.2528
   18Li+     Li   18   4.139   4.714   3.262  0.1881  0.5278 -0.7626
   19Li+     Li   19   3.093   2.874   3.650  0.3284  0.9611  0.0802
   20Li+     Li   20   3.407   0.601   3.491  0.0981  0.3862  0.2573
   21Li+     Li   21   2.470   3.801   2.897 -0.6804 -0.6822  0.4085
   22Li+     Li   22   4.111   5.327   3.466  1.3382  0.3282  0.3501
   23Li+     Li   23   3.695   5.548   3.736  1.2725 -1.1558 -0.2250
   24Li+     Li   24   4.331   5.406   2.886  0.1622  0.0372 -0.0425
   25Li+     Li   25   4.393   5.567   3.825  0.5446 -0.1975 -0.4338
   26Li+     Li   26   2.766   1.395   3.890  0.2393 -0.0815 -0.0919
   27Li+     Li   27   3.933   3.986   3.040 -0.4721 -0.1228 -0.1729
   28Li+     Li   28   3.790   4.568   4.281 -0.2352  0.4345 -0.6434
   29Li+     Li   29   3.000   1.753   4.735  0.2820  0.4765  0.8117
   30Li+     Li   30   3.214   6.384   3.917 -0.9436 -0.3147 -0.5528
   31Li+     Li   31   3.606   4.468   3.027  0.5191  0.5420  0.6758
   32Li+     Li   32   1.731   3.165   3.374 -0.1222  0.2338 -1.1662
   33Li+     Li   33   2.626   2.139   4.192 -0.0203  0.1668 -0.0685
   34Li+     Li   34   4.338   6.263   4.164  1.2702 -0.4468 -0.0824
   35Li+     Li   35   2.541   3.359   2.671  0.0857  1.0509  0.4391
   36Li+     Li   36   3.746   0.935   3.263 -0.8900  0.0130 -0.7378
   37Li+     Li   37   1.555   2.659   3.101 -0.2743 -0.6317  0.2728
   38Li+     Li   38   1.266   2.231   3.432  0.9845  0.4396 -0.0301
   39Li+     Li   39   4.669   6.089   4.117  0.0198  0.4633 -1.7517
   40Li+     Li   40   2.143   3.404   3.091 -0.4331 -0.2098 -0.5670
   41Li+     Li   41   1.810   2.286   3.409  0.4551  0.2087  0.4236
   42Li+     Li   42   1.397   3.261   3.092  0.1065 -0.1340  1.1491
   43Li+     Li   43   2.132   2.986   3.811  0.6270  0.0457  0.6601
   44Li+     Li   44   2.929   3.783   2.840  0.1619  0.1107  1.0856
   45Li+     Li   45   5.332   3.542   3.413  0.2306 -0.1608 -0.2509
   46Li+     Li   46   4.463   5.220   3.390 -0.2137  0.2600  0.0638
   47Li+     Li   47   3.106   1.670   4.149 -1.2065 -0.5660 -0.5003
   48Li+     Li   48   3.680   2.722   3.442  0.3851 -1.1905  0.5112
   49Li+     Li   49   4.131   6.004   3.160  0.3858  0.1338  0.6525
   50Li+     Li   50   4.075   5.560   4.345 -0.0890  0.5277 -1.0220
   51c3c     N4   51   4.372   6.613   3.661  0.1791 -0.2536 -0.0176
   51c3c     C1   52   4.513   6.648   3.671  0.1179  0.1071  0.7566
   51c3c     C1   53   4.347   6.640   3.520  0.1621  0.8947  0.0250
   51c3c     C2   54   4.583   6.613   3.538  0.1414 -0.3754  0.1841
   51c3c     C2   55   4.460   6.565   3.450 -0.7522 -0.0388 -0.7425
   51c3c     C1   56   4.344   6.468   3.694  0.2392  0.1708  0.0050
   51c3c     C1   57   4.284   6.692   3.753 -0.5379 -0.4022  0.3909
   51c3c     H1   58   4.561   6.608   3.760 -0.6242  0.3011  1.2446
   51c3c     H1   59   4.536   6.754   3.679  1.6899 -0.1214 -0.3871
   51c3c     H1   60   4.251   6.599   3.488  0.5524 -0.2160  0.2733
   51c3c     H1   61   4.352   6.743   3.485  0.0823  1.4133  1.5099
   51c3c     HC   62   4.662   6.538   3.532  1.4290  0.6975  2.8020
   51c3c     HC   63   4.620   6.704   3.491 -2.6868  0.2451 -0.9394
   51c3c     HC   64   4.460   6.457   3.462 -0.9400 -0.0097 -0.4873
   51c3c     HC   65   4.470   6.586   3.343 -1.6969  1.0757 -0.6309
   51c3c     H1   66   4.357   6.450   3.801  0.3183 -0.7391 -0.1581
   51c3c     H1   67   4.248   6.443   3.650 -0.0328  1.4785 -0.1788
   51c3c     H1   68   4.426   6.410   3.652 -1.2328 -2.1351  0.2736
   51c3c     H1   69   4.180   6.662   3.749  0.2483 -3.3875  1.1293
   51c3c     H1   70   4.321   6.682   3.855  1.3511 -1.9949 -0.4036
   51c3c     C2   71   4.278   6.841   3.729 -1.1825  0.0823 -0.4300
   51c3c     HC   72   4.213   6.874   3.647 -1.3016  1.0510  0.0444
   51c3c     HC   73   4.375   6.886   3.708 -1.1220  0.4125  0.5372
   51c3c     CT   74   4.222   6.928   3.842  0.0487 -0.5224 -0.3547
   51c3c     HC   75   4.311   6.931   3.904  1.2305 -0.8055 -1.9823
   51c3c     HC   76   4.147   6.873   3.898 -1.1456 -0.9517 -2.3071
   51c3c     HC   77   4.193   7.024   3.798 -0.5161 -0.5999 -0.1638
   52c3c     N4   78   3.650   1.936   4.166 -0.0062  0.7515  0.2730
   52c3c     C1   79   3.530   1.850   4.159  0.1880 -0.3475  0.5384
   52c3c     C1   80   3.732   1.883   4.053 -0.3447 -0.6513 -0.2209
   52c3c     C2   81   3.501   1.836   4.009  0.1879 -0.1701  0.8170
   52c3c     C2   82   3.634   1.850   3.936  0.1483  0.0116 -0.1518
   52c3c     C1   83   3.614   2.070   4.136  0.4590  0.6701  0.4596
   52c3c     C1   84   3.721   1.943   4.298  0.4887 -0.5234  0.1436
   52c3c     H1   85   3.438   1.874   4.214  0.5055 -1.0445  1.3844
   52c3c     H1   86   3.554   1.756   4.209 -2.2701 -1.4669 -0.2891
   52c3c     H1   87   3.802   1.954   4.008  1.9841 -2.5231  0.3104
   52c3c     H1   88   3.791   1.795   4.077  0.3245 -0.3329 -0.6673
   52c3c     HC   89   3.430   1.916   3.988  2.2540  1.3733 -0.6347
   52c3c     HC   90   3.439   1.753   3.977 -1.2080  0.2562  2.3655
   52c3c     HC   91   3.637   1.926   3.858  1.6985  0.3054  0.1767
   52c3c     HC   92   3.655   1.756   3.886  0.6325 -0.0726  0.1969
   52c3c     H1   93   3.567   2.136   4.208 -0.2337  0.8038 -0.1086
   52c3c     H1   94   3.707   2.120   4.109 -0.2792  1.6998 -0.2425
   52c3c     H1   95   3.553   2.071   4.046 -0.3569 -2.3477  0.9191
   52c3c     H1   96   3.805   2.012   4.292 -0.6199  0.8438  0.2366
   52c3c     H1   97   3.654   1.991   4.369  1.2341 -1.2068  1.3265
   52c3c     C2   98   3.770   1.809   4.362 -0.8490  0.2318 -0.2520
   52c3c     HC   99   3.837   1.769   4.286  0.0784 -0.1094  0.7308
   52c3c     HC  100   3.690   1.739   4.387  0.1756 -0.1032  2.2253
   52c3c     CT  101   3.858   1.828   4.482 -0.0513 -0.5467  0.5272
   52c3c     HC  102   3.921   1.741   4.500  0.5084 -1.0831 -3.4025
   52c3c     HC  103   3.810   1.848   4.577  0.5536  3.0372  0.1450
   52c3c     HC  104   3.931   1.906   4.460  0.7742 -1.3800  0.2625
   53c3c     N4  105   1.239   3.643   3.588 -0.2802  0.0712 -0.1049
   53c3c     C1  106   1.101   3.661   3.534 -0.7950 -0.1305  0.6062
   53c3c     C1  107   1.225   3.654   3.733 -0.7437 -0.4863 -0.3961
   53c3c     C2  108   1.006   3.591   3.627  0.1810  0.1912  0.7750
   53c3c     C2  109   1.087   3.587   3.759  0.5045  0.4833  0.1621
   53c3c     C1  110   1.290   3.510   3.549  0.2296  0.4291  0.6843
   53c3c     C1  111   1.349   3.732   3.542  0.3352 -0.5924  0.7096
   53c3c     H1  112   1.089   3.640   3.428 -0.2888 -1.5304  0.8138
   53c3c     H1  113   1.067   3.765   3.535 -0.9969 -0.1696 -1.0211
   53c3c     H1  114   1.300   3.598   3.790 -1.2292  0.4733  1.2169
   53c3c     H1  115   1.221   3.753   3.777  3.4160 -0.2400 -0.3982
   53c3c     HC  116   0.980   3.491   3.595 -1.4918  0.8557 -0.0162
   53c3c     HC  117   0.912   3.645   3.639  0.2438  0.2864  0.8441
   53c3c     HC  118   1.088   3.483   3.795  1.8987  0.1117 -0.9042
   53c3c     HC  119   1.032   3.639   3.836 -1.0512 -0.2997 -0.4056
   53c3c     H1  120   1.309   3.499   3.443 -1.1325 -0.7544  0.5683
   53c3c     H1  121   1.383   3.496   3.605  0.7713 -2.3432 -0.8556
   53c3c     H1  122   1.217   3.434   3.573 -0.1071  0.0282 -1.5328
   53c3c     H1  123   1.436   3.714   3.605 -0.5370 -0.6749  1.8992
   53c3c     H1  124   1.378   3.711   3.439 -4.7105 -2.0998 -0.5707
   53c3c     C2  125   1.305   3.884   3.554  0.1540 -0.1115 -0.1479
   53c3c     HC  126   1.251   3.905   3.646  0.8053  1.1061 -0.0381
   53c3c     HC  127   1.242   3.910   3.470  1.6623 -1.6153 -1.7943
   53c3c     CT  128   1.429   3.973   3.560  0.3560  0.3861  0.1852
   53c3c     HC  129   1.477   3.968   3.462  0.0333 -1.9829  0.1052
   53c3c     HC  130   1.502   3.944   3.635 -0.1904  0.4430  0.7344
   53c3c     HC  131   1.398   4.075   3.579 -0.2181  0.6637 -2.0645
   54c3c     N4  132   0.253   3.469   3.505 -0.0958 -0.4176 -0.0541
   54c3c     C1  133   0.265   3.488   3.359  0.6809  0.3118 -0.1763
   54c3c     C1  134   0.140   3.368   3.516 -0.4680 -0.0984 -0.2796
   54c3c     C2  135   0.255   3.344   3.310 -0.7516  0.7527 -0.2777
   54c3c     C2  136   0.173   3.261   3.414  0.5237 -0.3343  0.5856
   54c3c     C1  137   0.379   3.423   3.564  0.5130 -0.1668  0.6111
   54c3c     C1  138   0.219   3.587   3.589 -0.6424  0.0083 -0.2833
   54c3c     H1  139   0.353   3.543   3.326 -1.6636  3.1181 -2.0772
   54c3c     H1  140   0.177   3.540   3.322  0.4528 -0.9682 -1.4593
   54c3c     H1  141   0.116   3.330   3.615  1.0416 -0.3842 -0.0150
   54c3c     H1  142   0.053   3.425   3.484 -0.5517  0.3422  0.7159
   54c3c     HC  143   0.353   3.300   3.292 -0.4592  1.2227  0.1463
   54c3c     HC  144   0.211   3.339   3.211 -1.5327  0.5758  0.0751
   54c3c     HC  145   0.224   3.178   3.463 -0.4283 -0.3041  1.6392
   54c3c     HC  146   0.083   3.218   3.368  0.6140  1.5795 -1.4509
   54c3c     H1  147   0.460   3.489   3.532 -0.7051 -0.3287 -2.9957
   54c3c     H1  148   0.380   3.418   3.673 -1.0494  0.0707  0.6505
   54c3c     H1  149   0.411   3.328   3.521  0.1005 -0.2141  0.4075
   54c3c     H1  150   0.194   3.553   3.689  0.9270  1.3182  0.5702
   54c3c     H1  151   0.304   3.655   3.592 -1.0442  0.5603 -1.1070
   54c3c     C2  152   0.110   3.682   3.546 -0.3851 -0.3311  0.2866
   54c3c     HC  153   0.011   3.637   3.544 -0.6270  0.2243 -0.3913
   54c3c     HC  154   0.136   3.718   3.447  0.2467  0.3404  0.6940
   54c3c     CT  155   0.087   3.796   3.646 -0.1708  0.1198  0.0048
   54c3c     HC  156   0.068   3.759   3.746 -0.9440  0.6920  0.0721
   54c3c     HC  157   0.001   3.857   3.617  0.4682  0.5897 -0.9635
   54c3c     HC  158   0.178   3.856   3.644  0.6695 -0.9040  4.2178
   55c3c     N4  159   2.313   2.760   2.849  0.0701  0.2028  0.1032
   55c3c     C1  160   2.249   2.626   2.849  0.4108 -0.2742  0.1759
   55c3c     C1  161   2.446   2.743   2.905  0.1864 -0.5391  0.4214
   55c3c     C2  162   2.357   2.531   2.825 -0.0321 -0.0202  0.7274
   55c3c     C2  163   2.488   2.608   2.844  0.0013  0.9847  0.4442
   55c3c     C1  164   2.317   2.803   2.704  0.3475  0.2332  0.2505
   55c3c     C1  165   2.237   2.864   2.919  0.2695 -0.5152  0.5323
   55c3c     H1  166   2.177   2.616   2.768  2.0127  0.8137 -1.4279
   55c3c     H1  167   2.202   2.610   2.946  0.5157 -0.3406  0.2166
   55c3c     H1  168   2.517   2.818   2.870 -0.1589 -0.5501 -0.3212
   55c3c     H1  169   2.453   2.736   3.013 -0.7540  0.5915  0.5651
   55c3c     HC  170   2.340   2.492   2.725 -0.5255 -2.0316  1.5631
   55c3c     HC  171   2.357   2.449   2.897 -1.9903 -0.1362  0.6356
   55c3c     HC  172   2.534   2.620   2.746 -1.4944  2.7442 -0.0691
   55c3c     HC  173   2.566   2.562   2.905 -1.8691 -0.3060  1.9051
   55c3c     H1  174   2.216   2.805   2.663  0.8512  0.8537 -0.9760
   55c3c     H1  175   2.357   2.904   2.694  0.5466  0.3087  1.7012
   55c3c     H1  176   2.380   2.742   2.639  1.2833  0.2140  1.1600
   55c3c     H1  177   2.282   2.963   2.918  1.9597 -1.2332  2.7374
   55c3c     H1  178   2.143   2.865   2.864 -0.0586  1.8273  1.0754
   55c3c     C2  179   2.204   2.840   3.073 -0.5426  0.2077  0.3635
   55c3c     HC  180   2.294   2.829   3.134 -1.0113  0.5439  1.1189
   55c3c     HC  181   2.145   2.751   3.093  0.2137 -0.1601  0.9849
   55c3c     CT  182   2.132   2.967   3.127  0.1521 -0.2071  0.1609
   55c3c     HC  183   2.071   2.940   3.213  1.2265 -0.2602  0.9127
   55c3c     HC  184   2.062   3.023   3.065 -0.5007 -0.2287  0.8701
   55c3c     HC  185   2.202   3.034   3.175 -1.1828  0.9676  0.4933
   56c3c     N4  186   3.078   3.762   3.769 -0.2759 -0.0571 -0.2749
   56c3c     C1  187   3.058   3.899   3.709 -0.4805  0.2572 -1.2240
   56c3c     C1  188   3.193   3.771   3.855  0.0869 -0.3020  0.2744
   56c3c     C2  189   3.124   4.003   3.799 -0.7508  0.1749 -0.4793
   56c3c     C2  190   3.192   3.917   3.908 -0.2585 -0.4873 -1.1325
   56c3c     C1  191   2.955   3.739   3.852 -0.0173 -0.0392 -0.6512
   56c3c     C1  192   3.096   3.652   3.671  0.1926 -0.4895 -0.4175
   56c3c     H1  193   2.955   3.927   3.686  0.1317  4.0594  0.2050
   56c3c     H1  194   3.118   3.912   3.619  0.0139  0.2752 -0.8932
   56c3c     H1  195   3.187   3.705   3.941  0.1170 -0.1300  0.4077
   56c3c     H1  196   3.288   3.764   3.802  0.0535  0.6327  0.0881
   56c3c     HC  197   3.065   4.088   3.833  0.8591  1.1621 -0.1272
   56c3c     HC  198   3.205   4.049   3.743  2.1132 -2.9295  0.9608
   56c3c     HC  199   3.137   3.921   4.002  0.2405 -0.4941 -0.8385
   56c3c     HC  200   3.289   3.957   3.938 -1.1759 -0.1600  1.4669
   56c3c     H1  201   2.863   3.741   3.793 -2.0095  0.3423  2.3365
   56c3c     H1  202   2.947   3.647   3.910 -2.8136  0.0921 -0.7590
   56c3c     H1  203   2.937   3.814   3.929  3.6564 -1.9115  2.2120
   56c3c     H1  204   3.149   3.568   3.717  1.6863  1.1240  0.9058
   56c3c     H1  205   3.001   3.610   3.639 -0.2318  0.3740 -0.3014
   56c3c     C2  206   3.197   3.684   3.550  0.7900 -0.4168 -1.1748
   56c3c     HC  207   3.282   3.743   3.584  0.3990  0.0798 -1.0657
   56c3c     HC  208   3.136   3.739   3.479 -0.4110 -0.9058 -0.5399
   56c3c     CT  209   3.252   3.558   3.480 -0.0213  0.0788 -1.6639
   56c3c     HC  210   3.327   3.584   3.406 -0.7740  0.6662 -2.2191
   56c3c     HC  211   3.177   3.503   3.423  0.5160 -0.3961 -1.9132
   56c3c     HC  212   3.302   3.482   3.541 -0.8023 -0.7751 -2.0821
   57c3c     N4  213   2.355   2.320   3.349  0.0345 -0.5756  0.4060
   57c3c     C1  214   2.437   2.422   3.417  0.0974  1.3094  0.3404
   57c3c     C1  215   2.236   2.393   3.303 -0.3030 -0.5089 -0.4129
   57c3c     C2  216   2.421   2.544   3.331  0.1691 -0.0328  0.1633
   57c3c     C2  217   2.285   2.534   3.270 -0.3266  0.5789 -0.4053
   57c3c     C1  218   2.437   2.270   3.232  0.1499 -0.4995 -0.2465
   57c3c     C1  219   2.333   2.200   3.432  0.0382  0.2576  0.0194
   57c3c     H1  220   2.539   2.384   3.420 -0.5597 -0.6484 -1.0739
   57c3c     H1  221   2.406   2.445   3.519 -1.1343 -2.6651  0.9290
   57c3c     H1  222   2.174   2.352   3.224 -0.1669 -2.6273  0.5335
   57c3c     H1  223   2.177   2.392   3.395  1.1823  0.1551  0.5716
   57c3c     HC  224   2.492   2.548   3.248 -0.5083  1.3541 -0.3588
   57c3c     HC  225   2.427   2.641   3.380 -1.1187  0.4282 -0.5654
   57c3c     HC  226   2.301   2.554   3.164  2.3200 -1.1009 -0.3607
   57c3c     HC  227   2.220   2.613   3.307 -0.3088  0.0011  0.8635
   57c3c     H1  228   2.531   2.231   3.272  0.4246 -0.6115 -0.9909
   57c3c     H1  229   2.386   2.188   3.182 -1.4354 -0.6360  1.5454
   57c3c     H1  230   2.458   2.349   3.159  2.5059 -0.2785  0.6396
   57c3c     H1  231   2.261   2.133   3.384  1.8605 -0.9856 -1.0181
   57c3c     H1  232   2.425   2.143   3.437  0.0458  0.3485  0.9661
   57c3c     C2  233   2.268   2.222   3.581 -0.2806 -0.6956  0.2585
   57c3c     HC  234   2.170   2.268   3.575 -0.3016 -1.0232 -2.7500
   57c3c     HC  235   2.331   2.283   3.647  0.8546 -2.7237  1.1081
   57c3c     CT  236   2.273   2.094   3.673  0.2223 -0.4020 -0.4584
   57c3c     HC  237   2.372   2.071   3.712  0.5127 -0.9875 -1.5091
   57c3c     HC  238   2.249   2.006   3.613  0.6999  0.0948 -1.3915
   57c3c     HC  239   2.201   2.106   3.754  0.8775  0.6698 -0.0300
   58c3c     N4  240   3.406   3.225   4.162 -0.0527  0.2289  0.3377
   58c3c     C1  241   3.445   3.285   4.029 -0.5141 -0.5668  0.0250
   58c3c     C1  242   3.487   3.308   4.244  0.0164 -0.1484 -0.2202
   58c3c     C2  243   3.434   3.444   4.047 -0.2524  0.0224 -0.1435
   58c3c     C2  244   3.470   3.452   4.195  0.4898 -0.0557  0.2649
   58c3c     C1  245   3.267   3.247   4.193 -0.1407  0.0598 -0.1841
   58c3c     C1  246   3.438   3.074   4.178 -0.3541  0.3001 -0.2340
   58c3c     H1  247   3.389   3.245   3.945 -0.9278  0.9590 -0.4512
   58c3c     H1  248   3.543   3.256   3.989 -0.6678  0.2484 -0.9683
   58c3c     H1  249   3.459   3.296   4.349  1.4578  0.6353  0.2694
   58c3c     H1  250   3.591   3.276   4.238  0.3340  0.9388 -0.6843
   58c3c     HC  251   3.341   3.490   4.016 -0.7542  1.2558  2.9573
   58c3c     HC  252   3.512   3.490   3.987  1.3206 -1.6494  0.5538
   58c3c     HC  253   3.383   3.505   4.233  1.1869  1.2550  0.0592
   58c3c     HC  254   3.564   3.507   4.208  0.1304  1.0158 -1.4611
   58c3c     H1  255   3.215   3.200   4.110 -2.1637 -1.2584  1.7362
   58c3c     H1  256   3.220   3.196   4.278 -1.7981 -0.7830 -1.5855
   58c3c     H1  257   3.231   3.349   4.198 -1.2664 -0.3629  0.7258
   58c3c     H1  258   3.410   3.044   4.279  0.9991  1.1188  0.3888
   58c3c     H1  259   3.368   3.026   4.109  0.0136 -1.3672  0.5094
   58c3c     C2  260   3.581   3.029   4.152  0.3099  0.9796 -0.2122
   58c3c     HC  261   3.653   3.058   4.228  1.7445 -0.6817 -0.9072
   58c3c     HC  262   3.629   3.068   4.062  1.4920 -1.8323 -0.8367
   58c3c     CT  263   3.581   2.877   4.142 -0.3178 -0.2294  0.3465
   58c3c     HC  264   3.680   2.838   4.166 -0.5526 -1.6566 -0.8937
   58c3c     HC  265   3.546   2.841   4.045  1.1534 -0.5083 -0.1028
   58c3c     HC  266   3.518   2.833   4.219 -1.0099  0.2785  0.0738
   59c3c     N4  267   4.771   5.385   4.317  0.4485  0.6457 -0.4668
   59c3c     C1  268   4.854   5.496   4.276 -0.4606 -0.0991 -0.4193
   59c3c     C1  269   4.642   5.409   4.253  0.0721 -0.6668  0.2128
   59c3c     C2  270   4.825   5.524   4.130 -0.5724  0.4492  0.1511
   59c3c     C2  271   4.672   5.489   4.122 -1.0299 -0.5702  0.3799
   59c3c     C1  272   4.812   5.253   4.264 -0.4972 -0.4232  0.1429
   59c3c     C1  273   4.772   5.371   4.463 -0.4336  0.1922 -0.4762
   59c3c     H1  274   4.962   5.488   4.295 -0.8392 -0.3667  1.7728
   59c3c     H1  275   4.814   5.591   4.312  2.7010  1.1080  0.1512
   59c3c     H1  276   4.582   5.319   4.244  1.7441 -1.8598  0.6928
   59c3c     H1  277   4.585   5.484   4.308 -0.3822 -0.4555 -0.5367
   59c3c     HC  278   4.886   5.460   4.066  0.0665  0.9521  0.2550
   59c3c     HC  279   4.854   5.623   4.095  1.6260  0.0076  0.6888
   59c3c     HC  280   4.657   5.443   4.024 -0.7620 -2.6714  1.3160
   59c3c     HC  281   4.603   5.573   4.120  0.6008  0.8061 -2.4385
   59c3c     H1  282   4.900   5.214   4.314 -0.7995 -2.4286 -0.8429
   59c3c     H1  283   4.739   5.174   4.283  1.2617 -2.2506 -0.4636
   59c3c     H1  284   4.832   5.253   4.157 -0.2965  0.3401  0.1826
   59c3c     H1  285   4.744   5.270   4.492  0.7534 -0.1343 -0.4443
   59c3c     H1  286   4.879   5.364   4.485 -0.6285  0.7587  0.6698
   59c3c     C2  287   4.703   5.469   4.561 -0.5713 -0.5831 -0.7180
   59c3c     HC  288   4.596   5.451   4.552 -0.6971 -1.0361  1.4728
   59c3c     HC  289   4.717   5.572   4.528 -0.8650  0.1247  1.3136
   59c3c     CT  290   4.734   5.436   4.710 -0.2941  0.2271  0.1230
   59c3c     HC  291   4.828   5.484   4.739 -1.6195  2.8380  0.2811
   59c3c     HC  292   4.744   5.332   4.740  3.8824  0.5895  0.3664
   59c3c     HC  293   4.654   5.478   4.771  0.4668  1.5870  0.2124
   60c3c     N4  294   2.888   2.023   3.659 -0.4083 -0.1529  0.8055
   60c3c     C1  295   2.908   1.917   3.760  0.1579 -1.2769  0.1758
   60c3c     C1  296   2.746   2.006   3.616 -0.3881  0.2243 -0.0678
   60c3c     C2  297   2.777   1.908   3.849  0.2207 -0.3682  0.0916
   60c3c     C2  298   2.669   1.964   3.749  0.7380 -0.4712  0.3757
   60c3c     C1  299   2.919   2.145   3.732  0.3986 -0.3359 -0.0103
   60c3c     C1  300   2.981   2.016   3.540 -0.5240 -0.2394  0.0032
   60c3c     H1  301   3.003   1.924   3.814  0.4683  0.1055 -0.5055
   60c3c     H1  302   2.917   1.817   3.718 -0.0556 -0.7312 -1.1789
   60c3c     H1  303   2.707   2.098   3.574 -1.7969  0.4984  1.7542
   60c3c     H1  304   2.719   1.937   3.536  1.1389  1.1474 -1.3943
   60c3c     HC  305   2.781   1.956   3.947 -3.8838 -1.1585  0.7504
   60c3c     HC  306   2.750   1.804   3.870 -2.5918  0.0682 -1.2159
   60c3c     HC  307   2.609   2.051   3.775  0.8412 -1.2989  3.4840
   60c3c     HC  308   2.619   1.875   3.712 -0.8879 -0.1546  1.7784
   60c3c     H1  309   3.018   2.143   3.776 -0.0554 -0.3288  1.0389
   60c3c     H1  310   2.919   2.231   3.665 -1.0976 -1.1148 -1.0517
   60c3c     H1  311   2.854   2.169   3.816 -1.7518 -3.6314 -0.6179
   60c3c     H1  312   2.965   2.093   3.465  1.8842  1.2443  0.9534
   60c3c     H1  313   3.081   2.047   3.569 -0.4521  0.0448 -0.5544
   60c3c     C2  314   2.988   1.887   3.463  0.0633  0.2926  0.0690
   60c3c     HC  315   2.885   1.870   3.433 -0.2017 -3.2679  2.6478
   60c3c     HC  316   3.010   1.805   3.532 -1.5900  0.0864  0.3672
   60c3c     CT  317   3.080   1.891   3.341  0.3817 -0.1462  0.7493
   60c3c     HC  318   3.129   1.795   3.326  0.9852  0.0458  1.4775
   60c3c     HC  319   3.172   1.947   3.360 -0.9571  1.5867  2.3182
   60c3c     HC  320   3.041   1.928   3.246  1.6338 -1.7187 -0.4095
   61c3c     N4  321   3.743   4.981   2.932 -0.5842 -0.5075 -0.3075
   61c3c     C1  322   3.604   4.941   2.898 -0.0105  0.3784 -0.4443
   61c3c     C1  323   3.763   5.111   2.861  0.0478 -0.6485 -0.7829
   61c3c     C2  324   3.522   5.078   2.904 -0.4095 -0.3070 -0.1620
   61c3c     C2  325   3.632   5.186   2.893  0.0542 -1.2632  0.3575
   61c3c     C1  326   3.767   5.003   3.076 -0.3157  1.3898  1.4471
   61c3c     C1  327   3.841   4.871   2.892  0.5520  0.0645 -0.3068
   61c3c     H1  328   3.564   4.856   2.952  1.8130  0.3198  0.8697
   61c3c     H1  329   3.593   4.909   2.794  2.3611 -0.3645 -0.5037
   61c3c     H1  330   3.852   5.164   2.893  1.1533 -1.0047 -3.2168
   61c3c     H1  331   3.764   5.107   2.753  1.9744  0.0058 -0.8001
   61c3c     HC  332   3.480   5.079   3.004 -1.2565 -2.5494 -0.4524
   61c3c     HC  333   3.445   5.076   2.827  0.5943 -0.6831 -1.1694
   61c3c     HC  334   3.637   5.243   2.986  0.3592 -3.3282  1.6590
   61c3c     HC  335   3.616   5.252   2.808  0.3737  0.2680  1.4784
   61c3c     H1  336   3.755   4.899   3.108 -0.1941  0.0892 -2.4643
   61c3c     H1  337   3.867   5.038   3.101  0.1586 -0.2793  1.9373
   61c3c     H1  338   3.698   5.066   3.132 -0.2034  2.4585  0.4215
   61c3c     H1  339   3.940   4.889   2.932 -0.1651 -0.1263  1.6339
   61c3c     H1  340   3.807   4.774   2.930 -1.2265 -0.4972 -3.1126
   61c3c     C2  341   3.864   4.853   2.739  0.0150  0.0311  0.4035
   61c3c     HC  342   3.899   4.943   2.689 -1.7243  0.5514  0.1156
   61c3c     HC  343   3.778   4.810   2.688  0.8234  0.4871 -1.4043
   61c3c     CT  344   3.979   4.754   2.716 -0.2824  0.2546 -0.7968
   61c3c     HC  345   4.071   4.791   2.760  0.7622 -0.8640 -2.0040
   61c3c     HC  346   3.999   4.740   2.610  0.0572  1.5501 -0.9171
   61c3c     HC  347   3.954   4.656   2.756  0.1853  0.2326 -0.5541
   62c3c     N4  348   3.969   3.415   3.523 -0.3615  0.1922 -0.1552
   62c3c     C1  349   3.822   3.428   3.523 -0.0301 -0.0447 -0.5299
   62c3c     C1  350   3.993   3.306   3.427 -0.8083 -0.0040 -0.2112
   62c3c     C2  351   3.780   3.397   3.372  0.0809  0.2050 -0.6516
   62c3c     C2  352   3.890   3.309   3.318 -0.0579 -0.0156 -0.2004
   62c3c     C1  353   4.023   3.539   3.463  0.8307 -0.4637  0.3511
   62c3c     C1  354   4.036   3.402   3.655  0.0604  0.2547  0.3032
   62c3c     H1  355   3.780   3.523   3.557  1.2608  1.0150 -1.7895
   62c3c     H1  356   3.785   3.346   3.584 -0.2030  0.0942 -0.4470
   62c3c     H1  357   4.098   3.300   3.402 -0.9177  0.4963 -0.7821
   62c3c     H1  358   3.991   3.207   3.473 -1.0883  0.7930  1.5460
   62c3c     HC  359   3.780   3.491   3.316 -0.1766 -0.8935 -2.5430
   62c3c     HC  360   3.679   3.360   3.361  0.3657 -0.3664 -1.3916
   62c3c     HC  361   3.937   3.349   3.228 -0.1968 -2.7869 -1.5393
   62c3c     HC  362   3.848   3.211   3.298 -0.9310 -0.1499  2.0953
   62c3c     H1  363   4.008   3.623   3.530  2.4593  1.7191 -1.9260
   62c3c     H1  364   4.129   3.527   3.441  0.8438  1.2117 -0.6103
   62c3c     H1  365   3.980   3.560   3.365  0.6685  0.4993  0.6194
   62c3c     H1  366   4.145   3.412   3.650 -0.0569  0.7385 -1.5684
   62c3c     H1  367   4.010   3.481   3.724 -0.6754  0.2670  0.0127
   62c3c     C2  368   4.008   3.265   3.727 -0.4169 -0.9095 -0.1376
   62c3c     HC  369   4.039   3.177   3.671 -1.0550 -0.2308 -1.5926
   62c3c     HC  370   3.901   3.243   3.726 -0.4233 -0.9112  0.4172
   62c3c     CT  371   4.070   3.243   3.867  0.1916 -0.3358 -0.5240
   62c3c     HC  372   4.042   3.319   3.940 -2.4167 -0.0035 -1.8192
   62c3c     HC  373   4.178   3.255   3.869 -0.0842  2.5241 -0.2544
   62c3c     HC  374   4.027   3.155   3.916  1.4939  0.0039  1.2963
   63c3c     N4  375   3.477   4.906   3.749  0.2281  0.2807  0.3612
   63c3c     C1  376   3.480   5.025   3.824 -0.1074 -0.6781 -0.4378
   63c3c     C1  377   3.559   4.930   3.629 -0.1721  0.4100 -0.3696
   63c3c     C2  378   3.513   5.142   3.731  1.0853  0.0848 -0.2738
   63c3c     C2  379   3.553   5.078   3.595  0.1296 -0.5638  0.1860
   63c3c     C1  380   3.544   4.796   3.821  0.6353  0.4278 -0.2144
   63c3c     C1  381   3.335   4.861   3.718 -0.7194 -0.8331  0.0121
   63c3c     H1  382   3.562   5.020   3.896 -0.8007  2.8975  0.7059
   63c3c     H1  383   3.393   5.042   3.886  0.5948  0.9979  0.1109
   63c3c     H1  384   3.662   4.901   3.651 -0.6225 -1.5088 -0.7268
   63c3c     H1  385   3.528   4.872   3.542  0.7724 -0.0377 -0.4174
   63c3c     HC  386   3.591   5.203   3.776  0.9531  0.0478  0.0079
   63c3c     HC  387   3.422   5.201   3.722 -1.3655 -3.6593 -1.1096
   63c3c     HC  388   3.651   5.114   3.564 -0.1078  0.5108  0.6698
   63c3c     HC  389   3.483   5.106   3.516  0.2618 -1.6713 -0.3350
   63c3c     H1  390   3.492   4.768   3.913  0.1623 -0.9250 -0.8795
   63c3c     H1  391   3.548   4.707   3.758 -0.5468 -0.1027  0.4471
   63c3c     H1  392   3.650   4.810   3.843  0.9956 -0.2064 -1.5097
   63c3c     H1  393   3.344   4.755   3.694 -0.6564 -0.8239 -0.0065
   63c3c     H1  394   3.267   4.857   3.804 -3.0443  0.7205 -1.6847
   63c3c     C2  395   3.254   4.947   3.613  0.3922 -0.3214 -0.3648
   63c3c     HC  396   3.302   4.936   3.516  1.0080  2.3170 -0.3962
   63c3c     HC  397   3.258   5.052   3.640 -0.6490 -0.9934  2.7002
   63c3c     CT  398   3.112   4.905   3.584 -0.1741 -0.2342  0.9235
   63c3c     HC  399   3.103   4.797   3.589  2.1397 -0.5653 -0.9103
   63c3c     HC  400   3.079   4.940   3.485  4.8498  0.9425 -0.4800
   63c3c     HC  401   3.042   4.953   3.652 -0.4093  1.0330 -0.1734
   64c3c     N4  402   3.392   4.146   2.414  0.1375 -0.0415 -0.6866
   64c3c     C1  403   3.445   4.127   2.276  0.0204 -0.3226 -0.2219
   64c3c     C1  404   3.506   4.207   2.480  0.1418 -0.4696 -0.0506
   64c3c     C2  405   3.515   4.259   2.238 -0.2593 -0.3449 -0.0160
   64c3c     C2  406   3.561   4.308   2.379  0.1021 -0.1866 -0.6566
   64c3c     C1  407   3.272   4.227   2.435 -0.3036 -0.8745 -0.3985
   64c3c     C1  408   3.364   4.014   2.472 -0.0981 -0.1303 -0.4152
   64c3c     H1  409   3.365   4.098   2.208 -1.0449  2.8320 -0.3789
   64c3c     H1  410   3.528   4.055   2.276  0.1678 -0.1606 -1.2860
   64c3c     H1  411   3.462   4.259   2.565 -0.2767 -1.5759  0.4078
   64c3c     H1  412   3.587   4.142   2.515 -0.1762  0.1771  1.9663
   64c3c     HC  413   3.442   4.333   2.206  0.7543  0.4681 -0.4795
   64c3c     HC  414   3.592   4.253   2.160 -0.8574 -1.9005 -0.5095
   64c3c     HC  415   3.512   4.404   2.396 -2.3641 -1.3266 -0.9757
   64c3c     HC  416   3.669   4.303   2.376  0.1333  0.3869 -0.4205
   64c3c     H1  417   3.199   4.192   2.362 -0.9933 -1.9868  0.8015
   64c3c     H1  418   3.235   4.230   2.538 -1.2869 -1.1902 -0.7392
   64c3c     H1  419   3.291   4.330   2.405  1.0638 -0.7360  0.8881
   64c3c     H1  420   3.328   4.022   2.574  1.3505 -0.6436  0.1566
   64c3c     H1  421   3.296   3.955   2.410 -1.7252  1.1222  0.1385
   64c3c     C2  422   3.482   3.911   2.485 -0.4110  0.0852 -0.7801
   64c3c     HC  423   3.575   3.949   2.526 -1.1014  1.0583 -0.1004
   64c3c     HC  424   3.506   3.870   2.387 -1.2175  0.2100 -1.0304
   64c3c     CT  425   3.438   3.792   2.571  0.0640  0.3062 -0.6103
   64c3c     HC  426   3.353   3.732   2.539 -0.7227 -0.1412  2.1972
   64c3c     HC  427   3.407   3.834   2.666  2.4282 -0.7501  0.6918
   64c3c     HC  428   3.525   3.729   2.591  1.3934  2.2027 -0.2323
   65c3c     N4  429   4.615   3.864   3.474 -0.6086 -0.5131 -0.3089
   65c3c     C1  430   4.603   3.938   3.599  0.4108 -0.0442 -0.5160
   65c3c     C1  431   4.692   3.746   3.515 -0.6679 -0.1436  0.0817
   65c3c     C2  432   4.598   3.836   3.715  0.1250  0.0205  0.2763
   65c3c     C2  433   4.654   3.705   3.660 -0.0276  0.3414 -0.0308
   65c3c     C1  434   4.475   3.828   3.426 -0.2766 -0.3185  0.3061
   65c3c     C1  435   4.682   3.950   3.369 -0.0744  0.1973 -0.3204
   65c3c     H1  436   4.516   4.003   3.592  0.1230 -0.5859 -2.0212
   65c3c     H1  437   4.685   4.009   3.614 -2.6521  3.8049 -1.3607
   65c3c     H1  438   4.681   3.663   3.446  0.9439 -0.0833 -0.2707
   65c3c     H1  439   4.798   3.773   3.521 -0.6683 -0.3743  1.3323
   65c3c     HC  440   4.492   3.826   3.736  0.1865  0.4880  0.8257
   65c3c     HC  441   4.651   3.866   3.806 -1.7866 -0.7387  1.6645
   65c3c     HC  442   4.571   3.636   3.675 -0.8218  1.6496  1.8068
   65c3c     HC  443   4.736   3.665   3.720 -3.0389 -1.1831  3.2905
   65c3c     H1  444   4.424   3.919   3.396 -2.0572 -2.0757 -2.2711
   65c3c     H1  445   4.494   3.772   3.334  0.2624 -0.7309  0.6635
   65c3c     H1  446   4.407   3.774   3.492 -3.9592 -0.1280 -3.1847
   65c3c     H1  447   4.693   3.885   3.282  0.7108  0.0475 -0.1169
   65c3c     H1  448   4.618   4.025   3.324 -0.7760  0.0084  0.3412
   65c3c     C2  449   4.812   4.023   3.400 -0.2957 -0.5315 -0.1873
   65c3c     HC  450   4.895   3.956   3.422 -0.1556  0.4199  2.2954
   65c3c     HC  451   4.804   4.088   3.487 -1.5284 -0.8280 -0.0713
   65c3c     CT  452   4.850   4.117   3.282  0.4732  0.6523  0.9251
   65c3c     HC  453   4.780   4.197   3.258  1.2394  1.9807  2.9830
   65c3c     HC  454   4.869   4.051   3.197  2.8648  1.6823  0.6211
   65c3c     HC  455   4.945   4.160   3.313  1.3777 -0.9717  0.4832
   66c3c     N4  456   5.857   3.391   3.539 -0.3809 -0.2917  0.0141
   66c3c     C1  457   5.970   3.308   3.580 -0.1846  0.5040 -0.1655
   66c3c     C1  458   5.756   3.294   3.494 -0.1674  0.0749 -1.0156
   66c3c     C2  459   5.904   3.178   3.645 -0.3868 -0.2564  0.1454
   66c3c     C2  460   5.760   3.190   3.600  0.3104  0.0109  0.1176
   66c3c     C1  461   5.814   3.471   3.659  0.5260  0.9237  0.4259
   66c3c     C1  462   5.886   3.490   3.433 -0.3997  0.2663 -0.1352
   66c3c     H1  463   6.042   3.354   3.647  0.2371 -1.1605  0.5485
   66c3c     H1  464   6.024   3.274   3.492  0.3315  0.5455  0.1381
   66c3c     H1  465   5.661   3.337   3.467 -0.7038 -0.4707 -0.0508
   66c3c     H1  466   5.791   3.250   3.401  2.0493 -1.7043  0.5643
   66c3c     HC  467   5.918   3.182   3.753  2.1668 -0.1077 -0.1677
   66c3c     HC  468   5.947   3.083   3.612  1.6905  0.6929  0.0434
   66c3c     HC  469   5.701   3.232   3.681  0.6661  0.0062  0.3807
   66c3c     HC  470   5.715   3.097   3.564  1.3836 -0.7326  0.6918
   66c3c     H1  471   5.877   3.559   3.668 -0.7402  1.7114  1.7631
   66c3c     H1  472   5.715   3.511   3.634  1.1866  2.4973  0.2795
   66c3c     H1  473   5.805   3.419   3.754  0.4572 -0.1588 -0.1593
   66c3c     H1  474   5.793   3.538   3.402  0.7162  2.0565 -0.8122
   66c3c     H1  475   5.948   3.571   3.471  1.6123 -0.8477 -0.9585
   66c3c     C2  476   5.950   3.440   3.297 -0.1920  0.3558 -0.2964
   66c3c     HC  477   5.900   3.360   3.243 -0.0800  0.7221 -0.9483
   66c3c     HC  478   6.051   3.405   3.319 -0.6449 -0.8599 -0.0856
   66c3c     CT  479   5.961   3.557   3.197 -0.9337  0.2826 -0.0968
   66c3c     HC  480   5.999   3.508   3.108 -0.1819  0.1081  0.3224
   66c3c     HC  481   6.027   3.636   3.231  0.7479 -0.7466 -0.8966
   66c3c     HC  482   5.866   3.605   3.174 -1.0455 -0.9601 -2.3792
   67c3c     N4  483   3.354   4.036   3.153  0.3592 -0.2265 -0.8024
   67c3c     C1  484   3.371   4.000   3.014  0.1684  0.1430  0.1590
   67c3c     C1  485   3.278   3.919   3.204  0.6443 -0.6392 -0.8832
   67c3c     C2  486   3.388   3.848   3.010  0.0138  0.0541  0.6476
   67c3c     C2  487   3.328   3.794   3.143  0.0820 -0.5911  0.4679
   67c3c     C1  488   3.487   4.039   3.226  0.1434  0.2530 -0.2080
   67c3c     C1  489   3.286   4.165   3.188 -0.3291 -0.6797  0.4737
   67c3c     H1  490   3.461   4.048   2.977 -1.1591  1.7683 -1.0672
   67c3c     H1  491   3.277   4.022   2.962 -0.0846  2.5190  1.5298
   67c3c     H1  492   3.289   3.916   3.312 -0.1696 -1.1402 -0.8101
   67c3c     H1  493   3.171   3.929   3.185  0.3869  0.5006  0.9907
   67c3c     HC  494   3.486   3.820   2.971 -0.2047  0.0293  0.1201
   67c3c     HC  495   3.322   3.805   2.935  0.3649  1.8840 -0.7383
   67c3c     HC  496   3.418   3.757   3.191  0.4737 -0.6749 -0.3116
   67c3c     HC  497   3.251   3.719   3.126 -0.1506 -0.0731 -0.8531
   67c3c     H1  498   3.551   4.119   3.189 -0.4659 -0.6428 -3.3594
   67c3c     H1  499   3.462   4.057   3.331  0.7624 -4.9564  0.9463
   67c3c     H1  500   3.534   3.942   3.233  0.1342  0.3299  0.9225
   67c3c     H1  501   3.264   4.175   3.294  0.2556 -2.2813  0.7621
   67c3c     H1  502   3.345   4.249   3.151 -0.8772 -0.8808 -0.9201
   67c3c     C2  503   3.144   4.193   3.121  0.0387 -0.5420 -0.5620
   67c3c     HC  504   3.080   4.105   3.119  1.9115 -2.0045  1.1740
   67c3c     HC  505   3.156   4.210   3.014 -1.0601 -0.5866 -0.7000
   67c3c     CT  506   3.064   4.309   3.182  0.3769 -0.5606 -0.0265
   67c3c     HC  507   3.119   4.403   3.175  1.4931 -1.2617 -0.7932
   67c3c     HC  508   3.045   4.304   3.290 -0.0557  2.4253  0.0707
   67c3c     HC  509   2.972   4.328   3.127 -0.0642 -0.8754  0.5897
   68c3c     N4  510   2.894   2.370   4.981 -0.1549 -0.5549 -0.0626
   68c3c     C1  511   2.824   2.411   4.860 -0.3130  0.0458 -0.2290
   68c3c     C1  512   2.947   2.496   5.037  0.1999 -0.4328 -0.6789
   68c3c     C2  513   2.774   2.558   4.877  0.2343  0.0068  0.0355
   68c3c     C2  514   2.827   2.596   5.011 -0.2548  0.3923  0.2183
   68c3c     C1  515   2.796   2.309   5.072  0.8714  0.1627 -0.5080
   68c3c     C1  516   2.998   2.265   4.956  0.8361 -0.1173 -0.8218
   68c3c     H1  517   2.750   2.335   4.836 -0.4937  0.3694 -0.7085
   68c3c     H1  518   2.893   2.417   4.776 -0.6403 -1.5295 -0.6302
   68c3c     H1  519   2.980   2.498   5.140  1.3770 -1.0307 -1.0295
   68c3c     H1  520   3.029   2.530   4.974  1.4591 -0.4660  0.9363
   68c3c     HC  521   2.666   2.569   4.878  0.3072  0.7795  0.1899
   68c3c     HC  522   2.813   2.623   4.799  1.2386  1.4066  1.6484
   68c3c     HC  523   2.761   2.584   5.097  1.1744  1.0615  1.4485
   68c3c     HC  524   2.871   2.695   5.008  1.7637 -0.4614  0.5471
   68c3c     H1  525   2.751   2.218   5.032 -1.5627  0.5367  1.2809
   68c3c     H1  526   2.836   2.279   5.169  0.5434  1.4805  0.0523
   68c3c     H1  527   2.710   2.371   5.098  0.3716 -0.5425 -0.4509
   68c3c     H1  528   3.032   2.235   5.056  2.3400 -0.4489 -1.4245
   68c3c     H1  529   2.953   2.177   4.912  0.2036  0.0851 -0.5895
   68c3c     C2  530   3.126   2.305   4.877  0.0637  0.2055 -0.8194
   68c3c     HC  531   3.171   2.400   4.905  2.2293 -1.3521  1.1876
   68c3c     HC  532   3.096   2.327   4.775 -2.9825 -0.0840 -0.0208
   68c3c     CT  533   3.243   2.207   4.871  0.6689  0.0475  0.1213
   68c3c     HC  534   3.219   2.121   4.808  0.1303  1.6671 -1.9735
   68c3c     HC  535   3.264   2.166   4.969 -2.5525 -2.7179 -0.2400
   68c3c     HC  536   3.332   2.259   4.835  0.5425 -0.9042 -1.6262
   69c3c     N4  537   2.377   1.605   3.271  0.2118 -0.5167  0.7594
   69c3c     C1  538   2.299   1.734   3.263  0.0817 -0.1492 -0.3390
   69c3c     C1  539   2.508   1.650   3.311 -0.4808  0.0437 -0.1179
   69c3c     C2  540   2.349   1.806   3.383  0.1035 -0.7157  0.6267
   69c3c     C2  541   2.490   1.761   3.403 -0.6474  0.4079  1.1801
   69c3c     C1  542   2.330   1.517   3.378  0.1014 -0.2150  0.2471
   69c3c     C1  543   2.382   1.529   3.143  0.2720  0.2014 -0.2968
   69c3c     H1  544   2.192   1.714   3.258  0.0329  0.1284 -0.3738
   69c3c     H1  545   2.328   1.796   3.178  0.9439 -0.6435 -0.4130
   69c3c     H1  546   2.573   1.568   3.342  0.5572  0.9251  0.0955
   69c3c     H1  547   2.561   1.687   3.223  0.5179  2.1495  1.3371
   69c3c     HC  548   2.285   1.769   3.464  1.2409 -0.5898  1.5991
   69c3c     HC  549   2.347   1.915   3.375 -1.5849 -0.8054 -0.5154
   69c3c     HC  550   2.514   1.725   3.503  0.9638 -1.1397  0.2641
   69c3c     HC  551   2.557   1.839   3.367 -0.6172 -0.0877  0.1521
   69c3c     H1  552   2.228   1.491   3.348  0.2714  1.9133 -2.3440
   69c3c     H1  553   2.386   1.427   3.404  2.8808  1.9350  1.9913
   69c3c     H1  554   2.327   1.570   3.472 -0.4343  1.9568 -0.9667
   69c3c     H1  555   2.429   1.430   3.144  0.6653  0.3950  1.5930
   69c3c     H1  556   2.279   1.507   3.117  0.7810 -0.8003 -1.5710
   69c3c     C2  557   2.445   1.594   3.014  0.1805 -0.1313 -0.1912
   69c3c     HC  558   2.553   1.601   3.020  0.1051  1.1416 -0.1086
   69c3c     HC  559   2.418   1.698   2.996  1.8820  0.4349  0.4738
   69c3c     CT  560   2.417   1.504   2.889 -0.2612  0.5738 -0.8196
   69c3c     HC  561   2.455   1.404   2.906 -1.5995  0.2283  0.1787
   69c3c     HC  562   2.469   1.535   2.798  0.3608  0.6340 -0.4417
   69c3c     HC  563   2.312   1.511   2.861 -0.0791  1.1945 -1.3648
   70c3c     N4  564   4.933   2.976   3.278  0.5562  0.1931 -0.1029
   70c3c     C1  565   4.858   2.871   3.211  0.2645  0.2157  0.3653
   70c3c     C1  566   5.037   2.908   3.350 -0.0272  0.3832 -0.2692
   70c3c     C2  567   4.962   2.763   3.175 -0.4183  0.1301  0.7252
   70c3c     C2  568   5.081   2.790   3.263 -0.1133  0.3495  0.2678
   70c3c     C1  569   4.996   3.060   3.179  0.1375  0.3384 -0.8441
   70c3c     C1  570   4.862   3.072   3.358 -0.0464  0.1335  0.0475
   70c3c     H1  571   4.803   2.910   3.125  0.7122  0.1703  0.0604
   70c3c     H1  572   4.784   2.824   3.277  1.0863 -1.4558  0.1175
   70c3c     H1  573   5.120   2.969   3.385 -0.0314  0.1395  0.1693
   70c3c     H1  574   5.006   2.855   3.441 -0.1016  2.6149  1.0365
   70c3c     HC  575   4.987   2.774   3.069  0.0282  3.5106  1.1102
   70c3c     HC  576   4.936   2.658   3.182  0.8849 -0.4840 -2.5089
   70c3c     HC  577   5.168   2.816   3.202  0.0299 -2.1788 -0.6703
   70c3c     HC  578   5.119   2.708   3.323  0.1580  1.5541  1.7534
   70c3c     H1  579   4.931   3.131   3.129 -0.3906  0.2470 -0.2903
   70c3c     H1  580   5.076   3.120   3.222 -1.4318  0.2774  2.2389
   70c3c     H1  581   5.050   3.008   3.099 -0.7003  0.2396 -1.3568
   70c3c     H1  582   4.929   3.154   3.385 -0.8604  0.8289 -0.0252
   70c3c     H1  583   4.777   3.102   3.296  0.5464 -2.8408 -2.3138
   70c3c     C2  584   4.795   3.015   3.491  0.6718  0.2998 -0.1176
   70c3c     HC  585   4.860   2.945   3.543  0.7962 -0.8810 -1.8094
   70c3c     HC  586   4.707   2.956   3.465  1.1263 -2.5412  4.3386
   70c3c     CT  587   4.747   3.121   3.593 -0.2253 -0.1820 -0.7327
   70c3c     HC  588   4.679   3.192   3.545  0.8522  1.4334  0.1068
   70c3c     HC  589   4.836   3.179   3.616 -2.0712  1.5635  2.2798
   70c3c     HC  590   4.705   3.086   3.687  0.1528  0.7435 -0.2141
   71c3c     N4  591   4.757   4.754   3.560  0.0634  0.1891 -0.6293
   71c3c     C1  592   4.744   4.736   3.414  0.7042 -0.6128  0.4591
   71c3c     C1  593   4.729   4.898   3.572 -0.1033  0.8214 -0.2471
   71c3c     C2  594   4.786   4.873   3.343 -0.8784  0.1163 -0.4820
   71c3c     C2  595   4.787   4.971   3.456  0.1252  0.8032 -0.1922
   71c3c     C1  596   4.659   4.671   3.629  0.2413  0.2496  0.5067
   71c3c     C1  597   4.883   4.704   3.613  0.7736 -0.0510  0.0801
   71c3c     H1  598   4.639   4.726   3.386  1.3398 -2.0006 -1.5723
   71c3c     H1  599   4.785   4.648   3.365 -0.5998  0.5263 -2.8940
   71c3c     H1  600   4.621   4.912   3.570  0.0478  1.9035 -0.8107
   71c3c     H1  601   4.765   4.934   3.668 -0.7670 -0.6319  0.5753
   71c3c     HC  602   4.724   4.893   3.256  0.7485 -2.5516 -2.3508
   71c3c     HC  603   4.889   4.867   3.306 -1.7380  1.4137 -3.2219
   71c3c     HC  604   4.722   5.056   3.435 -3.4294 -0.9944  3.0957
   71c3c     HC  605   4.888   5.012   3.468  1.1813 -1.2453 -1.7223
   71c3c     H1  606   4.684   4.566   3.615  0.8281  0.4622 -0.1241
   71c3c     H1  607   4.672   4.688   3.735  1.9491  0.0363  0.3457
   71c3c     H1  608   4.556   4.689   3.598  0.5303 -0.6344 -1.0214
   71c3c     H1  609   4.877   4.698   3.722  1.5837  0.0705  0.1312
   71c3c     H1  610   4.893   4.598   3.589 -0.3116 -0.1410 -0.0113
   71c3c     C2  611   5.012   4.775   3.591  0.2180  0.4253 -0.3860
   71c3c     HC  612   5.007   4.865   3.652 -0.5284  1.2103 -1.5826
   71c3c     HC  613   5.009   4.814   3.489  1.3652  3.4989  0.7042
   71c3c     CT  614   5.139   4.686   3.619 -0.4948  0.3735  0.0136
   71c3c     HC  615   5.139   4.583   3.582 -0.1326  0.6923 -0.9063
   71c3c     HC  616   5.160   4.667   3.724 -0.3473  0.0876 -0.0672
   71c3c     HC  617   5.227   4.737   3.581 -0.4581  1.2161  1.2075
   72c3c     N4  618   3.112   1.430   3.153 -0.0874 -0.0506  0.5651
   72c3c     C1  619   2.996   1.502   3.205 -0.3650  0.0425  0.0688
   72c3c     C1  620   3.087   1.439   3.010 -0.0348 -0.3354 -0.2227
   72c3c     C2  621   2.953   1.614   3.105  0.4377  0.3350  0.5599
   72c3c     C2  622   3.036   1.584   2.982 -0.1772  0.2059 -0.1708
   72c3c     C1  623   3.225   1.512   3.184 -1.1692 -0.6109 -0.2927
   72c3c     C1  624   3.142   1.295   3.200  0.0109  0.3787 -0.5482
   72c3c     H1  625   3.013   1.552   3.300 -0.4874 -0.1554  0.1954
   72c3c     H1  626   2.912   1.435   3.225  1.9098 -2.5687  1.3140
   72c3c     H1  627   3.174   1.418   2.947  0.8705 -0.0371  0.9305
   72c3c     H1  628   3.007   1.368   2.985  0.8656 -2.0981  1.7535
   72c3c     HC  629   2.960   1.712   3.152  3.5026  0.9850 -1.1576
   72c3c     HC  630   2.845   1.597   3.105  0.4574  0.1806  0.0778
   72c3c     HC  631   3.119   1.652   2.961  0.3108  0.7201  3.1929
   72c3c     HC  632   2.976   1.578   2.891  0.5475 -1.8219 -0.5439
   72c3c     H1  633   3.250   1.514   3.290 -0.6420 -0.0692 -0.4243
   72c3c     H1  634   3.312   1.486   3.124 -1.7085  0.6238 -1.6315
   72c3c     H1  635   3.216   1.619   3.166 -0.1424 -0.8845 -2.5947
   72c3c     H1  636   3.227   1.251   3.149 -1.2749  0.1050 -2.4779
   72c3c     H1  637   3.162   1.299   3.307 -0.3893  1.3355 -0.4990
   72c3c     C2  638   3.037   1.181   3.171  0.0179 -0.0844 -0.6337
   72c3c     HC  639   3.041   1.155   3.066  1.3858 -0.8287 -0.4054
   72c3c     HC  640   2.937   1.222   3.188  0.3172  1.7309 -3.0520
   72c3c     CT  641   3.059   1.052   3.254  0.2331 -0.8599 -0.4120
   72c3c     HC  642   3.162   1.015   3.254 -0.2293 -2.1905 -0.4769
   72c3c     HC  643   2.982   0.975   3.243  0.1485 -0.9557  0.7882
   72c3c     HC  644   3.044   1.071   3.360  0.3844 -1.2544 -0.3189
   73c3c     N4  645   1.749   3.628   2.777  0.3612  0.2945 -0.0374
   73c3c     C1  646   1.753   3.682   2.638 -0.3811  0.0141  0.4740
   73c3c     C1  647   1.605   3.609   2.798  0.8313  0.0180 -0.2650
   73c3c     C2  648   1.646   3.605   2.560  0.5056  0.2642  0.2804
   73c3c     C2  649   1.546   3.556   2.665  0.5414 -0.1435 -0.1115
   73c3c     C1  650   1.819   3.500   2.780  0.2657  0.0787  0.0696
   73c3c     C1  651   1.810   3.715   2.883 -0.0948  0.5470  0.3661
   73c3c     H1  652   1.850   3.683   2.588  0.6923  0.1588  2.5352
   73c3c     H1  653   1.718   3.785   2.638  2.6032  1.0724  0.2319
   73c3c     H1  654   1.582   3.525   2.863  1.3703 -0.5875 -0.8596
   73c3c     H1  655   1.555   3.703   2.825  2.1369  0.5897  0.2139
   73c3c     HC  656   1.700   3.523   2.514 -0.4687  0.1855 -0.7375
   73c3c     HC  657   1.610   3.655   2.470  0.4760  0.1188  0.2110
   73c3c     HC  658   1.532   3.448   2.672  0.9039 -0.2021 -0.2846
   73c3c     HC  659   1.450   3.604   2.648 -0.2708 -2.1357 -1.3310
   73c3c     H1  660   1.920   3.520   2.746  1.0198  0.6887  2.5165
   73c3c     H1  661   1.829   3.456   2.880 -2.0574 -0.8779 -0.0811
   73c3c     H1  662   1.788   3.427   2.706 -0.8360  1.3856 -0.7742
   73c3c     H1  663   1.817   3.670   2.983  1.5100 -0.8933 -0.3591
   73c3c     H1  664   1.914   3.722   2.851 -0.1237  1.9398  0.5324
   73c3c     C2  665   1.749   3.865   2.883 -0.3966 -0.4128 -0.0055
   73c3c     HC  666   1.643   3.874   2.907 -0.3093  0.6151  0.0048
   73c3c     HC  667   1.770   3.919   2.791  2.7138  0.1904  1.0003
   73c3c     CT  668   1.811   3.949   2.995 -0.0017 -0.7217 -0.7583
   73c3c     HC  669   1.920   3.952   3.006 -0.2409  0.3710  1.7721
   73c3c     HC  670   1.773   3.901   3.085  0.4307  0.7890  0.2446
   73c3c     HC  671   1.776   4.052   2.994  1.3061 -0.1742  2.3383
   74c3c     N4  672   4.164   3.490   2.757  0.2384 -0.2034  0.6064
   74c3c     C1  673   4.204   3.477   2.619  0.2613  0.2765  0.1203
   74c3c     C1  674   4.286   3.536   2.820 -0.0823 -0.1487 -0.1739
   74c3c     C2  675   4.289   3.601   2.588  0.0300 -0.3220  0.0981
   74c3c     C2  676   4.354   3.635   2.726 -0.1708  0.5790  0.3497
   74c3c     C1  677   4.058   3.592   2.767  0.2510  0.1075 -0.1356
   74c3c     C1  678   4.103   3.364   2.805 -0.2037 -0.1382  0.0329
   74c3c     H1  679   4.114   3.477   2.557  0.0337  1.6934  0.4169
   74c3c     H1  680   4.254   3.381   2.610 -0.3594 -0.1694  1.3111
   74c3c     H1  681   4.268   3.571   2.921 -2.1725 -0.6462 -0.3575
   74c3c     H1  682   4.349   3.448   2.835  0.6405  0.0605 -1.8802
   74c3c     HC  683   4.227   3.683   2.553 -0.3917 -1.3004 -1.4807
   74c3c     HC  684   4.365   3.574   2.515  1.0352 -0.2016  1.0966
   74c3c     HC  685   4.347   3.742   2.745  0.3836  0.4081  1.5737
   74c3c     HC  686   4.459   3.609   2.716 -0.0925  1.1923 -0.4094
   74c3c     H1  687   3.967   3.572   2.709  1.4609  0.0350 -2.0568
   74c3c     H1  688   4.013   3.598   2.866 -0.0661  1.4383 -0.3415
   74c3c     H1  689   4.094   3.693   2.745  0.8985 -0.0789  0.0659
   74c3c     H1  690   4.065   3.369   2.907  1.6815  1.2550  0.6960
   74c3c     H1  691   4.011   3.347   2.749 -0.4848 -0.6830  0.6516
   74c3c     C2  692   4.196   3.243   2.816  0.3612  0.5913  0.1059
   74c3c     HC  693   4.273   3.261   2.892 -0.1397 -0.4996  0.8832
   74c3c     HC  694   4.247   3.217   2.724 -0.3731  2.1545 -0.7620
   74c3c     CT  695   4.120   3.115   2.846  0.4789 -1.0177 -0.2691
   74c3c     HC  696   4.203   3.050   2.875  0.6782 -0.4734  0.3855
   74c3c     HC  697   4.063   3.081   2.759  0.2046 -1.4881  0.0951
   74c3c     HC  698   4.053   3.121   2.931  1.9658  0.2057  0.8385
   75c3c     N4  699   2.619   3.260   3.527 -0.3265 -0.2192 -0.0506
   75c3c     C1  700   2.544   3.369   3.459  0.2110 -0.7559 -0.3886
   75c3c     C1  701   2.739   3.252   3.449 -0.8824  0.4177  0.6596
   75c3c     C2  702   2.657   3.473   3.439  0.0021 -0.2655  0.5529
   75c3c     C2  703   2.786   3.395   3.440  0.7940  0.2600  0.4504
   75c3c     C1  704   2.645   3.286   3.670 -0.0559  0.2682  0.3717
   75c3c     C1  705   2.552   3.128   3.528 -0.5033 -0.1879 -0.4035
   75c3c     H1  706   2.461   3.403   3.521  1.8179 -2.1646  2.6433
   75c3c     H1  707   2.492   3.340   3.368 -0.6305  0.0994 -0.1911
   75c3c     H1  708   2.823   3.197   3.493 -1.7318  1.5690  3.8333
   75c3c     H1  709   2.726   3.212   3.348  2.0138 -1.0821  0.8206
   75c3c     HC  710   2.660   3.544   3.521 -0.2337 -1.4052  1.5504
   75c3c     HC  711   2.644   3.534   3.349 -0.6455 -1.1868  0.0138
   75c3c     HC  712   2.836   3.421   3.533  0.9844  2.5067 -0.2435
   75c3c     HC  713   2.853   3.404   3.355 -0.5449  1.9490 -0.4814
   75c3c     H1  714   2.551   3.298   3.724  0.8483  0.2087  2.0200
   75c3c     H1  715   2.696   3.201   3.717  1.2577  0.5556 -0.5092
   75c3c     H1  716   2.694   3.380   3.692 -0.7240  0.8566 -0.6313
   75c3c     H1  717   2.607   3.057   3.590 -0.7041  1.4205  1.6710
   75c3c     H1  718   2.455   3.135   3.577  0.4012 -3.1572  1.9416
   75c3c     C2  719   2.528   3.059   3.393  0.2337  0.6595  0.3064
   75c3c     HC  720   2.624   3.042   3.346  0.2280  0.3078  0.4209
   75c3c     HC  721   2.475   3.129   3.327 -1.5703 -0.7361  0.2198
   75c3c     CT  722   2.456   2.923   3.400  0.2542 -0.0269  0.2750
   75c3c     HC  723   2.521   2.864   3.464 -1.0686  0.1939  1.8638
   75c3c     HC  724   2.453   2.888   3.297 -0.6287  0.6833  0.0472
   75c3c     HC  725   2.356   2.914   3.444 -0.3772 -0.9653 -1.3136
   76c3c     N4  726   3.786   0.175   3.451  0.1281 -0.3897  0.3368
   76c3c     C1  727   3.657   0.248   3.447  0.3444 -0.9510  0.0308
   76c3c     C1  728   3.763   0.046   3.386 -0.3878  0.2568 -0.3902
   76c3c     C2  729   3.592   0.202   3.312  0.0620  0.3767  0.0435
   76c3c     C2  730   3.653   0.060   3.290  0.0597  0.9649 -0.1996
   76c3c     C1  731   3.889   0.253   3.364  0.4541 -0.0812  0.5934
   76c3c     C1  732   3.844   0.177   3.594 -0.6627  0.4793 -0.9738
   76c3c     H1  733   3.658   0.354   3.473  1.8756 -0.5340 -1.6329
   76c3c     H1  734   3.591   0.205   3.522  1.2467  1.2563  2.1669
   76c3c     H1  735   3.844  -0.011   3.340 -0.7704 -1.0244  0.4835
   76c3c     H1  736   3.717  -0.018   3.461  0.0799 -0.5334 -0.7699
   76c3c     HC  737   3.626   0.267   3.232 -0.2308 -1.4936 -1.6306
   76c3c     HC  738   3.484   0.208   3.294  0.2725  0.7271 -1.1498
   76c3c     HC  739   3.686   0.056   3.186 -0.6101 -1.6091 -0.3457
   76c3c     HC  740   3.575  -0.016   3.296 -0.1394  1.2410  0.9341
   76c3c     H1  741   3.897   0.356   3.399  0.3951 -0.2837  1.2109
   76c3c     H1  742   3.991   0.215   3.355 -0.3360 -2.2908  0.5627
   76c3c     H1  743   3.845   0.262   3.264  0.8998 -0.8161  0.3269
   76c3c     H1  744   3.939   0.127   3.583 -1.7999 -1.5200 -1.8986
   76c3c     H1  745   3.868   0.279   3.625 -0.5783 -0.0022  0.5673
   76c3c     C2  746   3.771   0.097   3.707  0.3266  0.6946  0.1437
   76c3c     HC  747   3.722   0.004   3.678  0.8035  1.4902 -3.5847
   76c3c     HC  748   3.684   0.156   3.735  0.4023  0.1133  1.6441
   76c3c     CT  749   3.856   0.088   3.833 -0.3686  0.6843 -0.4476
   76c3c     HC  750   3.943   0.024   3.827 -1.8008 -1.4649  0.9498
   76c3c     HC  751   3.795   0.054   3.917  0.4375  1.1393  0.3296
   76c3c     HC  752   3.885   0.190   3.860 -0.2542 -0.0890  2.5692
   77c3c     N4  753   3.224   5.769   3.195 -0.1910  0.0715 -0.4850
   77c3c     C1  754   3.161   5.849   3.092 -0.8207 -0.5400 -0.7554
   77c3c     C1  755   3.262   5.643   3.129  0.2734  0.3882  0.1877
   77c3c     C2  756   3.254   5.816   2.967  0.5453  0.6661  1.1527
   77c3c     C2  757   3.323   5.685   2.988 -0.7216 -0.0092  0.6121
   77c3c     C1  758   3.345   5.831   3.252 -0.5404  0.2733 -0.8597
   77c3c     C1  759   3.125   5.750   3.303  0.0465  0.2156  0.2096
   77c3c     H1  760   3.150   5.955   3.115  2.3387  0.6538 -4.2780
   77c3c     H1  761   3.061   5.823   3.056 -0.6439  1.8045 -3.0673
   77c3c     H1  762   3.334   5.581   3.182 -1.6093 -1.2728  0.8811
   77c3c     H1  763   3.176   5.577   3.116  0.4210  0.1726  0.2925
   77c3c     HC  764   3.319   5.903   2.963  0.6745  0.4911 -1.1088
   77c3c     HC  765   3.191   5.810   2.879  1.7795 -1.5597  0.3757
   77c3c     HC  766   3.431   5.696   2.979 -0.9560  0.8204 -1.5269
   77c3c     HC  767   3.298   5.615   2.908  2.8301  0.9083 -1.4364
   77c3c     H1  768   3.318   5.923   3.303 -0.6333  0.0903 -0.5826
   77c3c     H1  769   3.389   5.780   3.338  1.2540  2.5680 -0.3877
   77c3c     H1  770   3.425   5.857   3.183 -0.3215 -1.5708 -1.3417
   77c3c     H1  771   3.171   5.728   3.400 -2.2332 -2.4419  0.7535
   77c3c     H1  772   3.083   5.848   3.328  0.2793  0.7979 -1.6208
   77c3c     C2  773   3.009   5.657   3.279  0.1400  0.4646  0.3875
   77c3c     HC  774   3.036   5.555   3.252 -0.3297  0.4276  0.0581
   77c3c     HC  775   2.954   5.703   3.198  1.1813  0.1900 -0.4810
   77c3c     CT  776   2.935   5.655   3.416 -0.5550 -0.0857 -1.1088
   77c3c     HC  777   2.831   5.629   3.397 -1.2080 -0.0784  2.1992
   77c3c     HC  778   2.932   5.750   3.469  1.9336 -0.7670  0.3681
   77c3c     HC  779   2.977   5.586   3.489 -2.1903 -0.0429 -0.1173
   78c3c     N4  780   3.786   4.159   3.767 -1.1304  0.3098 -0.5455
   78c3c     C1  781   3.800   4.295   3.814  0.2720 -0.4301  0.0741
   78c3c     C1  782   3.684   4.109   3.856 -0.0758 -0.0816 -0.3720
   78c3c     C2  783   3.661   4.348   3.825  0.0020  0.5002  0.5423
   78c3c     C2  784   3.582   4.224   3.867  0.1439  0.7964 -0.0748
   78c3c     C1  785   3.765   4.161   3.619 -0.5941  0.4531 -0.1178
   78c3c     C1  786   3.918   4.092   3.782 -0.1195  0.5891 -0.1182
   78c3c     H1  787   3.865   4.343   3.740  0.5779  1.5305  1.5705
   78c3c     H1  788   3.853   4.302   3.908  0.8031 -0.6328 -0.2079
   78c3c     H1  789   3.636   4.017   3.821 -5.2234  1.8365  1.2594
   78c3c     H1  790   3.716   4.087   3.958  0.0762 -0.2048 -0.4452
   78c3c     HC  791   3.616   4.373   3.729  3.1377  0.4194 -1.0276
   78c3c     HC  792   3.654   4.430   3.896  0.4062  0.2207  0.9068
   78c3c     HC  793   3.496   4.203   3.804  0.2629  0.1764 -0.0269
   78c3c     HC  794   3.537   4.226   3.966  2.5462  1.6824  1.0455
   78c3c     H1  795   3.852   4.209   3.574 -0.3266  1.2485  1.1923
   78c3c     H1  796   3.759   4.061   3.577 -1.2179  1.1786 -1.8259
   78c3c     H1  797   3.668   4.197   3.582 -0.1086 -0.4561 -2.3559
   78c3c     H1  798   3.898   3.988   3.756 -1.4078  0.3420  1.7508
   78c3c     H1  799   3.980   4.127   3.700 -1.8789  0.2506 -1.6336
   78c3c     C2  800   3.996   4.086   3.917  0.3080 -0.3117 -0.2222
   78c3c     HC  801   3.933   4.058   4.001  0.4612  0.8963  0.3040
   78c3c     HC  802   4.033   4.181   3.955 -2.1721  0.8304 -0.5569
   78c3c     CT  803   4.117   3.996   3.912 -0.2300  0.5887  0.5744
   78c3c     HC  804   4.084   3.892   3.915  0.3723  0.3816  0.1371
   78c3c     HC  805   4.179   4.022   3.998 -0.7894  1.4913  0.7069
   78c3c     HC  806   4.179   3.999   3.823  0.1354 -1.0754  0.7448
   79c3c     N4  807   2.984   0.307   4.064  0.4694 -0.1180  0.2297
   79c3c     C1  808   3.027   0.192   3.985  0.1835 -0.1736  0.0588
   79c3c     C1  809   3.021   0.261   4.200  0.5083 -0.0785 -0.1811
   79c3c     C2  810   3.153   0.145   4.045 -0.2034 -0.9833  0.5966
   79c3c     C2  811   3.159   0.195   4.190  0.7260  0.1611 -0.3251
   79c3c     C1  812   3.058   0.430   4.029 -0.7835 -0.1820 -0.9056
   79c3c     C1  813   2.840   0.337   4.047  0.1159 -0.6654 -0.0165
   79c3c     H1  814   3.024   0.213   3.878 -1.4454  1.0998  0.3412
   79c3c     H1  815   2.967   0.101   3.993 -0.5827  0.4025  0.9089
   79c3c     H1  816   3.014   0.338   4.277 -0.4418 -0.3017 -0.0380
   79c3c     H1  817   2.951   0.186   4.237  0.4231  0.2977  0.4259
   79c3c     HC  818   3.227   0.194   3.982  0.6770 -1.1580  1.4851
   79c3c     HC  819   3.174   0.039   4.028  0.6045 -0.6711 -0.4143
   79c3c     HC  820   3.240   0.264   4.212  0.6277  1.3869 -3.5256
   79c3c     HC  821   3.179   0.112   4.257  0.5984  1.2529  1.0802
   79c3c     H1  822   3.042   0.454   3.924 -1.5498 -1.4128 -1.0716
   79c3c     H1  823   3.034   0.513   4.096  1.2659 -1.0488  1.0027
   79c3c     H1  824   3.165   0.412   4.043 -1.1547 -2.3803 -0.7975
   79c3c     H1  825   2.807   0.407   4.123 -3.3489 -2.6787  0.4093
   79c3c     H1  826   2.844   0.403   3.960  0.4149  0.1054  0.5704
   79c3c     C2  827   2.740   0.220   4.036  0.9023  0.3243  0.3135
   79c3c     HC  828   2.741   0.167   4.131  1.8154 -0.3407 -0.0493
   79c3c     HC  829   2.770   0.147   3.960 -2.2512 -1.9589  1.1912
   79c3c     CT  830   2.597   0.261   4.002 -0.8504  0.0708 -0.4254
   79c3c     HC  831   2.567   0.308   3.908 -3.0942  3.0936  1.6705
   79c3c     HC  832   2.568   0.332   4.080 -1.7676  1.1201 -1.6862
   79c3c     HC  833   2.541   0.170   4.021  1.3444 -1.6197 -1.8969
   80c3c     N4  834   3.467   1.239   3.978  0.2455 -0.5885  0.6070
   80c3c     C1  835   3.584   1.148   3.973 -0.5901 -0.5666 -0.5485
   80c3c     C1  836   3.514   1.367   3.920  0.3169  0.1735 -0.2617
   80c3c     C2  837   3.669   1.196   3.851 -0.6413 -0.1363  0.3866
   80c3c     C2  838   3.595   1.325   3.800 -0.6954 -0.0187  0.0038
   80c3c     C1  839   3.359   1.180   3.903  0.4572  0.1266 -0.8780
   80c3c     C1  840   3.408   1.249   4.115  0.0243  0.1611  0.0111
   80c3c     H1  841   3.543   1.047   3.965 -3.0585  0.1885  1.9661
   80c3c     H1  842   3.643   1.142   4.064 -0.7005 -0.6904 -0.4841
   80c3c     H1  843   3.438   1.440   3.894  0.2451  0.8070  1.6565
   80c3c     H1  844   3.576   1.413   3.997  1.0105 -1.6898  0.3342
   80c3c     HC  845   3.671   1.119   3.774 -1.0159 -0.2475  0.4837
   80c3c     HC  846   3.773   1.219   3.872 -0.2139  1.0571 -2.7370
   80c3c     HC  847   3.549   1.284   3.710 -0.3622  0.8255 -0.5558
   80c3c     HC  848   3.672   1.394   3.766 -0.2096 -0.8982 -0.7099
   80c3c     H1  849   3.322   1.087   3.947  0.9940 -0.8538 -2.4615
   80c3c     H1  850   3.274   1.245   3.882 -0.5051 -1.1970 -1.1217
   80c3c     H1  851   3.397   1.142   3.808  0.8851 -2.6428  0.3522
   80c3c     H1  852   3.306   1.287   4.103 -0.0673  0.4162  1.5505
   80c3c     H1  853   3.392   1.152   4.162  1.0063  0.6646  1.4257
   80c3c     C2  854   3.482   1.327   4.219  0.7304  0.4425 -1.0494
   80c3c     HC  855   3.502   1.431   4.195  1.5891 -0.1920 -3.2162
   80c3c     HC  856   3.580   1.281   4.234  0.2047 -0.4629 -0.3205
   80c3c     CT  857   3.413   1.330   4.357 -0.3874  0.3933  0.3320
   80c3c     HC  858   3.314   1.376   4.348 -0.3041  0.5085  0.0180
   80c3c     HC  859   3.464   1.388   4.433 -0.6483  2.0669 -0.7425
   80c3c     HC  860   3.398   1.234   4.407 -0.4613 -0.5532 -1.4611
   81c3c     N4  861   2.941   6.615   3.363 -0.6379 -0.3168  0.1604
   81c3c     C1  862   3.042   6.632   3.474  0.1829 -0.5104  0.2396
   81c3c     C1  863   3.019   6.660   3.242  0.1738 -0.5381  0.2382
   81c3c     C2  864   3.172   6.578   3.416 -0.3302  0.8500  0.3789
   81c3c     C2  865   3.166   6.613   3.264  0.3962 -0.1772 -0.1247
   81c3c     C1  866   2.918   6.467   3.355  0.2728 -0.0660 -0.0132
   81c3c     C1  867   2.822   6.697   3.376  0.5206 -0.5715  0.7043
   81c3c     H1  868   3.010   6.592   3.570 -1.5385  0.7574  0.2213
   81c3c     H1  869   3.047   6.740   3.486 -0.2713 -0.1890 -2.1801
   81c3c     H1  870   2.984   6.617   3.149 -1.0582 -0.2336  0.5552
   81c3c     H1  871   3.032   6.768   3.235 -0.1280 -0.5832 -1.0441
   81c3c     HC  872   3.193   6.473   3.436 -0.3033  0.5315 -1.2369
   81c3c     HC  873   3.247   6.629   3.476  1.1368 -0.5627 -0.2124
   81c3c     HC  874   3.194   6.529   3.201  1.0682 -0.6540  0.8147
   81c3c     HC  875   3.245   6.683   3.239  0.9310  0.1298  2.3308
   81c3c     H1  876   2.845   6.440   3.279  3.9535 -2.9891 -2.6786
   81c3c     H1  877   3.012   6.415   3.333  1.6886  1.7929  1.4431
   81c3c     H1  878   2.881   6.437   3.454 -0.1708 -0.7092 -0.3713
   81c3c     H1  879   2.752   6.682   3.295  2.6328  1.0050 -1.4783
   81c3c     H1  880   2.773   6.666   3.469  1.1681 -1.2474  0.8250
   81c3c     C2  881   2.822   6.848   3.385  0.1554 -0.4080  0.3435
   81c3c     HC  882   2.814   6.885   3.282  0.4839  1.6340  1.0259
   81c3c     HC  883   2.905   6.896   3.437  0.4379 -0.9375  0.3801
   81c3c     CT  884   2.698   6.905   3.459 -0.1421 -0.2016  0.3992
   81c3c     HC  885   2.697   6.895   3.568 -0.8482  0.1626  0.4314
   81c3c     HC  886   2.607   6.861   3.417 -0.7371 -0.1600  1.6128
   81c3c     HC  887   2.686   7.010   3.435  0.9933  0.2710  1.8463
   82c3c     N4  888   2.857   3.244   2.263  0.1112 -0.2330 -0.0895
   82c3c     C1  889   2.980   3.258   2.189  0.3704  0.2614 -0.3753
   82c3c     C1  890   2.780   3.157   2.171  0.0975 -0.3609 -0.7767
   82c3c     C2  891   3.005   3.121   2.123 -0.3240 -0.4756  0.0207
   82c3c     C2  892   2.875   3.042   2.139 -0.3216 -0.3427 -0.1572
   82c3c     C1  893   2.891   3.180   2.393 -0.3385  0.6717  0.0758
   82c3c     C1  894   2.795   3.378   2.294 -0.0588  0.0731 -0.1361
   82c3c     H1  895   3.063   3.288   2.253  0.4371  1.0968 -0.8601
   82c3c     H1  896   2.980   3.339   2.116  0.3117 -0.4015 -1.1178
   82c3c     H1  897   2.686   3.134   2.220  0.3574  2.5644  1.2732
   82c3c     H1  898   2.751   3.218   2.085  0.5453 -0.5040 -1.0320
   82c3c     HC  899   3.088   3.063   2.163  0.4876 -0.1142 -1.1079
   82c3c     HC  900   3.026   3.136   2.017 -0.4621 -0.6338 -0.0289
   82c3c     HC  901   2.880   2.972   2.223 -0.7327 -1.0119 -0.6841
   82c3c     HC  902   2.848   2.988   2.048  1.7040  0.8787 -1.5269
   82c3c     H1  903   2.934   3.256   2.458 -0.2115  0.1143  0.6426
   82c3c     H1  904   2.802   3.144   2.445  0.4982  0.0033  1.0648
   82c3c     H1  905   2.971   3.108   2.409 -0.4580  0.3791 -0.6126
   82c3c     H1  906   2.703   3.354   2.349  1.1524  0.1287  1.9690
   82c3c     H1  907   2.859   3.431   2.364  1.1073  0.7239 -1.6607
   82c3c     C2  908   2.773   3.468   2.176  0.5279  0.5315  0.2216
   82c3c     HC  909   2.683   3.430   2.127  1.3885 -1.5911  0.2113
   82c3c     HC  910   2.845   3.473   2.094  0.4095 -1.4347 -0.0368
   82c3c     CT  911   2.734   3.606   2.224 -0.1989 -0.6178  0.4575
   82c3c     HC  912   2.681   3.672   2.154  2.0041  1.8724  1.0597
   82c3c     HC  913   2.815   3.669   2.258 -1.8336  1.1098  1.2289
   82c3c     HC  914   2.664   3.594   2.307  0.1081  2.0105  1.1482
   83c3c     N4  915   2.685   2.896   4.346  0.1030  0.1163 -0.5158
   83c3c     C1  916   2.669   2.783   4.438  0.0223 -0.2531 -0.3169
   83c3c     C1  917   2.805   2.959   4.392  0.2589  0.2660  0.1917
   83c3c     C2  918   2.809   2.718   4.450  0.4640 -0.0464  0.4466
   83c3c     C2  919   2.899   2.838   4.410 -0.0302 -0.3444  0.3030
   83c3c     C1  920   2.707   2.855   4.205  0.0392  0.2222 -0.2287
   83c3c     C1  921   2.564   2.987   4.344 -0.6864  0.2870  0.1924
   83c3c     H1  922   2.590   2.712   4.409 -0.3752 -0.3622  1.0184
   83c3c     H1  923   2.642   2.814   4.539  0.8905 -0.1388 -0.1208
   83c3c     H1  924   2.844   3.033   4.322 -1.1525 -0.5520 -1.4732
   83c3c     H1  925   2.812   3.010   4.489  1.3366  1.7868 -0.6615
   83c3c     HC  926   2.822   2.639   4.376 -0.5472 -1.3689  1.6724
   83c3c     HC  927   2.830   2.679   4.549 -0.1592 -2.3020 -0.2931
   83c3c     HC  928   2.947   2.814   4.314 -0.4990 -1.4167  0.3286
   83c3c     HC  929   2.969   2.842   4.494  1.7002 -0.0268 -1.1094
   83c3c     H1  930   2.623   2.820   4.145  1.3723  0.7735 -2.4708
   83c3c     H1  931   2.741   2.935   4.140  0.3524  0.3877  0.1380
   83c3c     H1  932   2.788   2.782   4.206  0.2485  0.4677  0.6363
   83c3c     H1  933   2.574   3.062   4.265 -1.8646  0.2106 -0.0261
   83c3c     H1  934   2.479   2.921   4.326 -1.1289  1.1366 -0.8513
   83c3c     C2  935   2.544   3.067   4.470 -0.1814 -0.0123  0.2742
   83c3c     HC  936   2.621   3.136   4.503 -0.3001 -1.1000  2.9481
   83c3c     HC  937   2.537   2.999   4.554  0.4001 -0.5483 -0.1135
   83c3c     CT  938   2.406   3.128   4.476  0.3158 -0.0711  0.9230
   83c3c     HC  939   2.397   3.195   4.391  0.3502 -0.2658  0.7672
   83c3c     HC  940   2.384   3.181   4.569  0.7900 -1.4974  1.8693
   83c3c     HC  941   2.324   3.059   4.459  0.0775  0.3366  0.4190
   84c3c     N4  942   1.683   2.955   4.024  0.4684  0.9839  0.1672
   84c3c     C1  943   1.561   3.022   3.965  0.2583  0.0779  0.3468
   84c3c     C1  944   1.651   2.818   3.994 -0.0634  0.3211  0.5979
   84c3c     C2  945   1.540   2.954   3.828 -0.2481  0.6326 -0.1998
   84c3c     C2  946   1.575   2.807   3.857 -0.5632  0.4747 -1.6269
   84c3c     C1  947   1.806   2.983   3.948 -0.3420 -0.2435 -0.0962
   84c3c     C1  948   1.707   2.991   4.164 -0.6708  0.3274 -0.1230
   84c3c     H1  949   1.594   3.123   3.941  1.3735 -0.5185 -0.6920
   84c3c     H1  950   1.475   3.026   4.032 -1.2937 -3.5222 -1.2986
   84c3c     H1  951   1.739   2.755   4.011  0.3129 -0.1277 -2.5846
   84c3c     H1  952   1.581   2.775   4.065  0.4968  0.2242  1.1023
   84c3c     HC  953   1.598   3.003   3.750 -1.1355 -0.3054 -1.4631
   84c3c     HC  954   1.433   2.961   3.808 -0.1562 -1.5757 -1.6426
   84c3c     HC  955   1.647   2.767   3.785  0.7135 -0.8824  0.3452
   84c3c     HC  956   1.489   2.740   3.863 -0.6016  0.5912 -0.9047
   84c3c     H1  957   1.831   3.089   3.953  1.0431 -0.6354  2.0759
   84c3c     H1  958   1.896   2.942   3.994  1.7457  1.6158 -2.3831
   84c3c     H1  959   1.805   2.955   3.843  0.3095 -1.0250  0.0984
   84c3c     H1  960   1.783   2.920   4.196 -1.1390 -0.8390 -1.5307
   84c3c     H1  961   1.750   3.091   4.170 -1.4673  0.6136  1.0212
   84c3c     C2  962   1.584   2.986   4.264 -0.0983 -0.3090  0.5978
   84c3c     HC  963   1.516   2.906   4.236 -0.5390 -0.2270  1.4163
   84c3c     HC  964   1.519   3.072   4.249  0.0307 -0.2611  0.3076
   84c3c     CT  965   1.604   2.984   4.418  0.5519  0.4285  0.8245
   84c3c     HC  966   1.639   2.885   4.449  0.8629 -0.3088 -1.7449
   84c3c     HC  967   1.512   2.999   4.476 -1.3927  0.2953 -2.1422
   84c3c     HC  968   1.678   3.053   4.458  0.0091  0.9181  0.9974
   85c3c     N4  969   2.524   3.602   4.167  0.4134 -0.4759 -0.0842
   85c3c     C1  970   2.474   3.653   4.037  0.4220 -0.3598  0.1535
   85c3c     C1  971   2.434   3.655   4.272 -0.0746 -0.9700 -0.1160
   85c3c     C2  972   2.399   3.785   4.071 -0.2493 -0.3629  0.9309
   85c3c     C2  973   2.384   3.797   4.224  0.3599  0.2112  0.1081
   85c3c     C1  974   2.520   3.455   4.180 -0.1660  0.2635  0.8649
   85c3c     C1  975   2.663   3.648   4.195  0.4103 -0.9506 -0.2878
   85c3c     H1  976   2.401   3.586   3.991  0.0988  0.6943 -0.8792
   85c3c     H1  977   2.557   3.659   3.966 -1.0033  1.3257 -1.4249
   85c3c     H1  978   2.345   3.592   4.276 -1.1769  0.4850 -1.2719
   85c3c     H1  979   2.476   3.658   4.373  0.3594 -0.3904 -0.3088
   85c3c     HC  980   2.304   3.794   4.020 -0.4479  0.9091  1.5024
   85c3c     HC  981   2.459   3.865   4.027  1.1501 -0.9792  1.6679
   85c3c     HC  982   2.283   3.822   4.258  0.7472  0.8951  0.7419
   85c3c     HC  983   2.452   3.874   4.259  0.5849 -0.0163  0.1698
   85c3c     H1  984   2.579   3.411   4.099  0.3161 -1.0511  1.9159
   85c3c     H1  985   2.574   3.429   4.271  0.9236 -2.1138 -0.4223
   85c3c     H1  986   2.421   3.410   4.177 -1.0163  2.1277  0.5059
   85c3c     H1  987   2.691   3.624   4.298 -2.1567  1.2483  0.9733
   85c3c     H1  988   2.724   3.582   4.133  0.6235 -1.0481  0.0208
   85c3c     C2  989   2.703   3.794   4.198 -0.6548 -0.0840  0.6372
   85c3c     HC  990   2.662   3.840   4.288  1.4563 -2.9462  3.1307
   85c3c     HC  991   2.672   3.851   4.110  0.3223 -0.4597  0.0406
   85c3c     CT  992   2.855   3.809   4.205 -0.0240 -0.2686 -0.2091
   85c3c     HC  993   2.902   3.736   4.139  0.1414  2.4639 -3.2037
   85c3c     HC  994   2.893   3.789   4.306 -1.6530 -0.3949  0.4059
   85c3c     HC  995   2.875   3.914   4.185  1.7495 -0.7317 -0.8869
   86c3c     N4  996   3.513   2.139   3.148 -0.0959 -0.2546  0.3424
   86c3c     C1  997   3.453   2.037   3.057 -0.0955 -0.2535 -0.2059
   86c3c     C1  998   3.410   2.242   3.159  0.5321 -0.0489  0.1002
   86c3c     C2  999   3.303   2.029   3.113  0.4698  0.0823 -0.1798
   86c3c     C2 1000   3.274   2.173   3.155 -0.0573  0.4482 -0.4837
   86c3c     C1 1001   3.541   2.085   3.282  0.2015 -0.0102  0.4077
   86c3c     C1 1002   3.645   2.197   3.098  0.3450  0.6172 -0.4759
   86c3c     H1 1003   3.505   1.941   3.067  1.3452  0.4051 -1.2396
   86c3c     H1 1004   3.456   2.065   2.952 -2.0699 -1.2391 -0.5579
   86c3c     H1 1005   3.427   2.309   3.243  0.7092  0.1968 -0.1297
   86c3c     H1 1006   3.407   2.318   3.081 -1.4542 -1.4866 -1.2903
   86c3c     HC 1007   3.301   1.959   3.197 -2.4066  0.9549  0.5602
   86c3c     HC 1008   3.231   1.992   3.040  1.7433 -0.2657 -1.2781
   86c3c     HC 1009   3.215   2.163   3.246 -0.9692  0.3133 -1.0793
   86c3c     HC 1010   3.208   2.213   3.078  3.4968  2.9265 -2.3594
   86c3c     H1 1011   3.633   2.027   3.281 -0.5769 -1.2667  0.5424
   86c3c     H1 1012   3.568   2.156   3.361  0.0331  0.6487 -0.1178
   86c3c     H1 1013   3.460   2.030   3.329 -0.2904 -1.5282 -2.1339
   86c3c     H1 1014   3.674   2.268   3.175 -1.5267 -0.7563  1.5744
   86c3c     H1 1015   3.721   2.120   3.083  0.1003 -0.1411  2.0474
   86c3c     C2 1016   3.644   2.264   2.957 -0.3653 -0.0978  0.0248
   86c3c     HC 1017   3.580   2.352   2.958  0.6196  0.6228  1.3065
   86c3c     HC 1018   3.587   2.210   2.882  1.6909 -0.2000 -1.5053
   86c3c     CT 1019   3.773   2.327   2.908  0.2169  0.4252 -0.0241
   86c3c     HC 1020   3.752   2.422   2.859  3.9764  1.3215 -0.0808
   86c3c     HC 1021   3.814   2.254   2.838 -1.3417  1.1965 -1.7599
   86c3c     HC 1022   3.844   2.343   2.990 -0.2207  3.4775 -0.2093
   87c3c     N4 1023   2.271   2.704   5.168  0.0202  0.7310  0.0483
   87c3c     C1 1024   2.263   2.666   5.311 -0.4541 -0.1958  0.4539
   87c3c     C1 1025   2.232   2.846   5.165  0.0926 -0.2003  0.0758
   87c3c     C2 1026   2.320   2.794   5.386  0.0391 -0.3261  0.2089
   87c3c     C2 1027   2.309   2.904   5.286  0.2807 -0.2206  0.8452
   87c3c     C1 1028   2.399   2.679   5.108  0.2389 -0.0627  0.9012
   87c3c     C1 1029   2.177   2.609   5.092  0.4114 -0.5971  0.4452
   87c3c     H1 1030   2.321   2.576   5.330  1.0125  0.5047 -0.6444
   87c3c     H1 1031   2.161   2.651   5.346 -0.5697 -0.0223  0.1912
   87c3c     H1 1032   2.255   2.895   5.070 -0.5099 -2.0999 -1.0676
   87c3c     H1 1033   2.124   2.855   5.182 -0.3196  0.8811 -2.7616
   87c3c     HC 1034   2.422   2.784   5.425  0.3783 -4.2222 -1.5108
   87c3c     HC 1035   2.262   2.818   5.475 -1.9469 -2.4762 -0.4963
   87c3c     HC 1036   2.407   2.938   5.253 -0.5865  2.2348  0.6914
   87c3c     HC 1037   2.250   2.990   5.317  0.8633  0.7678 -0.7094
   87c3c     H1 1038   2.425   2.575   5.131  0.8643  0.3632  2.1525
   87c3c     H1 1039   2.404   2.685   4.999  1.4446 -1.1888  0.8880
   87c3c     H1 1040   2.477   2.741   5.151 -0.9017  0.1365  2.7228
   87c3c     H1 1041   2.176   2.643   4.989  2.2023  0.0366  0.6162
   87c3c     H1 1042   2.223   2.510   5.097 -0.2031 -0.7867  3.4561
   87c3c     C2 1043   2.029   2.588   5.138  0.5880 -0.1536 -0.4466
   87c3c     HC 1044   1.969   2.679   5.130 -0.5815 -0.8728  0.0339
   87c3c     HC 1045   2.015   2.552   5.239 -0.5598  1.1969 -0.1032
   87c3c     CT 1046   1.952   2.496   5.052  0.6447  0.2834  0.0787
   87c3c     HC 1047   1.844   2.508   5.061  0.6095  0.3330 -0.4083
   87c3c     HC 1048   1.977   2.394   5.081  3.8384  0.7890 -0.6623
   87c3c     HC 1049   1.983   2.504   4.948  0.0810  1.5175  0.0034
   88c3c     N4 1050   2.453   2.057   5.345  0.2989 -0.3876  0.1634
   88c3c     C1 1051   2.489   2.016   5.478  0.3930  0.4980 -0.0241
   88c3c     C1 1052   2.544   2.166   5.311  0.0654 -0.0595 -0.8872
   88c3c     C2 1053   2.643   2.021   5.473 -0.4856 -0.2771  0.5212
   88c3c     C2 1054   2.682   2.117   5.353  0.4255  0.4906 -0.0484
   88c3c     C1 1055   2.474   1.938   5.254 -0.8008 -0.6056 -0.1540
   88c3c     C1 1056   2.308   2.092   5.320  0.1851 -0.2582 -0.2590
   88c3c     H1 1057   2.445   1.920   5.507 -0.3524  1.2257  1.3021
   88c3c     H1 1058   2.454   2.093   5.547  0.1514  0.3041  0.0709
   88c3c     H1 1059   2.535   2.173   5.203  2.0138  0.6750 -1.0155
   88c3c     H1 1060   2.519   2.262   5.356  1.9653  0.4265 -0.8197
   88c3c     HC 1061   2.694   1.925   5.475  1.2303  0.5742 -0.5785
   88c3c     HC 1062   2.660   2.066   5.571 -2.4621 -0.5758  1.0229
   88c3c     HC 1063   2.715   2.068   5.261  0.0986 -3.4727  1.8077
   88c3c     HC 1064   2.746   2.195   5.395  2.5896  0.0881 -2.5100
   88c3c     H1 1065   2.407   1.857   5.283 -2.6829  0.8505 -0.3189
   88c3c     H1 1066   2.468   1.960   5.148 -0.4010 -0.2968 -0.1125
   88c3c     H1 1067   2.577   1.903   5.263  0.3750  2.7415  0.1649
   88c3c     H1 1068   2.282   2.094   5.215 -0.2091 -2.2707 -0.2287
   88c3c     H1 1069   2.245   2.012   5.358 -0.3565  0.2276 -0.1314
   88c3c     C2 1070   2.254   2.228   5.380 -0.4158 -0.3046  0.5456
   88c3c     HC 1071   2.304   2.315   5.338  0.0627 -0.2036  1.3173
   88c3c     HC 1072   2.280   2.235   5.486 -0.7296 -2.3030  0.7752
   88c3c     CT 1073   2.103   2.242   5.370 -0.3152 -0.0671 -0.4866
   88c3c     HC 1074   2.058   2.218   5.273 -0.4806 -0.0169 -0.4222
   88c3c     HC 1075   2.084   2.343   5.404  1.0184 -0.5287  1.7156
   88c3c     HC 1076   2.057   2.170   5.438 -0.7878  1.2179  0.5554
   89c3c     N4 1077   3.922   1.841   3.504 -0.7841 -0.1774 -0.1549
   89c3c     C1 1078   3.883   1.913   3.381 -0.0409 -0.6525  0.2543
   89c3c     C1 1079   4.065   1.863   3.523  0.1012  0.7111  0.1034
   89c3c     C2 1080   4.006   1.898   3.291 -0.7909  0.1444  0.1495
   89c3c     C2 1081   4.125   1.859   3.384  0.1902 -0.3440 -0.1648
   89c3c     C1 1082   3.862   1.902   3.623 -1.2086 -0.5856  0.0013
   89c3c     C1 1083   3.872   1.698   3.507  0.4078 -0.6422  0.2566
   89c3c     H1 1084   3.855   2.017   3.388 -0.2799 -0.7017  0.0400
   89c3c     H1 1085   3.790   1.880   3.334 -0.4287 -0.3912  0.8400
   89c3c     H1 1086   4.082   1.964   3.559  3.6402  0.0932  0.3271
   89c3c     H1 1087   4.114   1.791   3.589  0.0210  1.4726  1.0134
   89c3c     HC 1088   4.028   1.990   3.238 -0.3436 -0.6621 -1.0954
   89c3c     HC 1089   4.006   1.819   3.216  0.4301 -0.1678  0.4513
   89c3c     HC 1090   4.209   1.928   3.377 -1.4776  1.6879 -0.6820
   89c3c     HC 1091   4.164   1.763   3.351  1.2606  0.2485 -0.6296
   89c3c     H1 1092   3.758   1.871   3.624 -0.2688 -3.8954 -0.2369
   89c3c     H1 1093   3.897   1.876   3.722  0.5122 -0.5610 -0.5871
   89c3c     H1 1094   3.867   2.011   3.614  0.2477 -0.7738 -1.7566
   89c3c     H1 1095   3.883   1.649   3.604  0.9181 -0.8094  0.1186
   89c3c     H1 1096   3.764   1.691   3.500  0.6116 -1.2817 -3.0012
   89c3c     C2 1097   3.928   1.602   3.403 -0.4146 -0.0686  0.3153
   89c3c     HC 1098   4.035   1.587   3.416  0.1421  2.7306 -0.5491
   89c3c     HC 1099   3.921   1.637   3.300  3.1205 -0.0595  0.0271
   89c3c     CT 1100   3.871   1.460   3.417  0.5951  0.1057 -0.0680
   89c3c     HC 1101   3.765   1.453   3.394  0.6321  0.6022 -0.3959
   89c3c     HC 1102   3.891   1.420   3.516 -0.6257 -1.2486 -0.3442
   89c3c     HC 1103   3.916   1.394   3.343  1.6867 -1.2628  1.7616
   90c3c     N4 1104   0.995   2.766   3.124  0.5985 -0.0801 -0.4778
   90c3c     C1 1105   0.894   2.789   3.231 -0.0205 -0.4012  0.3512
   90c3c     C1 1106   1.121   2.775   3.198  0.3125 -0.0628  0.6643
   90c3c     C2 1107   0.946   2.734   3.366  0.4402  0.1087  0.9128
   90c3c     C2 1108   1.089   2.707   3.334  0.0693 -0.3238  0.9066
   90c3c     C1 1109   0.976   2.630   3.084 -0.1486 -0.0642  0.4189
   90c3c     C1 1110   0.989   2.853   3.005 -0.2587  0.1515 -0.2832
   90c3c     H1 1111   0.793   2.752   3.216 -1.0875  2.8974 -1.0756
   90c3c     H1 1112   0.892   2.897   3.243  0.8086 -0.3770  0.3289
   90c3c     H1 1113   1.212   2.738   3.151 -0.3422 -1.6880  0.6477
   90c3c     H1 1114   1.130   2.880   3.226  0.2818 -0.4340  2.0856
   90c3c     HC 1115   0.905   2.640   3.402  0.1406 -0.1881 -0.1695
   90c3c     HC 1116   0.939   2.814   3.440 -0.5828  0.5071  0.3991
   90c3c     HC 1117   1.099   2.599   3.330 -0.4978 -0.3592  0.3488
   90c3c     HC 1118   1.152   2.735   3.418 -0.2881  0.6400  0.8612
   90c3c     H1 1119   0.875   2.613   3.048 -0.0834  0.4213  0.0122
   90c3c     H1 1120   1.053   2.607   3.011  0.1645  0.3933  0.6022
   90c3c     H1 1121   0.994   2.549   3.155 -1.8133 -1.0724 -0.2883
   90c3c     H1 1122   1.060   2.812   2.932 -1.0118 -0.4395 -0.6923
   90c3c     H1 1123   0.889   2.839   2.964 -0.8153  1.5479  0.5643
   90c3c     C2 1124   1.026   3.007   3.021  0.1311  0.3060  0.0882
   90c3c     HC 1125   1.133   3.011   3.046  0.1883  1.4395 -0.3356
   90c3c     HC 1126   0.979   3.056   3.106  2.4603 -0.1161  1.7029
   90c3c     CT 1127   0.993   3.076   2.888 -0.4185 -0.1851  0.0198
   90c3c     HC 1128   1.007   3.184   2.889 -1.5085 -0.0344 -0.1546
   90c3c     HC 1129   0.891   3.054   2.855 -0.9111 -1.1402  2.0633
   90c3c     HC 1130   1.060   3.044   2.809 -0.8484 -1.2286  0.0631
   91c3c     N4 1131   5.363   3.370   2.897 -0.4207  0.2373  0.3966
   91c3c     C1 1132   5.387   3.498   2.825 -0.4631 -0.1418  0.4826
   91c3c     C1 1133   5.303   3.417   3.023 -0.1324  0.2878  0.5842
   91c3c     C2 1134   5.273   3.597   2.850  0.0515 -0.4147  0.0358
   91c3c     C2 1135   5.218   3.539   2.985  0.2197 -0.2699  0.6007
   91c3c     C1 1136   5.268   3.285   2.822 -0.7006  0.3658 -0.3867
   91c3c     C1 1137   5.480   3.277   2.906 -0.6261  0.4953  0.1417
   91c3c     H1 1138   5.397   3.477   2.718  2.5379 -0.1899  0.7180
   91c3c     H1 1139   5.479   3.538   2.867  0.3650 -1.5913  0.0837
   91c3c     H1 1140   5.247   3.351   3.088  1.1917 -2.0317 -0.5591
   91c3c     H1 1141   5.374   3.462   3.093  0.2063  0.0638  0.3867
   91c3c     HC 1142   5.203   3.587   2.767  2.3912  0.4362 -2.1196
   91c3c     HC 1143   5.306   3.700   2.863  2.0322 -0.7398 -2.0418
   91c3c     HC 1144   5.111   3.518   2.988  0.4436 -1.4371  0.8115
   91c3c     HC 1145   5.234   3.611   3.065 -0.0650 -1.2599  1.5515
   91c3c     H1 1146   5.310   3.256   2.726  3.0540 -1.2538  1.6668
   91c3c     H1 1147   5.240   3.194   2.876  2.7013 -0.1811  0.5766
   91c3c     H1 1148   5.184   3.344   2.785 -1.1241 -1.3617 -2.2439
   91c3c     H1 1149   5.449   3.185   2.955 -2.6671  2.1618  2.0833
   91c3c     H1 1150   5.527   3.257   2.810  1.5327  0.5082  1.1786
   91c3c     C2 1151   5.590   3.323   3.007 -0.0665 -0.0206  0.1754
   91c3c     HC 1152   5.546   3.316   3.106  0.0334 -2.1919  0.0806
   91c3c     HC 1153   5.616   3.429   2.999  0.1335  0.2309  3.6783
   91c3c     CT 1154   5.717   3.235   2.996  0.3726  0.8172  0.5372
   91c3c     HC 1155   5.799   3.274   3.057  0.9028  0.4226  0.0835
   91c3c     HC 1156   5.747   3.233   2.891 -1.5186  4.3452 -0.1515
   91c3c     HC 1157   5.700   3.139   3.044  1.6883  1.1649  1.7437
   92c3c     N4 1158   3.557   5.937   4.198  0.0665  0.0669  0.1712
   92c3c     C1 1159   3.664   5.901   4.283 -0.5529  0.4404 -0.0318
   92c3c     C1 1160   3.623   5.970   4.073  0.6129 -0.3373  0.0747
   92c3c     C2 1161   3.775   5.836   4.193  0.4422 -0.2079  0.4504
   92c3c     C2 1162   3.732   5.870   4.053  0.3831 -0.2246  0.0271
   92c3c     C1 1163   3.466   5.825   4.177  0.6710  0.5221 -0.1139
   92c3c     C1 1164   3.473   6.043   4.258  0.6522 -0.7495 -0.3462
   92c3c     H1 1165   3.640   5.834   4.366 -0.0309  0.1275 -0.1271
   92c3c     H1 1166   3.709   5.991   4.326  0.0631  0.2858 -0.3484
   92c3c     H1 1167   3.565   5.947   3.984 -0.5427  0.2911  0.6530
   92c3c     H1 1168   3.649   6.075   4.062  0.1093 -0.3987 -1.9696
   92c3c     HC 1169   3.773   5.731   4.220  0.4052 -0.2389  0.3255
   92c3c     HC 1170   3.877   5.871   4.209  1.6280 -3.5738  0.4722
   92c3c     HC 1171   3.703   5.779   4.000 -1.8867  0.8387 -0.6412
   92c3c     HC 1172   3.810   5.924   3.998 -1.0305  1.3663 -0.4944
   92c3c     H1 1173   3.413   5.802   4.270 -0.8248  1.3520 -0.7486
   92c3c     H1 1174   3.388   5.843   4.103  0.2777  1.9244  0.6068
   92c3c     H1 1175   3.510   5.733   4.140  1.4367  0.9290 -0.2410
   92c3c     H1 1176   3.387   6.065   4.195  1.9210 -1.7484 -2.5016
   92c3c     H1 1177   3.434   6.015   4.356 -0.8538  2.3624 -0.0132
   92c3c     C2 1178   3.538   6.186   4.282  0.7511 -0.6950  0.2004
   92c3c     HC 1179   3.567   6.222   4.183 -2.5503 -1.3733 -1.0581
   92c3c     HC 1180   3.621   6.194   4.352  0.5012 -1.4205  0.5745
   92c3c     CT 1181   3.429   6.286   4.329  0.0919  0.1203 -0.1036
   92c3c     HC 1182   3.344   6.280   4.261 -0.4169 -1.3968  0.6450
   92c3c     HC 1183   3.466   6.388   4.318 -1.5170  0.5158 -2.4326
   92c3c     HC 1184   3.395   6.262   4.429  0.3348 -0.5207 -0.1716
   93c3c     N4 1185   3.395   2.458   4.023 -0.0778 -0.1469  0.5681
   93c3c     C1 1186   3.382   2.340   3.934 -0.5295  1.0238  0.0685
   93c3c     C1 1187   3.418   2.567   3.931  0.6353  0.5443 -0.0180
   93c3c     C2 1188   3.314   2.384   3.811  0.2140  0.7601 -0.0648
   93c3c     C2 1189   3.336   2.532   3.803 -0.1002 -0.3581  0.2500
   93c3c     C1 1190   3.264   2.490   4.089 -0.3223  1.1288  0.1848
   93c3c     C1 1191   3.503   2.456   4.131 -0.4335  0.2678  0.5287
   93c3c     H1 1192   3.328   2.255   3.977  1.1936  0.6219  1.4886
   93c3c     H1 1193   3.483   2.313   3.903 -0.8427  0.3212 -0.3617
   93c3c     H1 1194   3.399   2.663   3.980 -3.5192 -1.8923  3.6404
   93c3c     H1 1195   3.524   2.566   3.910  0.7730  0.3619  0.6530
   93c3c     HC 1196   3.205   2.371   3.811  0.5169 -2.0774 -0.5072
   93c3c     HC 1197   3.356   2.333   3.725 -1.0288 -1.7551  0.7822
   93c3c     HC 1198   3.240   2.582   3.801 -0.4908 -1.1219 -2.9455
   93c3c     HC 1199   3.383   2.561   3.709 -0.2652 -1.8512 -0.3103
   93c3c     H1 1200   3.238   2.408   4.156  0.9643 -0.4031 -1.1519
   93c3c     H1 1201   3.253   2.585   4.142  0.4012  0.8391  0.8551
   93c3c     H1 1202   3.178   2.479   4.023 -0.8890  0.6258  1.0001
   93c3c     H1 1203   3.486   2.531   4.209  0.7398  0.1117  0.9428
   93c3c     H1 1204   3.504   2.366   4.192  0.8175  0.4644  0.8153
   93c3c     C2 1205   3.655   2.482   4.096  0.3563  0.4072 -0.8588
   93c3c     HC 1206   3.669   2.581   4.052  0.5867  1.4179  1.3749
   93c3c     HC 1207   3.697   2.403   4.034  2.2601  0.5256  0.2195
   93c3c     CT 1208   3.741   2.475   4.223  0.7389 -0.4079  0.0757
   93c3c     HC 1209   3.848   2.477   4.203  0.8650  0.2789  0.8012
   93c3c     HC 1210   3.713   2.378   4.266 -0.5377  0.3869  1.0700
   93c3c     HC 1211   3.714   2.552   4.295  0.5312 -0.1340 -0.2949
   94c3c     N4 1212   1.765   1.846   3.943 -0.1280 -0.3282 -0.1951
   94c3c     C1 1213   1.822   1.760   4.047  0.1575  0.1264  1.0021
   94c3c     C1 1214   1.803   1.786   3.814  0.4451 -0.8545  0.4273
   94c3c     C2 1215   1.815   1.620   3.993 -0.0141 -0.4664  0.2735
   94c3c     C2 1216   1.792   1.633   3.843  0.3934 -0.0463 -0.0435
   94c3c     C1 1217   1.623   1.843   3.953  0.2420  0.3615 -0.3144
   94c3c     C1 1218   1.807   1.988   3.952 -0.6636 -0.1523  0.2690
   94c3c     H1 1219   1.764   1.762   4.139 -1.8183  3.0343 -0.2345
   94c3c     H1 1220   1.926   1.777   4.075  0.0058 -0.5312  1.9800
   94c3c     H1 1221   1.744   1.831   3.734  0.5399  0.3891  1.0417
   94c3c     H1 1222   1.910   1.794   3.799  0.3925 -0.2628  0.3557
   94c3c     HC 1223   1.735   1.561   4.038 -1.4175  0.6668 -0.6793
   94c3c     HC 1224   1.918   1.594   4.017 -1.0102 -3.5671  1.5303
   94c3c     HC 1225   1.692   1.594   3.825 -0.8245  1.2967  3.4520
   94c3c     HC 1226   1.865   1.576   3.785 -1.9256 -4.0547  0.7323
   94c3c     H1 1227   1.594   1.865   4.055  2.3295 -0.6724  0.5266
   94c3c     H1 1228   1.581   1.917   3.884 -1.3096  1.2850  1.5883
   94c3c     H1 1229   1.584   1.748   3.914  0.6523  0.5532 -1.1998
   94c3c     H1 1230   1.762   2.041   3.868 -0.6719  0.4749  0.6615
   94c3c     H1 1231   1.766   2.041   4.039  1.8249  2.8507 -0.2896
   94c3c     C2 1232   1.949   2.026   3.957 -0.2236  0.3162 -0.3013
   94c3c     HC 1233   2.003   2.005   3.865  0.1514 -1.2382  0.2536
   94c3c     HC 1234   2.006   1.991   4.043  1.2593  0.7462 -1.0894
   94c3c     CT 1235   1.955   2.179   3.979 -0.5926 -0.8319 -0.1974
   94c3c     HC 1236   2.058   2.211   3.999 -0.9151 -0.1822  0.4739
   94c3c     HC 1237   1.889   2.213   4.059 -0.6330 -1.2358 -0.0572
   94c3c     HC 1238   1.920   2.232   3.891 -0.9701 -0.1386  0.3597
   95c3c     N4 1239   3.767   6.353   2.848 -0.7681  0.3674  0.4756
   95c3c     C1 1240   3.743   6.493   2.886 -0.3110  0.3557  0.5298
   95c3c     C1 1241   3.855   6.301   2.952  0.4374 -0.1347  0.0204
   95c3c     C2 1242   3.745   6.488   3.038 -0.4956  0.3663  0.1085
   95c3c     C2 1243   3.805   6.352   3.087  0.1084  0.2373  0.5512
   95c3c     C1 1244   3.640   6.279   2.848  0.4214 -0.2783 -0.5453
   95c3c     C1 1245   3.807   6.344   2.705  0.2206 -0.5044  0.3682
   95c3c     H1 1246   3.659   6.547   2.841 -0.8384  0.1376  1.2514
   95c3c     H1 1247   3.834   6.546   2.858  0.6615 -0.7565  1.5158
   95c3c     H1 1248   3.841   6.193   2.946  1.5408 -0.2087 -1.7621
   95c3c     H1 1249   3.959   6.334   2.945 -0.0996  1.5891 -0.0007
   95c3c     HC 1250   3.641   6.483   3.070 -1.1318  1.2502 -1.7489
   95c3c     HC 1251   3.801   6.576   3.072  1.0843 -1.2362  1.8116
   95c3c     HC 1252   3.727   6.292   3.134  0.0638 -2.9381 -3.3043
   95c3c     HC 1253   3.889   6.366   3.155  1.0977 -0.4185 -0.5075
   95c3c     H1 1254   3.560   6.330   2.794  1.3438  1.2213 -0.5350
   95c3c     H1 1255   3.651   6.178   2.810 -0.1617 -0.9497  1.0142
   95c3c     H1 1256   3.596   6.275   2.947 -0.8270 -1.1261 -1.1251
   95c3c     H1 1257   3.813   6.239   2.677 -1.6373  0.1856 -2.7678
   95c3c     H1 1258   3.725   6.388   2.649 -0.9633  0.9493  3.1293
   95c3c     C2 1259   3.932   6.420   2.654 -0.2982  0.2207 -0.2458
   95c3c     HC 1260   4.018   6.410   2.720 -0.6918 -0.2797  0.1974
   95c3c     HC 1261   3.912   6.527   2.647 -1.8610 -0.0949 -0.8367
   95c3c     CT 1262   3.975   6.371   2.517  0.5220 -0.3866  0.7215
   95c3c     HC 1263   4.034   6.281   2.528  0.0702 -0.5035  2.3309
   95c3c     HC 1264   4.044   6.446   2.478 -1.0919  0.4095 -0.6744
   95c3c     HC 1265   3.888   6.356   2.453  0.1449 -1.9107  1.5736
   96c3c     N4 1266   0.753   3.451   3.133 -0.6508 -0.3652 -0.1383
   96c3c     C1 1267   0.664   3.451   3.247 -0.2087  0.3435 -0.2463
   96c3c     C1 1268   0.862   3.356   3.168  0.0274 -0.5013 -0.1670
   96c3c     C2 1269   0.759   3.460   3.369  0.1057  0.4122 -0.0653
   96c3c     C2 1270   0.879   3.386   3.317 -0.0184  0.1765  0.5974
   96c3c     C1 1271   0.679   3.390   3.018  0.3960 -0.3903 -0.6925
   96c3c     C1 1272   0.800   3.580   3.085 -0.3914  0.3367 -0.4622
   96c3c     H1 1273   0.615   3.354   3.254  0.3836 -0.1962 -2.9942
   96c3c     H1 1274   0.593   3.534   3.250 -0.5102  0.2636 -3.7251
   96c3c     H1 1275   0.838   3.251   3.148  1.8965 -1.3955  2.0299
   96c3c     H1 1276   0.955   3.363   3.112  0.1434  2.2260  0.3280
   96c3c     HC 1277   0.723   3.413   3.461  1.9618 -0.0471  0.4525
   96c3c     HC 1278   0.783   3.563   3.395  0.2033 -0.1727  2.2610
   96c3c     HC 1279   0.891   3.297   3.380 -0.9692 -1.6984 -1.7769
   96c3c     HC 1280   0.968   3.449   3.324 -0.3902  0.7794 -0.0890
   96c3c     H1 1281   0.587   3.447   3.000 -0.3258 -1.3997 -0.2821
   96c3c     H1 1282   0.739   3.384   2.927  1.0747 -0.6939 -0.2232
   96c3c     H1 1283   0.641   3.291   3.042 -0.7916  0.0735 -0.6081
   96c3c     H1 1284   0.855   3.547   2.997 -0.2770 -2.8637  0.7611
   96c3c     H1 1285   0.712   3.640   3.061  0.1298  0.7689 -1.3330
   96c3c     C2 1286   0.899   3.668   3.169 -0.4449  0.3506  0.3234
   96c3c     HC 1287   0.991   3.615   3.193 -0.4238  0.7160  1.0731
   96c3c     HC 1288   0.850   3.703   3.259  2.6610  0.9319  1.8496
   96c3c     CT 1289   0.952   3.791   3.090  0.1068  0.1474 -0.4964
   96c3c     HC 1290   1.013   3.839   3.166 -1.4170  0.1475  0.7571
   96c3c     HC 1291   0.873   3.855   3.050 -0.0492 -1.6989 -3.2986
   96c3c     HC 1292   1.011   3.752   3.007 -1.0698  1.1161 -1.8105
   97c3c     N4 1293   4.428   4.567   4.059 -0.1700  0.2525  0.2692
   97c3c     C1 1294   4.333   4.451   4.049 -0.3197 -0.9645 -0.4623
   97c3c     C1 1295   4.553   4.500   4.031  0.5836  0.3628  0.1137
   97c3c     C2 1296   4.380   4.373   3.923  0.0623 -0.1744 -0.1803
   97c3c     C2 1297   4.532   4.393   3.928  0.1436  0.1634 -0.0335
   97c3c     C1 1298   4.406   4.665   3.953  0.2677 -0.0212 -0.0820
   97c3c     C1 1299   4.434   4.645   4.190  0.1071 -0.1862 -0.2254
   97c3c     H1 1300   4.231   4.487   4.035 -0.4123 -0.6181  1.1052
   97c3c     H1 1301   4.341   4.394   4.141  0.9496 -0.4742 -0.2571
   97c3c     H1 1302   4.632   4.573   4.013  0.7884  0.3684  1.0328
   97c3c     H1 1303   4.590   4.444   4.117  1.6645  0.4611 -0.2822
   97c3c     HC 1304   4.348   4.420   3.830 -1.3694 -1.1996 -0.2231
   97c3c     HC 1305   4.353   4.267   3.919 -1.0574  0.1594 -2.3016
   97c3c     HC 1306   4.569   4.414   3.827 -0.7234  0.8106 -0.2209
   97c3c     HC 1307   4.590   4.307   3.962 -2.0626 -1.6671 -0.7817
   97c3c     H1 1308   4.306   4.704   3.969  0.4275 -0.1742  1.3588
   97c3c     H1 1309   4.475   4.750   3.963  0.2355 -0.2583  2.6070
   97c3c     H1 1310   4.425   4.637   3.850 -1.2076 -0.6440 -0.1862
   97c3c     H1 1311   4.496   4.731   4.169 -0.2506  0.0025 -0.5048
   97c3c     H1 1312   4.340   4.689   4.223 -0.1966 -0.3495 -0.8721
   97c3c     C2 1313   4.491   4.576   4.323  0.1924  0.1819  0.0757
   97c3c     HC 1314   4.595   4.545   4.315  0.2271  0.3225 -0.0329
   97c3c     HC 1315   4.445   4.482   4.352 -2.1081  0.7038 -1.6954
   97c3c     CT 1316   4.474   4.676   4.437  0.3019  0.2740  0.4458
   97c3c     HC 1317   4.544   4.759   4.429 -0.7066  1.1192  0.1234
   97c3c     HC 1318   4.512   4.627   4.526 -0.9060 -1.2893  0.1160
   97c3c     HC 1319   4.374   4.716   4.456  0.0848  0.6783 -1.4576
   98c3c     N4 1320   2.072   2.335   4.404 -0.1780  0.6865  0.7398
   98c3c     C1 1321   2.187   2.280   4.336 -0.0048 -0.4377  0.5056
   98c3c     C1 1322   2.127   2.364   4.535  0.7896  0.6345  0.5437
   98c3c     C2 1323   2.308   2.350   4.394  0.2882  0.1708 -0.1451
   98c3c     C2 1324   2.259   2.439   4.511  0.1965 -0.4802  0.3139
   98c3c     C1 1325   2.019   2.454   4.337  0.0417 -0.3316  0.0565
   98c3c     C1 1326   1.953   2.250   4.416 -0.0643  0.1816 -0.7693
   98c3c     H1 1327   2.192   2.288   4.227 -2.2213  0.6986  0.4683
   98c3c     H1 1328   2.208   2.173   4.343  2.4070 -0.1216 -1.1236
   98c3c     H1 1329   2.068   2.435   4.594 -0.6400 -1.3806  1.5732
   98c3c     H1 1330   2.146   2.273   4.592  0.2082  0.1921  0.0386
   98c3c     HC 1331   2.355   2.405   4.313  0.4199  1.0308  0.5107
   98c3c     HC 1332   2.372   2.264   4.413  0.4287  0.3565  0.2119
   98c3c     HC 1333   2.247   2.541   4.473  2.1469 -1.3030 -2.7038
   98c3c     HC 1334   2.336   2.447   4.588  0.5010 -0.3003 -0.0082
   98c3c     H1 1335   1.995   2.434   4.233  2.9828  2.4806 -1.2788
   98c3c     H1 1336   1.930   2.495   4.384  0.9778  1.6870  0.1343
   98c3c     H1 1337   2.093   2.534   4.337 -0.4696  0.3140  4.4344
   98c3c     H1 1338   1.891   2.302   4.488  1.3665  1.6498 -0.5773
   98c3c     H1 1339   1.895   2.243   4.324 -2.2356 -1.8888  0.6750
   98c3c     C2 1340   1.982   2.096   4.462  0.5162  0.1842  0.4749
   98c3c     HC 1341   2.031   2.095   4.559 -1.5190  2.6507  1.5803
   98c3c     HC 1342   2.047   2.047   4.389  0.8745 -0.6252  1.3253
   98c3c     CT 1343   1.854   2.009   4.485 -0.0576  0.1369 -0.0393
   98c3c     HC 1344   1.799   1.981   4.395 -0.6616 -0.2856  0.4516
   98c3c     HC 1345   1.782   2.061   4.548  1.6523  2.5046  0.0084
   98c3c     HC 1346   1.870   1.912   4.532  1.9090  0.2840 -0.3705
   99c3c     N4 1347   3.279   0.665   2.987 -0.0759  0.4012  0.0094
   99c3c     C1 1348   3.327   0.685   2.851 -0.5200 -0.2534  0.5855
   99c3c     C1 1349   3.371   0.559   3.039 -0.1149 -0.0667 -0.4155
   99c3c     C2 1350   3.403   0.558   2.798 -0.6404 -0.0433 -0.0286
   99c3c     C2 1351   3.412   0.466   2.925  0.1121 -0.0817 -0.6365
   99c3c     C1 1352   3.296   0.787   3.074 -0.1097 -0.1449  0.1273
   99c3c     C1 1353   3.139   0.616   2.995 -0.0876  0.2292 -0.4458
   99c3c     H1 1354   3.412   0.754   2.856 -1.0413  0.4716 -0.4221
   99c3c     H1 1355   3.256   0.732   2.784 -0.7506  0.1626  1.1133
   99c3c     H1 1356   3.466   0.600   3.074 -0.0577 -0.8500  0.3548
   99c3c     H1 1357   3.332   0.497   3.119 -0.7841  0.4017 -0.3716
   99c3c     HC 1358   3.499   0.588   2.756 -0.3642  0.8553  1.2111
   99c3c     HC 1359   3.336   0.513   2.724 -2.8285  0.2750  1.6958
   99c3c     HC 1360   3.512   0.427   2.947  0.6588  1.7481  0.2308
   99c3c     HC 1361   3.342   0.383   2.918  0.7876 -0.6942 -0.3563
   99c3c     H1 1362   3.240   0.876   3.046  0.8701  0.3856 -0.1704
   99c3c     H1 1363   3.266   0.757   3.175 -0.5374 -2.2799 -0.6266
   99c3c     H1 1364   3.401   0.813   3.087  0.3276 -1.9098  0.1652
   99c3c     H1 1365   3.122   0.583   3.097 -0.2149  1.0321 -0.2016
   99c3c     H1 1366   3.079   0.707   2.994 -0.0114  0.4321  3.7757
   99c3c     C2 1367   3.089   0.502   2.896  0.7670 -0.0102 -0.5996
   99c3c     HC 1368   3.139   0.406   2.905  1.6292  0.4173 -0.8295
   99c3c     HC 1369   3.107   0.530   2.792 -0.2052  0.5469 -0.6295
   99c3c     CT 1370   2.948   0.459   2.929 -0.4066  0.7827 -0.1655
   99c3c     HC 1371   2.906   0.377   2.871  0.1827  1.5298 -1.7005
   99c3c     HC 1372   2.880   0.543   2.913 -0.3148  0.5924 -1.6563
   99c3c     HC 1373   2.949   0.428   3.033 -0.9602 -2.0475 -0.9754
  100c3c     N4 1374   3.278   3.060   3.143  0.1152 -0.3931  0.0110
  100c3c     C1 1375   3.144   3.127   3.140  0.5537 -0.3401 -0.3274
  100c3c     C1 1376   3.368   3.175   3.155  0.0714 -0.5529 -0.2109
  100c3c     C2 1377   3.154   3.243   3.242 -0.3048 -0.3067 -0.1495
  100c3c     C2 1378   3.308   3.271   3.256 -0.5276  0.0822  0.2310
  100c3c     C1 1379   3.297   2.979   3.267 -0.1348  0.4541  0.4720
  100c3c     C1 1380   3.305   2.977   3.026  0.4208 -0.4947  0.9507
  100c3c     H1 1381   3.068   3.052   3.165 -0.6684  0.6760 -0.9511
  100c3c     H1 1382   3.112   3.168   3.044  2.6704 -2.1444 -1.8453
  100c3c     H1 1383   3.468   3.140   3.182  0.1888  1.1796  1.7082
  100c3c     H1 1384   3.372   3.229   3.060 -1.8281 -0.4245 -0.2308
  100c3c     HC 1385   3.112   3.214   3.338  1.5006  0.5732  0.9273
  100c3c     HC 1386   3.096   3.327   3.205  0.3272  0.0382 -0.3606
  100c3c     HC 1387   3.345   3.272   3.358 -2.1328  1.9074  0.8286
  100c3c     HC 1388   3.314   3.375   3.222  0.9847  0.0547  0.3621
  100c3c     H1 1389   3.224   2.899   3.273  0.1007  0.3068  1.5022
  100c3c     H1 1390   3.393   2.929   3.279 -0.2336  0.0662 -0.3443
  100c3c     H1 1391   3.280   3.026   3.364 -0.1756  1.0142  0.1906
  100c3c     H1 1392   3.395   2.918   3.041  0.4972 -0.9968 -1.3707
  100c3c     H1 1393   3.222   2.906   3.022 -0.8998  1.0596  0.2298
  100c3c     C2 1394   3.320   3.053   2.893  0.2981 -0.1835 -0.0851
  100c3c     HC 1395   3.417   3.101   2.890  0.5430 -0.6544  0.3268
  100c3c     HC 1396   3.243   3.128   2.875  0.8044  0.8400  1.9273
  100c3c     CT 1397   3.350   2.957   2.775 -0.4364 -0.3772 -0.6138
  100c3c     HC 1398   3.259   2.897   2.765 -0.1483 -1.0214  0.4416
  100c3c     HC 1399   3.440   2.899   2.795 -1.9133 -2.3999  0.4264
  100c3c     HC 1400   3.376   3.004   2.681 -1.5413  0.6882 -0.3899
  101fsi    FSI 1401   3.009   0.491   3.405  0.1079  0.0725  0.0332
  101fsi    SBT 1402   3.139   0.430   3.373  0.2482  0.3493 -0.1945
  101fsi    NBT 1403   3.157   0.322   3.486 -0.3111 -0.1338 -0.1395
  101fsi    OBT 1404   3.122   0.364   3.248  0.2746 -0.0926 -0.4712
  101fsi    OBT 1405   3.241   0.529   3.388 -0.0171  0.8465  0.5018
  101fsi    SBT 1406   3.259   0.322   3.605 -0.3077 -0.0454  0.0207
  101fsi    OBT 1407   3.390   0.370   3.577 -0.7082  0.3870  0.4110
  101fsi    OBT 1408   3.249   0.210   3.694 -0.1251 -0.1804  0.2880
  101fsi    FSI 1409   3.193   0.437   3.694 -0.0312 -0.0697 -0.4077
  102fsi    FSI 1410   1.834   3.495   3.523 -0.0894  0.1765  0.0400
  102fsi    SBT 1411   1.713   3.427   3.449 -0.2477  0.0686 -0.0094
  102fsi    NBT 1412   1.777   3.383   3.318  0.3374  0.7969 -0.1965
  102fsi    OBT 1413   1.682   3.315   3.531  0.2072  0.4202  0.7186
  102fsi    OBT 1414   1.615   3.529   3.443  0.5922 -0.2024 -0.4833
  102fsi    SBT 1415   1.809   3.470   3.192  0.3675 -0.2652 -0.1038
  102fsi    OBT 1416   1.692   3.485   3.109 -0.5024 -0.4919  0.7314
  102fsi    OBT 1417   1.929   3.438   3.121  0.0428  0.6541 -0.0515
  102fsi    FSI 1418   1.838   3.607   3.247 -0.0187 -0.6036  0.4578
  103fsi    FSI 1419   3.826   4.287   2.714 -0.3942  0.2232 -0.5140
  103fsi    SBT 1420   3.756   4.184   2.807 -0.0691  0.0819 -0.5084
  103fsi    NBT 1421   3.762   4.056   2.712 -0.0533  0.1434 -0.4149
  103fsi    OBT 1422   3.843   4.176   2.920  0.2135  0.0942 -0.4863
  103fsi    OBT 1423   3.624   4.237   2.830  0.2525  0.3807 -0.5980
  103fsi    SBT 1424   3.848   3.929   2.708  0.2075 -0.1172 -0.1960
  103fsi    OBT 1425   3.773   3.816   2.670 -0.0803 -0.1463  0.1844
  103fsi    OBT 1426   3.941   3.903   2.819 -0.1556 -0.1395  0.4209
  103fsi    FSI 1427   3.937   3.971   2.585  0.4795  0.2784 -0.1564
  104fsi    FSI 1428   3.036   6.382   3.041 -0.3444  0.4546  0.0681
  104fsi    SBT 1429   3.103   6.239   3.054  0.2519  0.1339  0.1220
  104fsi    NBT 1430   3.200   6.259   3.181 -0.1023  0.3674  0.4482
  104fsi    OBT 1431   2.996   6.150   3.087  0.3044 -0.5768 -0.4391
  104fsi    OBT 1432   3.173   6.215   2.927  0.0602 -0.4039  0.2698
  104fsi    SBT 1433   3.355   6.268   3.191 -0.1176 -0.1999 -0.0381
  104fsi    OBT 1434   3.429   6.145   3.148  0.8084  0.1677 -0.0588
  104fsi    OBT 1435   3.392   6.328   3.319  0.4142  0.3524 -0.8518
  104fsi    FSI 1436   3.401   6.366   3.076  1.0789  0.3706 -0.1974
  105fsi    FSI 1437   2.059   2.440   3.821  0.0092 -0.1658  0.4485
  105fsi    SBT 1438   2.100   2.564   3.911  0.0276  0.4761  0.1512
  105fsi    NBT 1439   2.227   2.627   3.837 -0.3943 -0.5145 -0.3790
  105fsi    OBT 1440   1.974   2.638   3.914 -0.4163  0.1647  0.0340
  105fsi    OBT 1441   2.147   2.501   4.030  0.1396  0.1151  0.5818
  105fsi    SBT 1442   2.239   2.684   3.694 -0.1703  0.2249  0.4795
  105fsi    OBT 1443   2.378   2.678   3.647 -0.5237  0.1054  0.2330
  105fsi    OBT 1444   2.173   2.808   3.672 -0.2400 -0.0289 -0.0570
  105fsi    FSI 1445   2.157   2.580   3.612 -0.0759  0.2547  0.4927
  106fsi    FSI 1446   2.091   3.390   3.469 -0.1760 -0.0417  0.3139
  106fsi    SBT 1447   2.129   3.253   3.403  0.3272  0.2546  0.0756
  106fsi    NBT 1448   1.995   3.174   3.424 -0.3547  0.2775  0.7324
  106fsi    OBT 1449   2.144   3.285   3.263 -0.4431  0.6096 -0.1572
  106fsi    OBT 1450   2.244   3.208   3.476  0.2680  0.2818  0.5186
  106fsi    SBT 1451   1.961   3.062   3.521  0.1373  0.1267 -0.1197
  106fsi    OBT 1452   1.825   3.031   3.505 -0.1288 -0.5048  0.3238
  106fsi    OBT 1453   2.008   3.082   3.659  0.8445 -0.4692  0.0543
  106fsi    FSI 1454   2.037   2.931   3.462 -0.2984  0.2609  0.3334
  107fsi    FSI 1455   3.902   4.879   3.822 -0.3882  0.5051  0.5642
  107fsi    SBT 1456   3.901   4.913   3.968 -0.2275  0.6199 -0.4198
  107fsi    NBT 1457   3.854   4.768   4.011  0.0884 -0.4332  0.0550
  107fsi    OBT 1458   4.038   4.943   4.002 -0.0812  0.2662  0.1224
  107fsi    OBT 1459   3.803   5.016   3.981 -0.3053 -0.4230 -0.3519
  107fsi    SBT 1460   3.921   4.630   4.000 -0.0043  0.0346 -0.3513
  107fsi    OBT 1461   3.966   4.592   3.868  0.5505  0.0951 -0.6337
  107fsi    OBT 1462   3.849   4.526   4.067 -0.5394 -1.1771  0.4926
  107fsi    FSI 1463   4.053   4.648   4.086  0.2128  0.6936  0.2138
  108fsi    FSI 1464   4.081   4.501   3.613  0.4261 -0.2655  0.1019
  108fsi    SBT 1465   4.204   4.505   3.518 -0.0140 -0.3647 -0.0832
  108fsi    NBT 1466   4.242   4.353   3.516 -0.5346  1.3070 -0.3212
  108fsi    OBT 1467   4.160   4.554   3.393 -0.2686 -0.3290  0.7900
  108fsi    OBT 1468   4.299   4.587   3.589 -0.2353  0.1000 -0.7932
  108fsi    SBT 1469   4.377   4.281   3.549 -0.2420 -0.0867 -0.1272
  108fsi    OBT 1470   4.488   4.361   3.593  0.2104  0.1195  0.1822
  108fsi    OBT 1471   4.416   4.182   3.456 -0.2434  0.6869  0.1857
  108fsi    FSI 1472   4.340   4.202   3.682 -0.0076  0.6036  0.0603
  109fsi    FSI 1473   1.596   2.154   3.090 -0.4674 -0.4203  0.1100
  109fsi    SBT 1474   1.571   2.278   3.180  0.0138  0.1274 -0.0116
  109fsi    NBT 1475   1.415   2.286   3.206  0.1311  0.5214  0.1579
  109fsi    OBT 1476   1.645   2.251   3.298  0.4100 -0.4823  0.4555
  109fsi    OBT 1477   1.625   2.382   3.099 -0.4992  0.2530  0.6491
  109fsi    SBT 1478   1.322   2.408   3.172 -0.0033  0.2969  0.0381
  109fsi    OBT 1479   1.382   2.535   3.163  0.1678 -0.0645 -0.1304
  109fsi    OBT 1480   1.206   2.394   3.253  0.5112 -0.2680 -0.0785
  109fsi    FSI 1481   1.267   2.373   3.032 -0.7723 -0.3019 -0.0657
  110fsi    FSI 1482   4.090   5.790   4.087  0.5706  0.5031 -0.3839
  110fsi    SBT 1483   4.090   5.655   4.000 -0.4558 -0.0714  0.1217
  110fsi    NBT 1484   3.958   5.661   3.919 -0.4604 -0.5391 -0.1102
  110fsi    OBT 1485   4.208   5.655   3.923  0.0545  0.3515  0.4466
  110fsi    OBT 1486   4.080   5.555   4.100  0.1032  0.0593  0.5225
  110fsi    SBT 1487   3.940   5.717   3.773  0.1361  0.3204 -0.0210
  110fsi    OBT 1488   4.014   5.836   3.744 -0.8689 -0.3169  0.0641
  110fsi    OBT 1489   3.804   5.714   3.738  0.3403  0.0158  0.1744
  110fsi    FSI 1490   4.012   5.608   3.688  0.2343  0.2009  0.4071
  111fsi    FSI 1491   2.568   1.510   3.609 -0.5139  0.2553 -0.4343
  111fsi    SBT 1492   2.723   1.526   3.644 -0.2163  0.5621 -0.0186
  111fsi    NBT 1493   2.771   1.378   3.625  0.5770  0.2414 -0.0136
  111fsi    OBT 1494   2.765   1.617   3.542 -0.1538 -0.0248 -0.3055
  111fsi    OBT 1495   2.721   1.568   3.783 -0.2163 -0.1260  0.3730
  111fsi    SBT 1496   2.752   1.280   3.507 -0.1792 -0.2130 -0.6481
  111fsi    OBT 1497   2.668   1.319   3.396 -0.2873 -0.3492 -0.3488
  111fsi    OBT 1498   2.733   1.149   3.561  0.1354  0.3701 -0.1300
  111fsi    FSI 1499   2.896   1.267   3.440 -0.1057 -0.0983  0.0153
  112fsi    FSI 1500   5.529   3.877   3.561 -0.1072 -0.1565  0.0794
  112fsi    SBT 1501   5.598   3.752   3.491 -0.0702  0.4395  0.6694
  112fsi    NBT 1502   5.591   3.806   3.344 -0.1822  0.2919 -0.0326
  112fsi    OBT 1503   5.732   3.755   3.544 -0.5482 -0.3090 -0.2127
  112fsi    OBT 1504   5.514   3.635   3.512  0.6113  0.4592  0.1155
  112fsi    SBT 1505   5.483   3.774   3.229  0.0503 -0.0752  0.1885
  112fsi    OBT 1506   5.374   3.683   3.263 -0.4101  0.0489  0.0302
  112fsi    OBT 1507   5.541   3.766   3.099  0.0038 -0.4670  0.3120
  112fsi    FSI 1508   5.415   3.916   3.230 -0.4078 -0.4048  0.3004
  113fsi    FSI 1509   1.781   2.444   4.116 -0.2763 -0.0110  0.3859
  113fsi    SBT 1510   1.640   2.450   4.189  0.3836 -0.6823  0.6517
  113fsi    NBT 1511   1.624   2.300   4.241 -0.1115 -0.4596 -0.0554
  113fsi    OBT 1512   1.655   2.550   4.294 -0.4782 -0.0724  0.0711
  113fsi    OBT 1513   1.550   2.488   4.079 -0.2918 -0.1707  0.8954
  113fsi    SBT 1514   1.548   2.178   4.174 -0.2013  0.0301  0.2108
  113fsi    OBT 1515   1.576   2.052   4.230  0.8986 -0.3021  0.1093
  113fsi    OBT 1516   1.555   2.190   4.034  0.2166  0.0182 -0.0129
  113fsi    FSI 1517   1.400   2.208   4.210  0.1543  0.1879 -0.2526
  114fsi    FSI 1518   6.431   3.535   3.693 -0.3379  0.1974  0.2511
  114fsi    SBT 1519   6.352   3.587   3.564 -0.2767  0.2199  0.0692
  114fsi    NBT 1520   6.431   3.524   3.443 -0.1334  0.0261  0.3575
  114fsi    OBT 1521   6.214   3.541   3.577 -0.4295 -0.0297 -0.1572
  114fsi    OBT 1522   6.378   3.731   3.566 -0.0618  0.6632  0.1054
  114fsi    SBT 1523   6.407   3.394   3.359 -0.1296 -0.2222  0.4389
  114fsi    OBT 1524   6.327   3.291   3.420 -0.0974 -0.6706  0.4996
  114fsi    OBT 1525   6.524   3.350   3.292 -0.3073 -0.1365 -0.3315
  114fsi    FSI 1526   6.318   3.439   3.247  0.3375 -0.4334  0.0856
  115fsi    FSI 1527   3.638   5.981   2.939 -0.0518 -0.3734 -0.1897
  115fsi    SBT 1528   3.729   5.854   2.906 -0.0676 -0.1276  0.2019
  115fsi    NBT 1529   3.871   5.901   2.949  0.3913  0.2929 -1.3036
  115fsi    OBT 1530   3.684   5.752   2.997 -0.1140  0.0677  0.0671
  115fsi    OBT 1531   3.712   5.842   2.767 -0.2456 -0.5180  0.2168
  115fsi    SBT 1532   3.994   5.948   2.871  0.7927  0.3359  0.4990
  115fsi    OBT 1533   4.091   6.014   2.952 -0.3948 -0.4392 -0.1625
  115fsi    OBT 1534   3.966   6.009   2.743 -0.3034 -0.2507 -0.0103
  115fsi    FSI 1535   4.057   5.816   2.828  0.1905  0.3212 -0.4583
  116fsi    FSI 1536   2.817   2.805   3.470  0.1525  0.3396  0.3248
  116fsi    SBT 1537   2.928   2.857   3.367  0.1993  0.0880 -0.1314
  116fsi    NBT 1538   2.903   2.756   3.244 -0.0616 -0.2525 -0.1894
  116fsi    OBT 1539   2.902   3.001   3.340  0.0867 -0.0863  0.3529
  116fsi    OBT 1540   3.048   2.820   3.445 -0.3601 -0.5819 -0.3436
  116fsi    SBT 1541   2.831   2.785   3.101 -0.2294 -0.2335  0.0637
  116fsi    OBT 1542   2.794   2.667   3.026  0.1471 -0.7883  0.1010
  116fsi    OBT 1543   2.894   2.889   3.025  0.1966  0.9434  0.2821
  116fsi    FSI 1544   2.692   2.852   3.146 -0.1203  0.1045  0.1341
  117fsi    FSI 1545   2.728   4.020   3.128  0.3434  0.6344  0.2921
  117fsi    SBT 1546   2.760   3.867   3.115 -0.0095  0.0326 -0.0690
  117fsi    NBT 1547   2.760   3.818   3.265 -0.7957 -0.3716 -0.0779
  117fsi    OBT 1548   2.642   3.825   3.047 -0.2900 -0.0261  0.1742
  117fsi    OBT 1549   2.887   3.857   3.055  0.3046 -0.1083  0.5607
  117fsi    SBT 1550   2.885   3.818   3.364  0.4718  0.0596 -0.2422
  117fsi    OBT 1551   2.847   3.793   3.501 -0.5794 -0.0207 -1.0317
  117fsi    OBT 1552   2.969   3.933   3.336  0.0408  0.0679 -0.4095
  117fsi    FSI 1553   2.972   3.703   3.316 -0.1265  0.4169  0.2007
  118fsi    FSI 1554   2.193   2.072   4.755 -0.2538  0.5522  0.2267
  118fsi    SBT 1555   2.268   2.049   4.892 -0.0167  0.1857  0.1185
  118fsi    NBT 1556   2.294   2.193   4.940 -0.2216  0.2842  0.3363
  118fsi    OBT 1557   2.167   1.978   4.962 -0.3936  0.3692  0.0314
  118fsi    OBT 1558   2.376   1.967   4.848  0.0318 -0.0345  0.0384
  118fsi    SBT 1559   2.420   2.285   4.923  0.0994  0.2964 -0.0882
  118fsi    OBT 1560   2.542   2.230   4.869  0.9396  0.1522  0.3203
  118fsi    OBT 1561   2.435   2.353   5.048  0.3518 -0.2819  0.1684
  118fsi    FSI 1562   2.379   2.397   4.814 -0.4746 -0.3822 -0.6211
  119fsi    FSI 1563   3.362   5.696   3.662  0.0249  0.3420 -0.5386
  119fsi    SBT 1564   3.352   5.543   3.613 -0.0960  0.0687  0.0736
  119fsi    NBT 1565   3.416   5.559   3.472  0.4847  0.2657 -0.0895
  119fsi    OBT 1566   3.431   5.468   3.710 -0.0036  0.3460  0.0851
  119fsi    OBT 1567   3.211   5.520   3.609  0.4230  0.1784 -0.4553
  119fsi    SBT 1568   3.564   5.521   3.421  0.3570 -0.2902  0.0556
  119fsi    OBT 1569   3.665   5.543   3.524 -0.9044  0.5172 -0.5217
  119fsi    OBT 1570   3.597   5.574   3.288 -0.5285 -0.0697 -0.4059
  119fsi    FSI 1571   3.553   5.365   3.402 -0.3136 -0.0331  0.8835
  120fsi    FSI 1572   3.994   5.754   3.464  0.4442 -0.3453 -0.1406
  120fsi    SBT 1573   3.980   5.898   3.394  0.3237  0.4662 -0.3790
  120fsi    NBT 1574   3.843   5.960   3.439  0.1399 -0.2478 -0.4137
  120fsi    OBT 1575   4.087   5.977   3.447  0.1566  0.1520 -0.0233
  120fsi    OBT 1576   3.995   5.869   3.255  0.2018  0.0277 -0.1262
  120fsi    SBT 1577   3.698   5.940   3.389 -0.3573 -0.0979  0.2197
  120fsi    OBT 1578   3.685   5.846   3.280  0.9556 -0.0933 -0.0359
  120fsi    OBT 1579   3.622   6.059   3.384 -0.5907 -0.1503 -0.4913
  120fsi    FSI 1580   3.636   5.859   3.510  0.0486  0.1373  0.4468
  121fsi    FSI 1581   4.898   5.283   3.354 -0.1834  0.4224 -0.9155
  121fsi    SBT 1582   4.761   5.366   3.348  0.0593 -0.1963 -0.0096
  121fsi    NBT 1583   4.743   5.417   3.498 -0.2426 -0.8996 -0.4647
  121fsi    OBT 1584   4.785   5.471   3.253 -0.2555 -0.0761  0.0387
  121fsi    OBT 1585   4.663   5.267   3.319  0.1311  0.2115 -0.0941
  121fsi    SBT 1586   4.658   5.356   3.614 -0.3350 -0.3085  0.2335
  121fsi    OBT 1587   4.527   5.317   3.572  0.1006  0.8562 -0.2430
  121fsi    OBT 1588   4.671   5.432   3.735  0.0278  0.2167  0.1812
  121fsi    FSI 1589   4.730   5.221   3.645 -0.3727 -0.0967 -0.9760
  122fsi    FSI 1590   3.999   4.772   3.520 -0.2675  0.2267  0.1007
  122fsi    SBT 1591   4.017   4.897   3.426  0.2701 -0.2030  0.4572
  122fsi    NBT 1592   4.172   4.905   3.420  0.1653  0.5293  0.2182
  122fsi    OBT 1593   3.963   4.847   3.302  0.0156  0.0675  0.2975
  122fsi    OBT 1594   3.943   5.002   3.492 -0.1710  0.0979  0.1226
  122fsi    SBT 1595   4.279   5.004   3.490 -0.0668  0.2900  0.6930
  122fsi    OBT 1596   4.231   5.138   3.500 -0.6304 -0.4059 -0.4963
  122fsi    OBT 1597   4.411   4.998   3.436  0.3301  1.1582 -0.0754
  122fsi    FSI 1598   4.284   4.950   3.640  0.0410  0.2435 -0.0781
  123fsi    FSI 1599   3.133   1.699   3.775 -0.2757  0.0865 -0.8709
  123fsi    SBT 1600   3.149   1.561   3.850 -0.2260 -0.0124 -0.0736
  123fsi    NBT 1601   3.238   1.477   3.751 -0.7252 -0.2676  0.0533
  123fsi    OBT 1602   3.211   1.593   3.976 -0.2067  0.2652 -0.5868
  123fsi    OBT 1603   3.016   1.511   3.863  0.0352  0.5890 -0.8469
  123fsi    SBT 1604   3.190   1.397   3.621 -0.0759  0.3544 -0.3058
  123fsi    OBT 1605   3.300   1.337   3.549 -0.1392 -0.0626 -0.1776
  123fsi    OBT 1606   3.083   1.461   3.543 -0.0091  0.0436 -0.3830
  123fsi    FSI 1607   3.115   1.274   3.682 -0.2431  0.2153  0.2412
  124fsi    FSI 1608   3.491   0.073   3.952 -0.3865 -0.3900  0.5902
  124fsi    SBT 1609   3.485  -0.087   3.960  0.3001 -0.5649 -0.1047
  124fsi    NBT 1610   3.522  -0.130   3.818  0.3319  1.0027 -0.0283
  124fsi    OBT 1611   3.583  -0.129   4.062  0.2926  0.3476 -0.8574
  124fsi    OBT 1612   3.348  -0.115   3.990 -0.4168  0.0337  0.6898
  124fsi    SBT 1613   3.431  -0.154   3.690 -0.2045  0.0615 -0.1164
  124fsi    OBT 1614   3.292  -0.152   3.719 -0.1797 -0.0714  0.3942
  124fsi    OBT 1615   3.483  -0.264   3.617 -0.0093  0.8015  0.1252
  124fsi    FSI 1616   3.461  -0.030   3.601  0.4153  0.7444 -0.6965
  125fsi    FSI 1617   2.737   0.691   3.708 -0.3377  0.5296  0.1200
  125fsi    SBT 1618   2.863   0.759   3.767  0.0562 -0.2142  0.2308
  125fsi    NBT 1619   2.974   0.734   3.659  0.3993  0.6170 -0.1349
  125fsi    OBT 1620   2.827   0.896   3.769  0.1863  0.2161  0.0644
  125fsi    OBT 1621   2.882   0.686   3.891  0.2759  0.0769  0.5612
  125fsi    SBT 1622   3.051   0.829   3.558  0.1880 -0.5374  0.2322
  125fsi    OBT 1623   3.068   0.966   3.602 -0.1131 -0.1443  0.1272
  125fsi    OBT 1624   3.017   0.803   3.424 -0.9193  0.5156 -0.1249
  125fsi    FSI 1625   3.197   0.770   3.569 -0.8358  0.4403 -0.6249
  126fsi    FSI 1626   5.378   2.911   3.358  0.4144 -0.2605  0.0779
  126fsi    SBT 1627   5.436   3.039   3.294  0.2500  0.3867  0.1705
  126fsi    NBT 1628   5.345   3.156   3.352 -0.0185 -0.6823  0.4882
  126fsi    OBT 1629   5.573   3.043   3.345  0.4985  0.0697  0.5521
  126fsi    OBT 1630   5.426   3.020   3.149 -0.1429  0.4903  0.6272
  126fsi    SBT 1631   5.340   3.211   3.496  0.0092  0.4308  0.2185
  126fsi    OBT 1632   5.360   3.352   3.499 -0.0052 -0.1609  0.2068
  126fsi    OBT 1633   5.408   3.133   3.594 -0.2464  0.5298 -0.2156
  126fsi    FSI 1634   5.190   3.186   3.534  0.7976 -0.5321  0.1706
  127fsi    FSI 1635   0.462   4.000   3.252  0.0650 -0.5101  0.0585
  127fsi    SBT 1636   0.493   3.852   3.295  0.5583 -0.1235 -0.0777
  127fsi    NBT 1637   0.640   3.861   3.356 -0.3055 -0.0286 -0.0657
  127fsi    OBT 1638   0.394   3.805   3.388  0.4914 -0.6114 -0.5506
  127fsi    OBT 1639   0.489   3.786   3.171  0.1336 -0.2856  0.5304
  127fsi    SBT 1640   0.674   3.828   3.510  0.2752  0.2309  0.1095
  127fsi    OBT 1641   0.807   3.855   3.541 -0.2641 -0.0066  0.0746
  127fsi    OBT 1642   0.615   3.705   3.550 -0.2350 -0.5261 -0.1392
  127fsi    FSI 1643   0.598   3.938   3.592 -0.0308  0.3779  0.2382
  128fsi    FSI 1644   3.599   3.683   3.510  0.2695 -0.0830  0.2969
  128fsi    SBT 1645   3.570   3.730   3.654  0.6830 -0.1989 -0.0723
  128fsi    NBT 1646   3.712   3.757   3.716 -1.1158 -0.3420  0.8126
  128fsi    OBT 1647   3.497   3.848   3.634 -0.6163 -0.5071 -0.5742
  128fsi    OBT 1648   3.496   3.625   3.710  0.3426  0.2794  0.3792
  128fsi    SBT 1649   3.791   3.699   3.837 -0.1923  0.1401 -0.1363
  128fsi    OBT 1650   3.935   3.698   3.820  0.1954  0.4196  0.4610
  128fsi    OBT 1651   3.738   3.577   3.903 -0.0480  0.4884 -0.1553
  128fsi    FSI 1652   3.772   3.817   3.943 -0.1569  0.3937 -0.6788
  129fsi    FSI 1653   2.924   2.190   3.035  0.4573  0.6621 -0.3280
  129fsi    SBT 1654   2.800   2.219   3.134  0.2894 -0.1111  0.2188
  129fsi    NBT 1655   2.680   2.134   3.072 -0.3576  0.4140 -0.0773
  129fsi    OBT 1656   2.835   2.180   3.263  0.3429  0.1379 -0.4949
  129fsi    OBT 1657   2.771   2.359   3.116 -0.4057 -0.2108 -0.7058
  129fsi    SBT 1658   2.655   1.982   3.085 -0.0079 -0.1392  0.1159
  129fsi    OBT 1659   2.515   1.950   3.094 -0.1412  0.1653 -0.2290
  129fsi    OBT 1660   2.738   1.908   3.178 -0.2659 -0.6846 -0.1164
  129fsi    FSI 1661   2.699   1.929   2.938 -0.0238  0.1025  0.4982
  130fsi    FSI 1662   1.382   2.902   3.329 -0.3772  0.4013  0.1727
  130fsi    SBT 1663   1.395   3.047   3.386  0.1331  0.1717  0.3067
  130fsi    NBT 1664   1.279   3.043   3.490  0.1007 -0.4251 -0.4148
  130fsi    OBT 1665   1.530   3.050   3.438  0.2088 -0.1298  0.5871
  130fsi    OBT 1666   1.375   3.120   3.261  0.2278 -0.4675 -0.1448
  130fsi    SBT 1667   1.126   3.094   3.487  0.0533 -0.1034  0.1095
  130fsi    OBT 1668   1.069   3.098   3.356 -0.7269  0.0222 -0.2213
  130fsi    OBT 1669   1.093   3.196   3.582  0.0951 -0.0224  0.0623
  130fsi    FSI 1670   1.055   2.966   3.549 -0.4998 -0.0501 -0.0138
  131fsi    FSI 1671   2.304   3.228   2.790  0.0280 -0.5099  0.0348
  131fsi    SBT 1672   2.161   3.297   2.797  0.1327 -0.1126  0.1758
  131fsi    NBT 1673   2.201   3.437   2.854 -0.1132 -0.4510  0.0114
  131fsi    OBT 1674   2.112   3.294   2.658  0.2880  0.2638  0.1900
  131fsi    OBT 1675   2.088   3.215   2.891 -0.0415  0.6952 -0.1665
  131fsi    SBT 1676   2.261   3.556   2.775 -0.2464 -0.2610  0.4530
  131fsi    OBT 1677   2.346   3.511   2.662  0.1589 -0.2424  0.8022
  131fsi    OBT 1678   2.295   3.670   2.854 -0.2793  0.4104 -0.0881
  131fsi    FSI 1679   2.133   3.609   2.703  0.1349 -0.0295  0.7655
  132fsi    FSI 1680   4.976   3.628   3.268 -0.2954 -0.2854 -0.3259
  132fsi    SBT 1681   4.973   3.477   3.333  0.2471  0.0900  0.0135
  132fsi    NBT 1682   4.947   3.494   3.484 -0.1296 -0.0951 -0.4653
  132fsi    OBT 1683   4.870   3.415   3.259  0.4247  0.3306  0.9517
  132fsi    OBT 1684   5.101   3.416   3.308  0.3657 -0.4001 -0.2948
  132fsi    SBT 1685   5.048   3.543   3.597 -0.0501 -0.2110  0.0127
  132fsi    OBT 1686   4.976   3.618   3.700 -0.7035  0.0740 -0.0331
  132fsi    OBT 1687   5.173   3.592   3.550  0.2364  0.1737  0.2815
  132fsi    FSI 1688   5.086   3.407   3.661  0.7060 -0.2558  0.2182
  133fsi    FSI 1689   2.168   2.858   4.685  0.4544 -0.3313 -0.2972
  133fsi    SBT 1690   2.319   2.814   4.703 -0.3894 -0.1208  0.0293
  133fsi    NBT 1691   2.381   2.932   4.784  0.2031  0.6508 -0.4652
  133fsi    OBT 1692   2.298   2.698   4.786 -0.3821 -0.0934 -0.4086
  133fsi    OBT 1693   2.369   2.797   4.571  0.3904  0.7200 -0.2448
  133fsi    SBT 1694   2.527   2.957   4.835  0.3215 -0.0977  0.3278
  133fsi    OBT 1695   2.626   2.874   4.776  0.9821 -0.0188  0.7491
  133fsi    OBT 1696   2.526   2.971   4.979 -0.0968  0.6562  0.4147
  133fsi    FSI 1697   2.555   3.104   4.786 -0.4732 -0.8444 -0.1116
  134fsi    FSI 1698   4.270   5.376   4.200  0.4556  0.4513  0.3556
  134fsi    SBT 1699   4.194   5.276   4.314  0.1259 -0.1867  0.1116
  134fsi    NBT 1700   4.318   5.231   4.401  0.3393 -0.5051 -0.5039
  134fsi    OBT 1701   4.100   5.362   4.383 -0.2141  0.3355  0.3110
  134fsi    OBT 1702   4.141   5.171   4.225  0.2052 -0.2035  0.6788
  134fsi    SBT 1703   4.380   5.088   4.430 -0.1484  0.1567  0.0537
  134fsi    OBT 1704   4.507   5.101   4.498  0.4734 -0.0342 -0.0363
  134fsi    OBT 1705   4.365   4.988   4.320  0.5949 -0.3344  0.0314
  134fsi    FSI 1706   4.288   5.035   4.548 -0.3838 -0.1903  0.0483
  135fsi    FSI 1707   3.465   5.438   4.122 -0.2664 -0.0382  0.1287
  135fsi    SBT 1708   3.613   5.434   4.083 -0.1616  0.1552 -0.0590
  135fsi    NBT 1709   3.686   5.501   4.205 -0.5274 -0.0242 -0.1371
  135fsi    OBT 1710   3.633   5.293   4.061 -0.0307  0.4928 -0.0796
  135fsi    OBT 1711   3.613   5.527   3.980 -0.6214 -0.2679 -0.0887
  135fsi    SBT 1712   3.762   5.445   4.324  0.1232  0.5033 -0.9189
  135fsi    OBT 1713   3.865   5.536   4.374  0.1794  0.3047 -0.2111
  135fsi    OBT 1714   3.810   5.311   4.297  0.4453  0.5379 -0.4009
  135fsi    FSI 1715   3.645   5.431   4.434 -0.2587 -0.1366 -0.0870
  136fsi    FSI 1716   3.006   2.329   4.041 -0.3036  0.5539  0.3193
  136fsi    SBT 1717   2.967   2.206   4.130 -0.1613  0.6451  0.2916
  136fsi    NBT 1718   3.068   2.097   4.073  0.1910 -0.3724  0.0336
  136fsi    OBT 1719   2.988   2.259   4.265  0.3359  0.5685  0.0850
  136fsi    OBT 1720   2.828   2.179   4.095 -0.6799 -0.1843 -0.8993
  136fsi    SBT 1721   3.148   1.994   4.156 -0.0348 -0.1767 -0.2625
  136fsi    OBT 1722   3.164   1.871   4.081 -0.3041 -0.4832 -0.1331
  136fsi    OBT 1723   3.105   1.992   4.288 -0.0738 -0.2094 -0.3485
  136fsi    FSI 1724   3.302   2.049   4.169  0.0192 -0.4086  0.1193
  137fsi    FSI 1725   2.991   3.255   4.037  0.1440  0.0338  0.3776
  137fsi    SBT 1726   2.898   3.245   3.905 -0.1597  0.1964 -0.0968
  137fsi    NBT 1727   2.998   3.291   3.796 -0.3204 -0.1617 -0.3864
  137fsi    OBT 1728   2.868   3.097   3.904  0.1273 -0.0016  0.0402
  137fsi    OBT 1729   2.794   3.340   3.935  0.1986 -0.4079  0.0105
  137fsi    SBT 1730   3.077   3.208   3.696  0.1892 -0.2041 -0.2211
  137fsi    OBT 1731   3.139   3.295   3.602 -0.0957 -0.1336 -0.2134
  137fsi    OBT 1732   3.018   3.085   3.647  0.1385 -0.0010 -0.0230
  137fsi    FSI 1733   3.203   3.154   3.778 -0.0978 -0.0753  0.0794
  138fsi    FSI 1734   3.900   5.435   2.848 -0.1016 -0.1398  0.4052
  138fsi    SBT 1735   4.004   5.478   2.961 -0.0061 -0.1541 -0.4700
  138fsi    NBT 1736   3.993   5.356   3.045  0.0057  0.3163 -0.4186
  138fsi    OBT 1737   4.123   5.491   2.881 -0.0897  0.1612  0.9582
  138fsi    OBT 1738   3.944   5.590   3.025  0.1164  0.0438 -0.4900
  138fsi    SBT 1739   3.928   5.356   3.189  0.0693 -0.1172  0.1088
  138fsi    OBT 1740   3.787   5.322   3.180  0.8441 -0.1937 -0.5764
  138fsi    OBT 1741   3.973   5.466   3.273 -0.6057  0.2042 -0.0362
  138fsi    FSI 1742   3.992   5.234   3.265  0.1822 -0.7328  0.0811
  139fsi    FSI 1743   3.015   1.724   5.114 -0.3473 -0.2394 -0.4197
  139fsi    SBT 1744   2.991   1.839   5.012  0.1758 -0.2877  0.0602
  139fsi    NBT 1745   2.854   1.794   4.944  0.1647  0.4825 -0.2438
  139fsi    OBT 1746   2.981   1.958   5.085 -0.4151 -0.3024  0.3239
  139fsi    OBT 1747   3.106   1.822   4.924  0.2262 -0.1877  0.3281
  139fsi    SBT 1748   2.701   1.842   4.973 -0.4577 -0.3031  0.2497
  139fsi    OBT 1749   2.608   1.799   4.872  0.4248  0.3871  0.7149
  139fsi    OBT 1750   2.684   1.978   5.020 -0.3817  0.0901 -0.5290
  139fsi    FSI 1751   2.652   1.750   5.098  0.4322  0.1882 -0.0613
  140fsi    FSI 1752   4.861   4.953   4.113 -0.3745  0.2591 -0.0899
  140fsi    SBT 1753   4.735   4.873   4.057  0.1061 -0.1313  0.2370
  140fsi    NBT 1754   4.615   4.965   4.085 -0.1578 -0.1131  0.2163
  140fsi    OBT 1755   4.771   4.845   3.919  0.2992  0.4937  0.2587
  140fsi    OBT 1756   4.733   4.765   4.148 -0.0926 -0.8942 -0.8519
  140fsi    SBT 1757   4.526   5.061   3.985  0.0467  0.0864  0.0188
  140fsi    OBT 1758   4.405   5.104   4.046  0.3298  0.3881 -0.8076
  140fsi    OBT 1759   4.511   5.011   3.849 -0.1533  0.3475 -0.0572
  140fsi    FSI 1760   4.616   5.194   3.962 -0.2467  0.2964 -0.1337
  141fsi    FSI 1761   4.095   6.531   4.264 -0.3421  0.0681 -0.0396
  141fsi    SBT 1762   4.085   6.475   4.117 -0.1864  0.1339  0.2336
  141fsi    NBT 1763   4.122   6.322   4.146 -0.3071 -0.1595 -0.0489
  141fsi    OBT 1764   3.950   6.500   4.079 -0.3109 -0.2993 -0.8002
  141fsi    OBT 1765   4.189   6.541   4.046  0.0677 -0.1272  0.6700
  141fsi    SBT 1766   4.019   6.206   4.148 -0.1415  0.1575  0.1452
  141fsi    OBT 1767   3.877   6.243   4.152 -0.0661 -0.1549  1.2358
  141fsi    OBT 1768   4.061   6.095   4.230  0.2776 -0.4185 -0.0483
  141fsi    FSI 1769   4.030   6.154   3.999  0.2434  0.4661 -0.1662
  142fsi    FSI 1770   3.762   6.047   3.765  0.4584  0.3064  0.0088
  142fsi    SBT 1771   3.828   6.195   3.735 -0.2075  0.3109 -0.1821
  142fsi    NBT 1772   3.746   6.241   3.614 -0.1073  0.2346 -0.5128
  142fsi    OBT 1773   3.788   6.263   3.852 -0.2546  0.5919 -0.3935
  142fsi    OBT 1774   3.967   6.163   3.704  0.9890 -0.7632  0.1264
  142fsi    SBT 1775   3.798   6.324   3.489  0.3580  0.3683  0.3401
  142fsi    OBT 1776   3.892   6.423   3.535  0.4434  0.7601 -0.5048
  142fsi    OBT 1777   3.689   6.361   3.407 -0.0006 -0.7242  0.3480
  142fsi    FSI 1778   3.885   6.235   3.393  0.5014 -0.0954 -0.3438
  143fsi    FSI 1779   2.193   3.329   4.296  0.2505 -0.1068  0.5374
  143fsi    SBT 1780   2.094   3.413   4.197 -0.1046  0.4840  0.5355
  143fsi    NBT 1781   2.190   3.412   4.068 -0.3803 -0.4763 -0.3498
  143fsi    OBT 1782   1.974   3.337   4.178 -0.0258  0.5368 -0.7722
  143fsi    OBT 1783   2.082   3.541   4.260  0.3375 -0.0215  0.1174
  143fsi    SBT 1784   2.189   3.323   3.934  0.1986 -0.6273  0.6274
  143fsi    OBT 1785   2.113   3.197   3.938 -0.5262  0.2525 -0.4467
  143fsi    OBT 1786   2.314   3.324   3.867 -0.5445  1.0014 -0.5006
  143fsi    FSI 1787   2.101   3.405   3.841 -1.0135  0.4060 -0.2216
  144fsi    FSI 1788   1.279   3.424   2.808 -0.2668 -0.0982  0.2771
  144fsi    SBT 1789   1.179   3.434   2.933 -0.1271  0.2225  0.0266
  144fsi    NBT 1790   1.223   3.566   3.002 -0.2297  0.1387  0.3243
  144fsi    OBT 1791   1.052   3.433   2.869  0.5448 -0.9361  0.5930
  144fsi    OBT 1792   1.203   3.320   3.020  0.3026  0.6379  0.5732
  144fsi    SBT 1793   1.322   3.603   3.119 -0.1754 -0.2524 -0.0135
  144fsi    OBT 1794   1.398   3.492   3.173  0.2652 -0.4496  0.2624
  144fsi    OBT 1795   1.267   3.702   3.205  0.0643 -0.2034  0.0564
  144fsi    FSI 1796   1.431   3.677   3.037 -0.0000 -0.5311  0.2075
  145fsi    FSI 1797   2.854   2.561   5.429  0.3992  0.1584 -0.1757
  145fsi    SBT 1798   2.697   2.585   5.427  0.1709  0.0773  0.4983
  145fsi    NBT 1799   2.657   2.578   5.580 -0.0493  0.0065 -0.1477
  145fsi    OBT 1800   2.688   2.715   5.371  0.2590 -0.3178  0.5580
  145fsi    OBT 1801   2.650   2.479   5.340  0.2124  0.0381  0.1405
  145fsi    SBT 1802   2.572   2.465   5.647  0.1705 -0.2259  0.1900
  145fsi    OBT 1803   2.647   2.356   5.707  0.2770 -0.0625  0.4483
  145fsi    OBT 1804   2.455   2.434   5.565 -0.5358  0.2322  0.3229
  145fsi    FSI 1805   2.511   2.542   5.768  0.9183  0.0973 -0.0703
  146fsi    FSI 1806   3.814   4.359   3.366  0.4080 -0.0561  0.1414
  146fsi    SBT 1807   3.843   4.298   3.216 -0.5125  0.0703 -0.2277
  146fsi    NBT 1808   3.957   4.383   3.158 -1.1172 -0.0583  1.0187
  146fsi    OBT 1809   3.886   4.163   3.236  0.9503 -0.1037  0.5793
  146fsi    OBT 1810   3.718   4.326   3.149 -0.2004  0.6724  0.3984
  146fsi    SBT 1811   3.955   4.501   3.056 -0.3662  0.1341  0.3575
  146fsi    OBT 1812   4.031   4.611   3.107 -0.6123  0.6267 -0.5274
  146fsi    OBT 1813   3.826   4.526   2.995  0.2983  0.2005 -0.0433
  146fsi    FSI 1814   4.043   4.450   2.937  0.1806  0.7940  0.1699
  147fsi    FSI 1815   2.937   2.172   4.655 -0.1315  0.5515  0.1374
  147fsi    SBT 1816   2.874   2.041   4.603  0.1564  0.0906 -0.3806
  147fsi    NBT 1817   2.727   2.077   4.639 -0.2598 -0.3480  0.1816
  147fsi    OBT 1818   2.912   2.034   4.470 -0.3792  0.3278 -0.0024
  147fsi    OBT 1819   2.930   1.942   4.689  0.0542 -0.1432 -0.2509
  147fsi    SBT 1820   2.613   2.112   4.537  0.9645  0.1603  0.3755
  147fsi    OBT 1821   2.485   2.067   4.596  0.0963  0.0065 -0.1064
  147fsi    OBT 1822   2.636   2.085   4.400  0.0087  0.1355 -0.2280
  147fsi    FSI 1823   2.599   2.268   4.547 -0.3066  1.0969  0.5815
  148fsi    FSI 1824   4.624   5.888   3.735  0.0286  0.1144 -0.0972
  148fsi    SBT 1825   4.558   5.867   3.877 -0.3222  0.1168  0.0474
  148fsi    NBT 1826   4.421   5.937   3.857 -0.7772 -0.1363  0.4847
  148fsi    OBT 1827   4.547   5.726   3.878  0.3433  0.2081  0.4644
  148fsi    OBT 1828   4.650   5.937   3.973 -0.5233  0.4005  0.8412
  148fsi    SBT 1829   4.356   6.058   3.933  0.0518  0.1681 -0.2800
  148fsi    OBT 1830   4.285   6.142   3.853  0.2846 -0.4236  0.3305
  148fsi    OBT 1831   4.432   6.123   4.037  0.0455  0.4359  0.3432
  148fsi    FSI 1832   4.243   5.990   4.005  0.1535 -0.1469 -1.4674
  149fsi    FSI 1833   3.081   2.985   4.096 -0.2032  0.4631 -0.9698
  149fsi    SBT 1834   3.135   2.846   4.061 -0.1095  0.3601 -0.1155
  149fsi    NBT 1835   3.008   2.759   4.034 -0.4845 -0.1049  0.4831
  149fsi    OBT 1836   3.214   2.868   3.939  0.7214  0.6807  0.5059
  149fsi    OBT 1837   3.207   2.807   4.183  0.0574 -0.2836 -0.0939
  149fsi    SBT 1838   2.926   2.737   3.907  0.1801  0.3234  0.3943
  149fsi    OBT 1839   2.974   2.814   3.795 -0.1078 -0.2324  0.4708
  149fsi    OBT 1840   2.785   2.745   3.927  0.3081 -0.5518  0.4298
  149fsi    FSI 1841   2.956   2.588   3.869  0.0907 -0.6969 -0.6740
  150fsi    FSI 1842   3.262   4.507   3.336  0.1045  0.5349  0.1286
  150fsi    SBT 1843   3.410   4.503   3.395  0.0575  0.2897  0.1150
  150fsi    NBT 1844   3.461   4.649   3.380 -0.2634 -0.6342 -0.0007
  150fsi    OBT 1845   3.386   4.474   3.536  0.5293 -0.0118 -0.0129
  150fsi    OBT 1846   3.483   4.401   3.325  0.2564 -0.1294  0.5043
  150fsi    SBT 1847   3.551   4.714   3.268 -0.1307 -0.1316  0.4648
  150fsi    OBT 1848   3.531   4.857   3.261  0.1263  0.6459  0.1397
  150fsi    OBT 1849   3.561   4.634   3.150  0.3593 -0.5059  0.0963
  150fsi    FSI 1850   3.694   4.705   3.330  0.1540  0.2479  0.0783
  151fsi    FSI 1851   4.662   6.528   4.133 -0.0140 -0.0240  0.1080
  151fsi    SBT 1852   4.583   6.400   4.096  0.0669  0.6012 -0.3021
  151fsi    NBT 1853   4.597   6.384   3.940  0.8561  0.1474  0.1837
  151fsi    OBT 1854   4.645   6.305   4.181 -0.7860  0.2667 -0.1787
  151fsi    OBT 1855   4.444   6.435   4.134  0.9329  0.0294  0.1721
  151fsi    SBT 1856   4.690   6.284   3.866  0.4254 -0.1999 -0.0099
  151fsi    OBT 1857   4.616   6.223   3.760 -0.7039 -0.7904 -0.1640
  151fsi    OBT 1858   4.778   6.205   3.948  0.5720  1.0558  0.6425
  151fsi    FSI 1859   4.784   6.373   3.808 -0.1408 -0.1868 -0.4508
  152fsi    FSI 1860   3.336   6.573   2.894  0.1954  0.1086  0.0285
  152fsi    SBT 1861   3.360   6.724   2.918  0.0066 -0.0839 -0.0876
  152fsi    NBT 1862   3.382   6.776   2.775  0.0790 -0.5048  0.0625
  152fsi    OBT 1863   3.239   6.769   2.981  0.0369 -0.3033 -0.8086
  152fsi    OBT 1864   3.467   6.730   3.008  0.1585 -0.1256 -0.0010
  152fsi    SBT 1865   3.518   6.821   2.709  0.0361 -0.0696  0.2838
  152fsi    OBT 1866   3.578   6.707   2.642  0.2629  0.1668 -0.1842
  152fsi    OBT 1867   3.596   6.915   2.783 -0.4466 -0.2481 -0.2078
  152fsi    FSI 1868   3.467   6.913   2.597  0.0269 -0.2435  0.1706
  153fsi    FSI 1869   4.032   2.461   3.445 -0.4896 -0.0646 -0.0093
  153fsi    SBT 1870   3.883   2.417   3.427 -0.5159  0.5419  0.0498
  153fsi    NBT 1871   3.840   2.348   3.562  0.2450  0.1891  0.0131
  153fsi    OBT 1872   3.810   2.543   3.405 -0.7281 -0.1302 -0.1203
  153fsi    OBT 1873   3.892   2.321   3.316  0.2232  0.5376 -0.0505
  153fsi    SBT 1874   3.754   2.398   3.687  0.4668 -0.0848 -0.1094
  153fsi    OBT 1875   3.753   2.539   3.714 -0.2948  0.8101  0.3453
  153fsi    OBT 1876   3.748   2.303   3.796  0.0381 -0.5078 -0.4286
  153fsi    FSI 1877   3.603   2.388   3.632 -0.3211  0.5512 -0.1693
  154fsi    FSI 1878   4.517   4.358   3.018 -0.3562  0.4561 -0.2071
  154fsi    SBT 1879   4.453   4.419   3.156  0.2256  0.2047 -0.0592
  154fsi    NBT 1880   4.372   4.550   3.110  0.2741  0.0143 -0.3077
  154fsi    OBT 1881   4.364   4.310   3.192 -0.0311 -0.2771 -0.5919
  154fsi    OBT 1882   4.564   4.447   3.245  0.0218 -0.0999 -0.0280
  154fsi    SBT 1883   4.414   4.703   3.112  0.4366 -0.1062  0.3975
  154fsi    OBT 1884   4.552   4.726   3.139  0.2420  0.4262 -0.1442
  154fsi    OBT 1885   4.319   4.796   3.168 -0.5738 -0.4783  0.0784
  154fsi    FSI 1886   4.411   4.744   2.964  0.1030 -0.1506  0.5634
  155fsi    FSI 1887   1.433   2.643   3.504  0.2126  0.3668  0.1561
  155fsi    SBT 1888   1.454   2.499   3.568  0.3000 -0.0982  0.2976
  155fsi    NBT 1889   1.606   2.469   3.548  0.2508 -0.1639 -0.1570
  155fsi    OBT 1890   1.415   2.525   3.705 -0.4232  0.0201 -0.8981
  155fsi    OBT 1891   1.373   2.409   3.491  0.3450 -0.2361 -0.4611
  155fsi    SBT 1892   1.727   2.458   3.656  0.0161 -0.2543 -0.1199
  155fsi    OBT 1893   1.832   2.371   3.609  0.2997 -0.3009 -0.6156
  155fsi    OBT 1894   1.689   2.453   3.793 -0.4114 -0.1367  0.2112
  155fsi    FSI 1895   1.790   2.598   3.631 -0.5765 -0.3390  0.0876
  156fsi    FSI 1896   4.350   2.909   3.166  0.0113  0.4087 -0.3914
  156fsi    SBT 1897   4.498   2.928   3.204 -0.1914 -0.3550 -0.0836
  156fsi    NBT 1898   4.569   2.947   3.063  0.1018 -0.3928 -0.0195
  156fsi    OBT 1899   4.504   3.046   3.286 -0.4991 -0.5907 -0.4125
  156fsi    OBT 1900   4.532   2.800   3.260  0.1364  0.4695 -0.3245
  156fsi    SBT 1901   4.620   3.077   2.985 -0.0012 -0.1910  0.3040
  156fsi    OBT 1902   4.679   3.169   3.080 -0.1031 -0.4977 -0.4111
  156fsi    OBT 1903   4.529   3.131   2.887 -0.0581 -0.4800  0.0728
  156fsi    FSI 1904   4.745   3.031   2.899  0.5955 -0.3715  0.4395
  157fsi    FSI 1905   2.231   3.783   3.373 -0.0156  0.0815 -0.1062
  157fsi    SBT 1906   2.297   3.704   3.253 -0.1730 -0.0400 -0.0711
  157fsi    NBT 1907   2.285   3.812   3.140  0.2519 -0.5116 -0.0863
  157fsi    OBT 1908   2.432   3.684   3.299  0.4819  0.0539  0.3728
  157fsi    OBT 1909   2.212   3.587   3.238 -0.4535  0.2386  0.3762
  157fsi    SBT 1910   2.348   3.957   3.131  0.3632  0.0732  0.1278
  157fsi    OBT 1911   2.383   4.004   2.998  0.0102 -0.2484 -0.4311
  157fsi    OBT 1912   2.448   3.992   3.229  0.2902  0.0887  0.1707
  157fsi    FSI 1913   2.227   4.058   3.166  0.4335 -0.3902 -0.8870
  158fsi    FSI 1914   2.724   1.509   4.472  0.3022  0.1873 -0.0255
  158fsi    SBT 1915   2.783   1.652   4.506 -0.0633  0.1783  0.0113
  158fsi    NBT 1916   2.850   1.702   4.370 -0.7737  0.4627 -0.6275
  158fsi    OBT 1917   2.666   1.726   4.541 -0.1285  0.0914 -0.3808
  158fsi    OBT 1918   2.873   1.632   4.615  0.5415  0.1497  0.1701
  158fsi    SBT 1919   2.788   1.727   4.233 -0.0542 -0.6106 -0.2567
  158fsi    OBT 1920   2.654   1.681   4.225 -0.0126 -0.1567  0.2865
  158fsi    OBT 1921   2.876   1.704   4.123 -0.1032 -0.1544 -0.1951
  158fsi    FSI 1922   2.770   1.881   4.220  0.5999  0.0208 -0.4009
  159fsi    FSI 1923   3.130   3.763   4.470 -0.3647 -0.1163  0.6234
  159fsi    SBT 1924   3.138   3.621   4.400 -0.3245  0.3683 -0.4080
  159fsi    NBT 1925   2.994   3.567   4.417 -0.0282  0.3856 -0.2642
  159fsi    OBT 1926   3.169   3.652   4.264  0.0369 -0.2355  0.1093
  159fsi    OBT 1927   3.237   3.552   4.480  0.1299  0.0323  0.0057
  159fsi    SBT 1928   2.946   3.421   4.446  0.5773 -0.3472  0.4579
  159fsi    OBT 1929   3.047   3.321   4.447  0.1444  0.0629  0.3607
  159fsi    OBT 1930   2.823   3.383   4.380 -0.4458  0.0102  0.1787
  159fsi    FSI 1931   2.908   3.424   4.594 -0.2291 -0.2333  0.7964
  160fsi    FSI 1932   2.428   3.169   2.268 -0.7758 -0.1588 -0.2474
  160fsi    SBT 1933   2.429   3.129   2.429 -0.3674 -0.5626  0.3437
  160fsi    NBT 1934   2.547   3.028   2.416  0.5504 -0.0609 -0.1535
  160fsi    OBT 1935   2.479   3.249   2.503  0.4191 -0.3977  0.1650
  160fsi    OBT 1936   2.297   3.075   2.446  0.4729 -0.1717 -0.3937
  160fsi    SBT 1937   2.560   2.869   2.402 -0.4365 -0.1229 -0.2689
  160fsi    OBT 1938   2.658   2.826   2.304 -0.5659  0.1066 -0.4630
  160fsi    OBT 1939   2.432   2.801   2.400  0.3094 -0.3891  0.2472
  160fsi    FSI 1940   2.631   2.834   2.539 -0.1100 -0.3357 -0.2120
  161fsi    FSI 1941   2.292   3.013   4.169 -0.0528 -0.1201  0.1084
  161fsi    SBT 1942   2.278   2.884   4.086 -0.1623  0.0506  0.0799
  161fsi    NBT 1943   2.408   2.873   3.997  0.1715 -0.0706 -0.1077
  161fsi    OBT 1944   2.272   2.778   4.182  0.1085 -0.3624 -0.2504
  161fsi    OBT 1945   2.161   2.911   4.004  0.0680  0.1036 -1.2087
  161fsi    SBT 1946   2.446   2.957   3.870 -0.3897 -0.0004 -0.1204
  161fsi    OBT 1947   2.333   3.016   3.805 -0.0251 -0.2265  0.4970
  161fsi    OBT 1948   2.557   2.895   3.798  0.5194 -0.0679  0.1885
  161fsi    FSI 1949   2.515   3.090   3.938  0.9642  0.1157 -0.6500
  162fsi    FSI 1950   2.773   3.177   2.891 -0.1117  0.3623  0.0126
  162fsi    SBT 1951   2.610   3.188   2.894  0.1392  0.1147 -0.2125
  162fsi    NBT 1952   2.596   3.342   2.903 -0.1799 -0.5284 -0.7517
  162fsi    OBT 1953   2.578   3.139   2.763  0.2894  0.1282  0.1870
  162fsi    OBT 1954   2.573   3.107   3.007 -0.1879  0.2583  0.0878
  162fsi    SBT 1955   2.539   3.431   3.022  0.4780 -0.3046 -0.2985
  162fsi    OBT 1956   2.420   3.377   3.082 -0.2492 -0.2941  0.4500
  162fsi    OBT 1957   2.541   3.572   2.993  0.0877  0.2727  0.1025
  162fsi    FSI 1958   2.641   3.410   3.130  0.4012  0.1953  0.3596
  163fsi    FSI 1959   2.561   4.139   3.789  0.3419 -0.1806 -0.5742
  163fsi    SBT 1960   2.653   4.019   3.749  0.2491  0.2572 -0.1868
  163fsi    NBT 1961   2.563   3.889   3.771  0.1300  0.4544  0.2403
  163fsi    OBT 1962   2.692   4.045   3.617  0.1584  0.0669  0.3004
  163fsi    OBT 1963   2.756   4.020   3.847  0.0551  0.4269 -0.2229
  163fsi    SBT 1964   2.459   3.819   3.680  0.3648 -0.1177  0.4182
  163fsi    OBT 1965   2.445   3.681   3.715  0.8549  0.9682 -0.6638
  163fsi    OBT 1966   2.470   3.854   3.541  0.4889  0.5920  0.1561
  163fsi    FSI 1967   2.331   3.886   3.721  0.1098 -0.4474 -0.3091
  164fsi    FSI 1968   0.459   2.876   3.182  0.0663 -0.3450  0.0588
  164fsi    SBT 1969   0.564   2.990   3.170  0.3475 -0.1293 -0.1913
  164fsi    NBT 1970   0.647   2.978   3.305 -0.1841  0.6604  0.1234
  164fsi    OBT 1971   0.647   2.949   3.058  0.3983  0.1888  0.4043
  164fsi    OBT 1972   0.481   3.105   3.148  0.1493 -0.3346  0.1723
  164fsi    SBT 1973   0.625   3.047   3.441 -0.2207  0.4920 -0.3914
  164fsi    OBT 1974   0.498   3.111   3.469 -0.0944 -0.2490  0.4774
  164fsi    OBT 1975   0.739   3.123   3.472  0.1646 -0.4849  0.0371
  164fsi    FSI 1976   0.628   2.930   3.538 -0.0961 -0.0976 -0.6032
  165fsi    FSI 1977   3.833   2.818   3.072 -0.2423 -0.4867  0.2734
  165fsi    SBT 1978   3.716   2.866   3.156 -0.0827  0.1210 -0.0976
  165fsi    NBT 1979   3.588   2.783   3.107  0.8466 -0.3185 -0.3934
  165fsi    OBT 1980   3.759   2.843   3.292 -0.4406  0.3437  0.1819
  165fsi    OBT 1981   3.708   3.005   3.116 -0.3664  0.0278  0.2912
  165fsi    SBT 1982   3.516   2.658   3.168 -0.1090 -0.4519 -0.1631
  165fsi    OBT 1983   3.495   2.669   3.306 -0.4193 -0.2207 -0.3356
  165fsi    OBT 1984   3.557   2.537   3.110 -0.0377  0.2039 -0.4141
  165fsi    FSI 1985   3.368   2.673   3.120 -0.7085  0.2995  0.1804
  166fsi    FSI 1986   3.516   1.632   2.695 -0.3756  0.0831 -0.5550
  166fsi    SBT 1987   3.511   1.633   2.854  0.0745 -0.0605  0.1329
  166fsi    NBT 1988   3.659   1.682   2.892 -0.2580 -0.0339 -0.1613
  166fsi    OBT 1989   3.411   1.733   2.878 -0.0046  0.2089  0.1472
  166fsi    OBT 1990   3.471   1.504   2.889  0.0359  0.7707  0.3841
  166fsi    SBT 1991   3.719   1.693   3.038  0.4256 -0.1176 -0.0313
  166fsi    OBT 1992   3.641   1.633   3.142 -0.3872  0.7873 -0.1490
  166fsi    OBT 1993   3.782   1.820   3.069  0.1853 -0.1579  0.3958
  166fsi    FSI 1994   3.840   1.592   3.033 -0.1535  0.4469  0.4792
  167fsi    FSI 1995   4.379   5.680   4.175  0.2967  0.2911 -0.8580
  167fsi    SBT 1996   4.362   5.731   4.320  0.0036 -0.0789 -0.1571
  167fsi    NBT 1997   4.380   5.887   4.314 -0.0670 -0.2365 -0.0382
  167fsi    OBT 1998   4.226   5.689   4.338  0.4947 -0.7991 -1.0353
  167fsi    OBT 1999   4.467   5.671   4.400  0.6037 -0.5791 -0.2325
  167fsi    SBT 2000   4.506   5.971   4.349  0.4627 -0.6373 -0.0257
  167fsi    OBT 2001   4.464   6.109   4.350  0.6794 -0.8194  0.6651
  167fsi    OBT 2002   4.628   5.937   4.283 -0.6593 -0.6114  0.0699
  167fsi    FSI 2003   4.529   5.949   4.503  0.0917  0.0910 -0.4459
  168fsi    FSI 2004   1.920   2.783   2.968  0.4369 -0.1341  0.0443
  168fsi    SBT 2005   1.856   2.644   2.975 -0.7388  0.1500 -0.3255
  168fsi    NBT 2006   1.907   2.603   3.121 -0.2624 -0.5879 -0.2484
  168fsi    OBT 2007   1.713   2.664   2.972 -0.6652  0.1089 -0.0696
  168fsi    OBT 2008   1.923   2.580   2.863 -0.2724 -0.7091 -0.4946
  168fsi    SBT 2009   1.838   2.607   3.258  0.4814 -0.2065  0.1229
  168fsi    OBT 2010   1.872   2.488   3.334  0.5290 -0.3437 -0.4027
  168fsi    OBT 2011   1.702   2.654   3.253 -0.2410  0.1637  0.0960
  168fsi    FSI 2012   1.901   2.726   3.330  0.1742  0.1054  0.4145
  169fsi    FSI 2013   4.135   1.488   3.888  0.0151  0.4149 -0.3119
  169fsi    SBT 2014   3.998   1.564   3.901 -0.2283 -0.2550 -0.4567
  169fsi    NBT 2015   3.975   1.589   4.060 -0.7455  0.1794 -0.3131
  169fsi    OBT 2016   4.017   1.696   3.841  0.3452 -0.2316 -0.3353
  169fsi    OBT 2017   3.907   1.478   3.831 -0.2576  0.2387 -0.0610
  169fsi    SBT 2018   3.886   1.498   4.155  0.4637 -0.1119  0.0595
  169fsi    OBT 2019   3.908   1.360   4.141 -0.6774  0.1303  0.6996
  169fsi    OBT 2020   3.750   1.543   4.162  0.0103 -0.1096  0.5148
  169fsi    FSI 2021   3.943   1.528   4.298  0.3345 -0.0837  0.7607
  170fsi    FSI 2022   3.763   0.676   3.769 -0.6909 -0.3145  0.0242
  170fsi    SBT 2023   3.632   0.595   3.750 -0.0546 -0.4577 -0.2164
  170fsi    NBT 2024   3.549   0.635   3.875 -0.4847  0.2788  0.6032
  170fsi    OBT 2025   3.577   0.630   3.618 -0.5124 -0.2369  0.0646
  170fsi    OBT 2026   3.689   0.464   3.769 -0.7323  0.3652 -0.0482
  170fsi    SBT 2027   3.446   0.756   3.880 -0.4331  0.1874 -0.3840
  170fsi    OBT 2028   3.454   0.855   3.777 -0.0824  0.1195 -0.3490
  170fsi    OBT 2029   3.432   0.802   4.019  0.3530  0.0997 -0.0793
  170fsi    FSI 2030   3.305   0.687   3.858 -0.3983 -0.4577  0.6898
  171fsi    FSI 2031   3.091   2.516   4.372  0.1774  0.8568 -0.1500
  171fsi    SBT 2032   3.157   2.483   4.507  0.2930 -0.2018 -0.0359
  171fsi    NBT 2033   3.305   2.527   4.479  0.5799 -0.1488  0.0469
  171fsi    OBT 2034   3.092   2.569   4.602  0.0704  0.0968  0.1112
  171fsi    OBT 2035   3.133   2.344   4.523 -0.3034 -0.0512  0.2763
  171fsi    SBT 2036   3.395   2.635   4.557  0.1078 -0.1776 -0.4298
  171fsi    OBT 2037   3.535   2.626   4.518 -0.4897  0.1761 -0.3345
  171fsi    OBT 2038   3.369   2.641   4.697  0.0679 -0.2672  0.1468
  171fsi    FSI 2039   3.339   2.770   4.501  0.1672  0.3947 -0.5197
  172fsi    FSI 2040   4.318   3.219   3.149 -0.5011  0.1724 -0.0721
  172fsi    SBT 2041   4.332   3.374   3.168 -0.0486 -0.1742  0.1567
  172fsi    NBT 2042   4.324   3.386   3.323  0.2990  0.0175 -0.9689
  172fsi    OBT 2043   4.452   3.412   3.099 -0.0267 -0.8042  0.1252
  172fsi    OBT 2044   4.209   3.418   3.113 -0.2188 -0.2812  0.3827
  172fsi    SBT 2045   4.446   3.406   3.428 -0.1366  0.3524 -0.1071
  172fsi    OBT 2046   4.420   3.519   3.517 -0.5234 -0.1346  0.2576
  172fsi    OBT 2047   4.576   3.400   3.369 -0.0675 -0.1050 -0.1909
  172fsi    FSI 2048   4.442   3.278   3.517 -0.0725 -0.1739 -0.6197
  173fsi    FSI 2049   3.338   1.613   4.513  0.5283  0.1497 -0.5907
  173fsi    SBT 2050   3.255   1.741   4.476  0.1674  0.0493  0.0070
  173fsi    NBT 2051   3.362   1.857   4.472 -0.3577 -0.4881  0.2457
  173fsi    OBT 2052   3.197   1.713   4.347  0.2886  0.8624 -0.1522
  173fsi    OBT 2053   3.164   1.751   4.585  0.3125 -0.5598  0.0438
  173fsi    SBT 2054   3.357   2.001   4.538  0.4078 -0.1878 -0.0967
  173fsi    OBT 2055   3.225   2.048   4.558 -0.2340 -0.2876  0.3805
  173fsi    OBT 2056   3.447   2.085   4.468 -0.3390 -0.3755 -0.4016
  173fsi    FSI 2057   3.415   1.986   4.677 -0.0647 -0.2755  0.0299
  174fsi    FSI 2058   1.805   1.881   3.452 -0.4250 -0.4835 -0.3531
  174fsi    SBT 2059   1.954   1.924   3.471 -0.1216 -0.3459  0.1585
  174fsi    NBT 2060   1.996   1.924   3.321  0.0043 -0.2306 -0.4059
  174fsi    OBT 2061   1.956   2.052   3.529  0.0341 -0.1680 -0.4351
  174fsi    OBT 2062   2.009   1.818   3.552 -0.0418  0.1902 -0.7810
  174fsi    SBT 2063   2.013   2.037   3.218 -0.1472 -0.4833  0.0990
  174fsi    OBT 2064   2.133   2.028   3.140  0.4642  0.1336 -0.2087
  174fsi    OBT 2065   1.976   2.165   3.267  0.1529 -0.8557 -0.0922
  174fsi    FSI 2066   1.898   2.002   3.111 -0.1509  0.2412 -0.4149
  175fsi    FSI 2067   3.132   6.029   3.608  0.4581  0.6844 -0.2546
  175fsi    SBT 2068   3.205   6.170   3.612 -0.1108  0.1500 -0.1414
  175fsi    NBT 2069   3.211   6.194   3.771  0.0288 -0.2563  0.1482
  175fsi    OBT 2070   3.329   6.146   3.544  0.0494 -0.1019  0.1227
  175fsi    OBT 2071   3.115   6.262   3.551  0.5282 -0.5323 -0.4416
  175fsi    SBT 2072   3.332   6.157   3.869 -0.0265 -0.2975  0.1137
  175fsi    OBT 2073   3.336   6.233   3.991 -0.0928  0.1784 -0.1845
  175fsi    OBT 2074   3.456   6.152   3.801 -0.1199 -0.1341 -0.8607
  175fsi    FSI 2075   3.310   6.009   3.926 -0.0872  0.0867  0.2125
  176fsi    FSI 2076   3.878   3.635   3.145  0.1605 -0.1999 -0.1566
  176fsi    SBT 2077   3.746   3.697   3.079  0.0219  0.3945 -0.1276
  176fsi    NBT 2078   3.721   3.603   2.959  0.1403 -0.8091 -0.1116
  176fsi    OBT 2079   3.652   3.682   3.185 -0.2003  0.2817  0.3107
  176fsi    OBT 2080   3.786   3.827   3.041 -0.0592  0.2587  0.1456
  176fsi    SBT 2081   3.612   3.487   2.937  0.1615 -0.2131  0.1402
  176fsi    OBT 2082   3.491   3.523   3.002 -0.3868  0.0643  0.3583
  176fsi    OBT 2083   3.660   3.354   2.949 -0.0809  0.1607 -0.2056
  176fsi    FSI 2084   3.576   3.499   2.785  0.2895 -0.0672 -0.0156
  177fsi    FSI 2085   4.163   3.849   3.466  0.2326 -0.3878 -0.1342
  177fsi    SBT 2086   4.100   3.963   3.367 -0.1673  0.1498 -0.0982
  177fsi    NBT 2087   4.222   3.979   3.273  0.5485 -0.6746  0.2538
  177fsi    OBT 2088   3.983   3.902   3.307 -0.2299 -0.9770  1.0647
  177fsi    OBT 2089   4.078   4.076   3.450 -0.0981  0.5712  0.3437
  177fsi    SBT 2090   4.254   3.939   3.125 -0.0245  0.3640 -0.3585
  177fsi    OBT 2091   4.163   3.999   3.027  0.4289  0.0837  0.4609
  177fsi    OBT 2092   4.294   3.802   3.111  0.1931  0.2246  0.7029
  177fsi    FSI 2093   4.384   4.023   3.099 -0.1168  0.5417  0.0522
  178fsi    FSI 2094   3.766   4.243   4.440  0.1590 -0.2388  0.4706
  178fsi    SBT 2095   3.799   4.296   4.292  0.0235  0.0188  0.3340
  178fsi    NBT 2096   3.929   4.385   4.310  0.0613  0.2949  1.1305
  178fsi    OBT 2097   3.815   4.172   4.223 -0.5970  0.2383 -0.0287
  178fsi    OBT 2098   3.691   4.380   4.260 -0.0470 -0.4940 -0.0460
  178fsi    SBT 2099   4.081   4.350   4.307  0.2564 -0.2524 -0.0728
  178fsi    OBT 2100   4.150   4.475   4.298 -0.0184  0.2457  0.0668
  178fsi    OBT 2101   4.125   4.241   4.223 -0.2584 -0.2787 -0.0285
  178fsi    FSI 2102   4.112   4.306   4.451  0.3210 -0.9981  0.2448
  179fsi    FSI 2103   2.377   2.374   3.902  0.3064 -0.3948 -0.1041
  179fsi    SBT 2104   2.523   2.340   3.910  0.2375 -0.1545 -0.1847
  179fsi    NBT 2105   2.562   2.462   4.006 -0.0886  0.0912  0.1094
  179fsi    OBT 2106   2.530   2.211   3.967 -0.0929  0.3176  0.0712
  179fsi    OBT 2107   2.560   2.360   3.768 -0.4481  0.2164 -0.3528
  179fsi    SBT 2108   2.607   2.463   4.157  0.1526  0.2264  0.5815
  179fsi    OBT 2109   2.738   2.512   4.168 -0.6151 -0.6078  0.0678
  179fsi    OBT 2110   2.585   2.337   4.222 -0.4859 -0.0477  0.2239
  179fsi    FSI 2111   2.502   2.571   4.224  0.2096 -0.4699 -0.6165
  180fsi    FSI 2112   2.226   1.937   4.109 -0.4142  0.6704  0.3362
  180fsi    SBT 2113   2.356   1.929   4.203 -0.2277  0.1371 -0.6069
  180fsi    NBT 2114   2.286   1.899   4.344 -0.0326 -0.4428  0.3340
  180fsi    OBT 2115   2.420   1.816   4.137 -0.5172 -0.2599 -0.3229
  180fsi    OBT 2116   2.416   2.062   4.192  0.6284  0.7242  0.1396
  180fsi    SBT 2117   2.278   1.754   4.425  0.3899 -0.7278 -0.1142
  180fsi    OBT 2118   2.337   1.769   4.559 -0.6863  0.1492  0.4474
  180fsi    OBT 2119   2.319   1.641   4.343  0.4390 -0.2490 -0.0301
  180fsi    FSI 2120   2.128   1.725   4.449 -0.1875  0.2092 -0.0039
  181fsi    FSI 2121   2.901   3.602   2.592 -0.1947 -0.6294  0.2340
  181fsi    SBT 2122   2.807   3.540   2.702 -0.7014  0.0429  0.0393
  181fsi    NBT 2123   2.900   3.438   2.773 -0.2167 -0.1895  0.2176
  181fsi    OBT 2124   2.777   3.656   2.774  0.2588 -0.0486  0.2697
  181fsi    OBT 2125   2.704   3.483   2.622  0.0223  0.0595 -0.4850
  181fsi    SBT 2126   2.990   3.473   2.891 -0.0858 -0.5238 -0.3093
  181fsi    OBT 2127   2.947   3.427   3.018 -0.4254 -0.3970  0.2183
  181fsi    OBT 2128   3.042   3.608   2.895 -0.1519 -0.7259 -0.8019
  181fsi    FSI 2129   3.119   3.391   2.856  0.2252  0.2720 -0.1397
  182fsi    FSI 2130   4.739   3.359   2.726 -0.5469 -0.3847  0.2007
  182fsi    SBT 2131   4.857   3.384   2.828 -0.1584  0.1489  0.4813
  182fsi    NBT 2132   4.773   3.445   2.948 -0.4543  0.4494 -0.5914
  182fsi    OBT 2133   4.912   3.253   2.849 -0.2608  0.0902 -0.4025
  182fsi    OBT 2134   4.936   3.476   2.752  0.2740  0.1720  0.2112
  182fsi    SBT 2135   4.734   3.595   2.966  0.4737 -0.0979 -0.0989
  182fsi    OBT 2136   4.672   3.620   3.095 -0.7494  0.5035 -0.4326
  182fsi    OBT 2137   4.671   3.651   2.844 -0.0053  0.2854 -0.0484
  182fsi    FSI 2138   4.874   3.672   2.976  0.1810  0.4760  0.2144
  183fsi    FSI 2139   4.563   5.757   2.795  0.2165 -0.3862 -0.4150
  183fsi    SBT 2140   4.513   5.646   2.888 -0.2233 -0.0490 -0.5145
  183fsi    NBT 2141   4.414   5.718   2.984 -0.0149  0.1695  0.0984
  183fsi    OBT 2142   4.451   5.558   2.798 -0.4968  0.0819  0.2810
  183fsi    OBT 2143   4.631   5.600   2.960 -0.5417 -0.4317  0.0333
  183fsi    SBT 2144   4.446   5.830   3.092 -0.2934  0.2845 -0.1369
  183fsi    OBT 2145   4.558   5.808   3.182 -0.4016  0.0853  0.6617
  183fsi    OBT 2146   4.327   5.881   3.159 -0.1893 -0.2933 -0.3529
  183fsi    FSI 2147   4.483   5.952   3.001 -0.3660  0.0666 -0.1873
  184fsi    FSI 2148   3.414   1.065   3.524  0.0686 -0.0342  0.2007
  184fsi    SBT 2149   3.481   0.975   3.410 -0.1707 -0.0886 -0.0233
  184fsi    NBT 2150   3.433   1.041   3.274 -0.3895  0.6262  0.5813
  184fsi    OBT 2151   3.622   0.991   3.429 -0.4508  0.3052 -0.4280
  184fsi    OBT 2152   3.417   0.848   3.427 -0.3648  0.3733  0.2332
  184fsi    SBT 2153   3.506   1.105   3.151  0.1477 -0.1546  0.3314
  184fsi    OBT 2154   3.420   1.101   3.036 -0.6780  0.4969 -0.1998
  184fsi    OBT 2155   3.642   1.065   3.130  0.0819  0.3565  0.0721
  184fsi    FSI 2156   3.514   1.247   3.197  0.0215 -0.2408  0.5434
  185fsi    FSI 2157   3.169   4.460   2.899 -0.1299  0.0489 -0.2246
  185fsi    SBT 2158   3.320   4.415   2.857  0.0273  0.3492 -0.2515
  185fsi    NBT 2159   3.361   4.498   2.735  0.0756  0.4829  0.1125
  185fsi    OBT 2160   3.387   4.445   2.981  0.5217  0.3033 -0.5204
  185fsi    OBT 2161   3.304   4.280   2.819 -0.0222  0.0390  0.0200
  185fsi    SBT 2162   3.455   4.623   2.731 -0.2360 -0.0347  0.1002
  185fsi    OBT 2163   3.571   4.610   2.811 -0.0723  0.1810  0.0031
  185fsi    OBT 2164   3.382   4.745   2.730 -0.6175  0.2767  0.6808
  185fsi    FSI 2165   3.515   4.611   2.583 -0.2471  0.2352 -0.1099
  186fsi    FSI 2166   4.385   5.869   3.463  0.2144  0.2194  0.1760
  186fsi    SBT 2167   4.398   5.721   3.514 -0.1739  0.3469 -0.4121
  186fsi    NBT 2168   4.309   5.639   3.414 -1.0133  0.8114 -0.3357
  186fsi    OBT 2169   4.539   5.699   3.496 -0.0316  0.2553 -0.1181
  186fsi    OBT 2170   4.343   5.723   3.648  0.0150 -0.1940  1.0340
  186fsi    SBT 2171   4.343   5.526   3.317  0.0403 -0.3720 -0.0950
  186fsi    OBT 2172   4.283   5.400   3.356  0.1801 -0.0599  0.3616
  186fsi    OBT 2173   4.481   5.520   3.271  1.0410 -0.0236  0.3192
  186fsi    FSI 2174   4.259   5.576   3.186 -0.2124 -0.0386  0.5175
  187fsi    FSI 2175   3.473   2.900   3.794 -0.8266 -0.2276 -0.2662
  187fsi    SBT 2176   3.428   2.891   3.644 -0.2625  0.0964 -0.1780
  187fsi    NBT 2177   3.438   3.033   3.594  0.5960 -0.0567 -0.1159
  187fsi    OBT 2178   3.533   2.807   3.589 -0.3748  0.1892  0.1365
  187fsi    OBT 2179   3.295   2.841   3.657 -0.3478  0.4634  0.0537
  187fsi    SBT 2180   3.554   3.132   3.568 -0.0062  0.1742 -0.1820
  187fsi    OBT 2181   3.587   3.144   3.428  0.0811  0.5209 -0.4933
  187fsi    OBT 2182   3.665   3.120   3.660 -0.2803 -0.0232 -0.1814
  187fsi    FSI 2183   3.493   3.271   3.607  0.1408 -0.5549 -0.0866
  188fsi    FSI 2184   3.170   2.562   3.455 -0.7975  0.0062  0.5083
  188fsi    SBT 2185   3.070   2.441   3.464  0.4642 -0.4270  0.2412
  188fsi    NBT 2186   2.952   2.501   3.553 -0.9114  0.0606 -0.2965
  188fsi    OBT 2187   3.040   2.417   3.327  0.2393 -0.1021  0.1691
  188fsi    OBT 2188   3.142   2.344   3.544  0.2078 -0.0208  0.6298
  188fsi    SBT 2189   2.801   2.490   3.529  0.1380 -0.0230  0.3001
  188fsi    OBT 2190   2.760   2.520   3.393  0.4001 -0.3967  0.4367
  188fsi    OBT 2191   2.736   2.560   3.636  0.3433 -0.0646 -0.4059
  188fsi    FSI 2192   2.763   2.334   3.549 -0.3476  0.2683 -0.1058
  189fsi    FSI 2193   3.633   4.908   4.463  0.2545 -0.5962  0.0156
  189fsi    SBT 2194   3.711   4.885   4.328  0.3185  0.1024 -0.0565
  189fsi    NBT 2195   3.859   4.926   4.362 -0.6073  0.3152  0.4975
  189fsi    OBT 2196   3.687   4.748   4.299  0.1304  0.4633 -0.4226
  189fsi    OBT 2197   3.646   4.982   4.246  0.1217 -0.1167 -0.0409
  189fsi    SBT 2198   3.986   4.835   4.396  0.3116  0.3679 -0.5877
  189fsi    OBT 2199   4.093   4.872   4.309  0.8270 -0.2230  0.1154
  189fsi    OBT 2200   3.946   4.699   4.410  0.0796  0.4371  0.5747
  189fsi    FSI 2201   4.032   4.870   4.545  0.2232  0.2604 -0.3360
  190fsi    FSI 2202   4.407   6.268   3.213 -0.0128  0.3096 -0.3379
  190fsi    SBT 2203   4.265   6.299   3.273 -0.1297 -0.2360 -0.4772
  190fsi    NBT 2204   4.237   6.445   3.240  0.2670 -0.0337  0.2342
  190fsi    OBT 2205   4.183   6.206   3.200  0.7063 -0.1394  0.0011
  190fsi    OBT 2206   4.280   6.273   3.408 -0.0333  0.3441 -0.2309
  190fsi    SBT 2207   4.169   6.521   3.126  0.1597 -0.3407 -0.2891
  190fsi    OBT 2208   4.055   6.594   3.178 -0.2402  0.2320 -0.3640
  190fsi    OBT 2209   4.164   6.462   2.998  0.0734  0.2856  0.2993
  190fsi    FSI 2210   4.267   6.647   3.111  0.1586  0.4406 -0.1169
  191fsi    FSI 2211   4.260   5.175   3.804 -0.2490  0.2591 -0.5096
  191fsi    SBT 2212   4.202   5.327   3.809 -0.1814 -0.2358 -0.0197
  191fsi    NBT 2213   4.047   5.302   3.835 -0.2955  0.2185  0.2592
  191fsi    OBT 2214   4.276   5.385   3.920 -0.7695 -0.0738 -0.0186
  191fsi    OBT 2215   4.236   5.371   3.675  0.1728 -0.5565 -0.1633
  191fsi    SBT 2216   3.927   5.292   3.737  0.3182 -0.7393  0.0720
  191fsi    OBT 2217   3.957   5.315   3.599  0.1534  0.3444  0.4085
  191fsi    OBT 2218   3.806   5.348   3.784 -0.6048  0.4033 -0.7841
  191fsi    FSI 2219   3.899   5.136   3.729 -0.5199 -0.0901  0.6099
  192fsi    FSI 2220   3.019   4.130   2.771  0.2204  0.5693  0.0203
  192fsi    SBT 2221   2.995   3.995   2.701 -0.2200  0.3600  0.0217
  192fsi    NBT 2222   2.846   3.961   2.735 -0.2305 -0.9922  0.0060
  192fsi    OBT 2223   3.026   4.021   2.563 -0.3801 -0.0749  0.0508
  192fsi    OBT 2224   3.073   3.903   2.770  0.3020 -0.1794  0.2464
  192fsi    SBT 2225   2.715   3.975   2.643 -0.3536 -0.0530 -0.0081
  192fsi    OBT 2226   2.597   3.945   2.721 -0.3003  0.0982  0.1942
  192fsi    OBT 2227   2.721   3.920   2.510 -0.0242 -0.1296 -0.2921
  192fsi    FSI 2228   2.710   4.120   2.626  0.1552 -0.2290 -0.3990
  193fsi    FSI 2229   3.967   0.665   3.536  0.2133  0.6162 -0.2531
  193fsi    SBT 2230   3.933   0.677   3.386  0.2290 -0.1447 -0.2338
  193fsi    NBT 2231   3.800   0.586   3.380 -0.2122  0.1468 -1.0058
  193fsi    OBT 2232   3.911   0.818   3.364 -0.1651 -0.1006 -0.0657
  193fsi    OBT 2233   4.043   0.603   3.330 -0.8403 -0.7465 -0.0953
  193fsi    SBT 2234   3.676   0.616   3.283  0.0431  0.0733  0.2246
  193fsi    OBT 2235   3.686   0.743   3.211  0.2312  0.1292  0.1926
  193fsi    OBT 2236   3.547   0.572   3.338  0.4982  0.1851 -0.1831
  193fsi    FSI 2237   3.703   0.511   3.170  0.0762  0.0419 -0.1251
  194fsi    FSI 2238   1.564   1.929   3.604  0.4306  0.4405 -0.1356
  194fsi    SBT 2239   1.519   2.076   3.584  0.0703 -0.0153  0.2419
  194fsi    NBT 2240   1.454   2.111   3.718 -0.2300 -0.0967  0.7546
  194fsi    OBT 2241   1.650   2.138   3.574  0.4904 -0.3018 -0.3008
  194fsi    OBT 2242   1.431   2.068   3.471 -0.1049  0.5808 -0.4420
  194fsi    SBT 2243   1.312   2.163   3.747  0.4943 -0.5110 -0.0274
  194fsi    OBT 2244   1.219   2.181   3.639 -0.2427 -0.6505 -0.2866
  194fsi    OBT 2245   1.328   2.269   3.838 -0.1288  0.0421  0.0538
  194fsi    FSI 2246   1.256   2.036   3.834  0.1851 -0.1962  0.2435
  195fsi    FSI 2247   1.479   2.951   2.782 -0.1350  0.5966  0.6285
  195fsi    SBT 2248   1.457   2.932   2.941  0.1155  0.1857  0.2625
  195fsi    NBT 2249   1.600   2.955   2.997  0.2813  0.0217 -0.2467
  195fsi    OBT 2250   1.368   3.038   2.974  0.4701 -0.5422 -0.2653
  195fsi    OBT 2251   1.405   2.798   2.965 -0.3370 -0.2200  0.0874
  195fsi    SBT 2252   1.676   3.086   3.048  0.0320  0.1588  0.0573
  195fsi    OBT 2253   1.730   3.056   3.176  0.5343 -1.0527 -0.0791
  195fsi    OBT 2254   1.605   3.208   3.023  0.2689  0.5094 -0.0042
  195fsi    FSI 2255   1.790   3.088   2.936 -0.6577 -0.0901  0.2174
  196fsi    FSI 2256   4.507   5.070   3.030 -0.5903  0.2546 -0.1720
  196fsi    SBT 2257   4.402   5.180   3.050 -0.2138  0.3458 -0.3290
  196fsi    NBT 2258   4.309   5.185   2.921 -0.3144  0.4303 -0.4927
  196fsi    OBT 2259   4.346   5.159   3.182  0.0724 -0.2971  0.3372
  196fsi    OBT 2260   4.476   5.302   3.038 -0.0941 -0.9980  0.0490
  196fsi    SBT 2261   4.186   5.080   2.893 -0.0560 -0.2690 -0.5478
  196fsi    OBT 2262   4.117   5.129   2.778 -0.2163  0.4188  0.1304
  196fsi    OBT 2263   4.116   5.029   3.009  0.2882  0.8930 -0.1368
  196fsi    FSI 2264   4.265   4.963   2.844 -0.5724 -0.2187  0.5308
  197fsi    FSI 2265   2.790   6.405   3.849  0.1550  0.0691 -0.0854
  197fsi    SBT 2266   2.895   6.514   3.894  0.4006  0.1891 -0.1811
  197fsi    NBT 2267   2.873   6.528   4.054  0.2340  0.4922  0.0244
  197fsi    OBT 2268   3.023   6.461   3.850  0.0790  0.2864  0.1344
  197fsi    OBT 2269   2.842   6.626   3.825 -0.0582 -0.0716 -0.2156
  197fsi    SBT 2270   2.968   6.473   4.168 -0.3110  0.3031  0.4365
  197fsi    OBT 2271   3.003   6.571   4.269  0.2879 -0.4671  0.0622
  197fsi    OBT 2272   3.067   6.391   4.107  0.1862 -0.1795  0.0028
  197fsi    FSI 2273   2.872   6.374   4.246  0.0450 -0.2206  0.0826
  198fsi    FSI 2274   3.331   2.104   3.545 -0.1543  0.0357 -0.3308
  198fsi    SBT 2275   3.367   2.028   3.675  0.0328  0.2264  0.1558
  198fsi    NBT 2276   3.325   1.889   3.619  0.4638  0.2600 -0.3920
  198fsi    OBT 2277   3.506   2.046   3.691  0.0400  0.1805 -0.8809
  198fsi    OBT 2278   3.281   2.078   3.777 -0.1634 -1.0563 -0.4664
  198fsi    SBT 2279   3.417   1.785   3.545 -0.0217 -0.2188 -0.0298
  198fsi    OBT 2280   3.537   1.831   3.483 -0.0109  0.0018  0.3072
  198fsi    OBT 2281   3.337   1.699   3.466 -0.0857 -0.1057 -0.1329
  198fsi    FSI 2282   3.461   1.680   3.655  0.4027 -0.1037 -0.6204
  199fsi    FSI 2283   2.352   1.641   3.793  0.7149 -0.5636  0.1148
  199fsi    SBT 2284   2.264   1.537   3.880  0.0214 -0.1812 -0.0989
  199fsi    NBT 2285   2.348   1.408   3.870  0.0555 -0.1823 -0.1475
  199fsi    OBT 2286   2.260   1.606   4.009 -0.1864  0.1689 -0.3166
  199fsi    OBT 2287   2.143   1.521   3.804  0.1973 -0.1065 -0.2710
  199fsi    SBT 2288   2.467   1.358   3.956 -0.3990 -0.1706 -0.0907
  199fsi    OBT 2289   2.493   1.433   4.078 -0.4526 -0.0344  0.3070
  199fsi    OBT 2290   2.575   1.309   3.880  0.0730  0.1906  0.0543
  199fsi    FSI 2291   2.411   1.220   4.008  0.8351  0.1733  0.0583
  200fsi    FSI 2292   2.899   1.295   4.304  0.2398  0.3138 -0.3189
  200fsi    SBT 2293   2.973   1.356   4.174 -0.0894  0.0986 -0.1680
  200fsi    NBT 2294   3.033   1.230   4.102 -0.1849  0.2533 -0.6796
  200fsi    OBT 2295   2.860   1.404   4.100  0.1706  0.6313 -0.2092
  200fsi    OBT 2296   3.071   1.448   4.227 -0.1054 -0.0715  0.0794
  200fsi    SBT 2297   2.970   1.135   3.994 -0.0221 -0.3073  0.2417
  200fsi    OBT 2298   3.066   1.039   3.947 -0.6136 -0.0866 -0.2782
  200fsi    OBT 2299   2.889   1.202   3.897  0.5733 -0.3067  0.3759
  200fsi    FSI 2300   2.859   1.053   4.064 -0.2398  0.3735 -0.2273
   6.66170   6.66170   6.66170
