simbox
 2300
    1Li      Li    1   1.994   2.246   2.131 -0.6428  0.8017  0.1769
    2Li      Li    2   1.095   2.334   0.339 -0.4882 -1.0052 -1.0242
    3Li      Li    3   2.156   0.828   0.680 -0.6077 -1.3916  0.5991
    4Li      Li    4   2.069   0.762   0.110  0.1010 -0.1282  0.7078
    5Li      Li    5   2.334   0.141   2.255  0.1167 -0.8519  0.5704
    6Li      Li    6   0.758   0.968   1.487 -0.1105  0.9762 -0.5577
    7Li      Li    7   1.487   2.375   2.788  1.0785  1.0226  0.4603
    8Li      Li    8   1.946   2.770   0.239 -0.6425 -0.1650 -0.4806
    9Li      Li    9   0.209   1.682   0.476  0.5595  0.7388  0.9665
   10Li      Li   10   2.956   2.215   2.576  1.2373 -0.6483  0.5433
   11Li      Li   11   2.133   0.968   1.653  0.1705 -0.1850 -0.1219
   12Li      Li   12   1.378   1.389   2.191  1.1313 -0.0889  0.6927
   13Li      Li   13   0.197   2.701   1.493  0.6701  0.1643 -0.1781
   14Li      Li   14   1.800   0.959   1.061  1.0437  1.6201 -0.9605
   15Li      Li   15   0.214   1.707   0.032 -0.4172 -1.3923  0.2174
   16Li      Li   16   2.032   2.830   1.301 -0.0586 -1.0363  0.5915
   17Li      Li   17   0.187   0.177   2.417  0.3386 -0.3752  1.3778
   18Li      Li   18   2.378   2.287   1.968 -0.4701 -0.4373 -0.1124
   19Li      Li   19   0.121   2.524   0.345  0.7160  0.1907 -0.6662
   20Li      Li   20   2.360   1.203   0.068  0.7002  0.9885 -0.2073
   21Li      Li   21   0.508   1.388   2.966  0.2912  0.5452 -0.1430
   22Li      Li   22   2.583   2.651   2.497  0.4985 -0.5971 -0.4297
   23Li      Li   23   2.286   0.287   1.562 -0.7872 -0.8415 -0.7667
   24Li      Li   24   2.556   2.555   0.141 -0.0705  0.2215  0.1579
   25Li      Li   25   1.239   0.892   2.085  0.1552  0.1121  0.3597
   26Li      Li   26   2.751   0.441   0.354 -0.4087 -0.4913  0.2867
   27Li      Li   27   2.598   2.693   1.545 -0.7200  0.5987 -0.2917
   28Li      Li   28   2.953   2.062   0.091 -0.1579 -0.2051  0.1196
   29Li      Li   29   1.129   0.232   2.118 -0.4577  0.9590 -0.2896
   30Li      Li   30   2.549   0.891   0.310  0.3983 -0.3055  0.6960
   31Li      Li   31   2.751   1.233   2.001 -1.2040  0.1935  0.1694
   32Li      Li   32   0.950   0.710   1.101  0.1152  0.4055  0.2580
   33Li      Li   33   0.904   1.449   1.835  0.7398 -0.3941  0.5010
   34Li      Li   34   0.372   2.441   2.804  0.2950  0.2949 -0.9505
   35Li      Li   35   2.522   1.676   0.560 -0.3514 -0.4465 -1.0700
   36Li      Li   36   2.532   0.718   2.022 -0.7514 -0.1498  0.7288
   37Li      Li   37   1.069   2.907   0.833 -0.0490  0.9893  0.7591
   38Li      Li   38   0.504   2.132   0.354  0.7898  0.3135  0.3660
   39Li      Li   39   0.644   0.396   2.902  0.2610  0.5367  0.0752
   40Li      Li   40   0.242   0.666   2.784 -0.8969 -0.3153 -0.8607
   41Li      Li   41   1.315   2.298   2.222  0.8604 -0.3359 -0.5385
   42Li      Li   42   2.862   0.436   2.196  0.1118  0.0988 -0.6071
   43Li      Li   43   0.149   0.880   1.758  0.0786 -0.4598  0.8569
   44Li      Li   44   1.919   2.205   1.252 -0.7061 -0.9442  0.3802
   45Li      Li   45   2.419   2.065   1.526 -0.3742 -0.1352 -0.4216
   46Li      Li   46   2.282   2.987   0.159 -1.0094  0.0418 -0.5890
   47Li      Li   47   0.438   0.207   1.915  1.0199  0.9222 -0.4827
   48Li      Li   48   0.695   0.591   1.931  0.0040  0.4561  0.7614
   49Li      Li   49   1.901   2.820   1.938  0.7770  0.2300  0.3968
   50Li      Li   50   2.168   2.841   1.680  1.0046 -1.3893  0.2458
   51c3c      N   51   2.019   2.373   2.656 -0.5492  0.2136 -0.7732
   51c3c     C1   52   1.982   2.433   2.787 -0.3655  0.1629 -0.4844
   51c3c     C2   53   2.164   2.359   2.680 -0.3524 -0.9172  0.0475
   51c3c     C3   54   2.062   2.361   2.891  0.1761  0.9196  0.0605
   51c3c     C4   55   2.194   2.321   2.824 -0.4558 -0.0687 -0.3397
   51c3c     C5   56   1.959   2.242   2.640  0.7245 -0.6507 -0.2900
   51c3c     C6   57   1.983   2.458   2.540 -0.6060  0.4281  0.2815
   51c3c     H1   58   1.875   2.434   2.807 -0.5731 -0.6224 -1.5270
   51c3c     H2   59   2.019   2.536   2.784 -0.2860  0.1023 -1.8917
   51c3c     H3   60   2.209   2.298   2.602  2.2825  1.2309 -0.1540
   51c3c     H4   61   2.211   2.456   2.671 -1.1759 -0.4219  0.9166
   51c3c     H5   62   2.003   2.274   2.921  0.8392 -0.4205 -2.4025
   51c3c     H6   63   2.064   2.422   2.981  1.0171  1.7208 -0.4878
   51c3c     H7   64   2.212   2.215   2.836 -3.7566 -0.5088  1.3782
   51c3c     H8   65   2.282   2.374   2.860 -0.3241  1.1482 -2.3524
   51c3c     H9   66   1.958   2.172   2.724  1.6316  1.5153  1.5651
   51c3c    H10   67   1.851   2.256   2.630  0.5779 -1.9712 -0.7137
   51c3c    H11   68   1.984   2.190   2.548  0.5314  1.0040 -1.2870
   51c3c    H12   69   1.994   2.405   2.446 -0.9677  0.1719  0.3821
   51c3c    H13   70   1.878   2.485   2.536 -0.5449  0.7150  0.5644
   51c3c     C7   71   2.057   2.587   2.522 -0.5858 -0.3838 -0.0710
   51c3c    H14   72   2.162   2.563   2.511 -0.3680  0.4737  0.0976
   51c3c    H15   73   2.059   2.658   2.605  0.4339 -0.8713  0.3277
   51c3c     C8   74   2.012   2.669   2.397 -0.0129 -0.6375 -0.3900
   51c3c    H16   75   2.024   2.596   2.317 -0.8718 -1.4172  0.1768
   51c3c    H17   76   2.059   2.766   2.382 -0.4972  0.1797  2.8504
   51c3c    H18   77   1.909   2.702   2.410  0.0948 -0.0405 -1.0463
   52c3c      N   78   1.652   0.454   0.463  0.1279 -0.3846  0.4217
   52c3c     C1   79   1.524   0.515   0.490  0.1351  0.6192  0.1303
   52c3c     C2   80   1.611   0.354   0.359 -1.0583 -0.3070  0.0936
   52c3c     C3   81   1.462   0.537   0.355  0.4684  0.3322 -0.4760
   52c3c     C4   82   1.527   0.438   0.261 -0.5151 -0.0897 -0.7360
   52c3c     C5   83   1.741   0.563   0.416 -0.5405  0.1067 -0.0077
   52c3c     C6   84   1.722   0.395   0.578 -0.4558  0.1458  0.4539
   52c3c     H1   85   1.523   0.598   0.560  1.1233  1.0919 -0.4123
   52c3c     H2   86   1.456   0.449   0.545 -1.6265  1.8593 -0.5035
   52c3c     H3   87   1.694   0.311   0.302 -0.0142  2.5642 -0.6738
   52c3c     H4   88   1.551   0.277   0.407 -0.3521 -0.6134  0.5069
   52c3c     H5   89   1.493   0.638   0.327  0.5064  0.5869  0.4888
   52c3c     H6   90   1.353   0.529   0.355  0.3815  0.8617 -3.2990
   52c3c     H7   91   1.584   0.493   0.185  1.4996  0.6154  1.2448
   52c3c     H8   92   1.456   0.380   0.203 -3.0456  2.4076 -0.2283
   52c3c     H9   93   1.765   0.635   0.494  0.1153 -0.6766  0.5198
   52c3c    H10   94   1.828   0.510   0.379 -0.2866  1.9503 -2.1509
   52c3c    H11   95   1.706   0.621   0.331 -2.4674 -1.4038 -0.2797
   52c3c    H12   96   1.813   0.348   0.542 -1.4744 -0.8027 -0.9713
   52c3c    H13   97   1.744   0.480   0.641  1.0503 -0.6097  0.9679
   52c3c     C7   98   1.640   0.287   0.656 -0.0540  0.1771 -0.3751
   52c3c    H14   99   1.616   0.206   0.588 -1.2946  1.3205 -1.3188
   52c3c    H15  100   1.549   0.327   0.702  0.5111 -0.5274  1.4167
   52c3c     C8  101   1.715   0.230   0.778 -0.3634  0.6450 -0.5870
   52c3c    H16  102   1.689   0.127   0.805 -2.4375  1.0651 -0.9170
   52c3c    H17  103   1.707   0.294   0.866 -2.9017  0.7129 -0.8523
   52c3c    H18  104   1.820   0.212   0.753 -0.7429 -1.1271 -1.0267
   53c3c      N  105   0.225   1.506   1.686  0.1762 -0.0217 -0.3222
   53c3c     C1  106   0.332   1.435   1.614 -0.0879 -0.1907 -0.1849
   53c3c     C2  107   0.149   1.407   1.766  0.1197 -0.0374  0.2474
   53c3c     C3  108   0.362   1.320   1.706  0.1371  0.7479 -0.1308
   53c3c     C4  109   0.225   1.275   1.763 -0.5726  0.0390 -0.0894
   53c3c     C5  110   0.281   1.612   1.768 -0.7727 -0.2907 -0.2665
   53c3c     C6  111   0.138   1.581   1.589 -0.2507  0.1465 -0.1832
   53c3c     H1  112   0.426   1.490   1.610 -1.3766  2.0061 -2.0193
   53c3c     H2  113   0.316   1.416   1.508  1.5602 -1.2931 -0.2501
   53c3c     H3  114   0.125   1.452   1.863  4.1791  1.4584  0.6933
   53c3c     H4  115   0.058   1.381   1.713  0.5098  0.7855 -0.8343
   53c3c     H5  116   0.425   1.342   1.792  0.6895  0.2143 -0.3987
   53c3c     H6  117   0.426   1.240   1.669 -3.5675 -2.0634 -0.7244
   53c3c     H7  118   0.228   1.226   1.860 -0.8193 -1.0863 -0.6524
   53c3c     H8  119   0.179   1.210   1.689 -0.5030 -0.0572 -0.0483
   53c3c     H9  120   0.330   1.682   1.701 -0.6984 -0.2558 -0.1772
   53c3c    H10  121   0.206   1.660   1.830  0.0500  0.6329  0.0428
   53c3c    H11  122   0.360   1.584   1.839 -1.3456 -0.8349  0.1606
   53c3c    H12  123   0.054   1.613   1.650 -1.2619  1.2407 -2.1166
   53c3c    H13  124   0.184   1.667   1.541 -1.6241  1.0252  0.0473
   53c3c     C7  125   0.076   1.498   1.475  0.0577  0.3779  0.7981
   53c3c    H14  126   0.036   1.404   1.512 -0.6768  1.0726  1.7949
   53c3c    H15  127   0.149   1.478   1.397  0.6564 -2.2578  1.9861
   53c3c     C8  128  -0.039   1.570   1.406 -0.0132 -0.3470  0.4747
   53c3c    H16  129  -0.094   1.502   1.341  0.4119 -0.1220 -0.1266
   53c3c    H17  130  -0.014   1.650   1.336 -0.2139 -1.3274 -0.7364
   53c3c    H18  131  -0.105   1.621   1.476  0.2728  1.4669 -0.5262
   54c3c      N  132   0.260   2.215   0.919 -0.2431 -0.0973  0.0615
   54c3c     C1  133   0.142   2.299   0.930  0.1563  0.1950 -0.3200
   54c3c     C2  134   0.202   2.081   0.954  0.2471  0.1900 -0.4712
   54c3c     C3  135   0.030   2.216   0.860 -0.4997  0.5746  0.2812
   54c3c     C4  136   0.070   2.067   0.878 -0.3980 -0.0202 -0.1349
   54c3c     C5  137   0.317   2.212   0.784 -0.9180 -0.0019  0.0684
   54c3c     C6  138   0.375   2.243   1.011 -0.2169  0.0819  0.3169
   54c3c     H1  139   0.156   2.398   0.887  0.2611  0.9077  1.3366
   54c3c     H2  140   0.110   2.304   1.034 -4.3329 -0.0737 -1.5690
   54c3c     H3  141   0.267   1.994   0.942 -2.3285 -1.9861  0.7842
   54c3c     H4  142   0.165   2.078   1.056  2.1603 -0.6231  0.2369
   54c3c     H5  143   0.022   2.245   0.755  1.4502 -0.4174 -0.1722
   54c3c     H6  144  -0.066   2.239   0.905 -0.8798 -3.0711  1.4861
   54c3c     H7  145   0.085   2.027   0.777  0.1670  0.1900 -0.1378
   54c3c     H8  146  -0.008   2.010   0.928  0.6774 -0.2920  1.2364
   54c3c     H9  147   0.391   2.134   0.766  0.1350  0.3902  2.4764
   54c3c    H10  148   0.240   2.189   0.710  1.6402  0.6634 -2.9043
   54c3c    H11  149   0.363   2.307   0.758 -1.5267  0.4815  0.7505
   54c3c    H12  150   0.446   2.161   0.996 -0.7694 -0.8200  2.4403
   54c3c    H13  151   0.433   2.330   0.982  0.6327 -0.3146  0.8008
   54c3c     C7  152   0.344   2.234   1.161  0.2310  0.1070  0.1451
   54c3c    H14  153   0.323   2.129   1.181  1.9094 -0.0878  0.9756
   54c3c    H15  154   0.259   2.287   1.203  0.4004 -0.5130  1.2852
   54c3c     C8  155   0.466   2.281   1.248 -0.0974 -0.0276  0.1406
   54c3c    H16  156   0.462   2.214   1.333 -1.9367 -0.4386 -0.2435
   54c3c    H17  157   0.458   2.385   1.280  1.2130  0.3961 -0.8606
   54c3c    H18  158   0.554   2.259   1.187 -0.3337  0.7682 -0.4991
   55c3c      N  159   0.053   2.895   0.866 -0.4478  0.2895 -0.5995
   55c3c     C1  160   0.129   2.774   0.824 -0.0030 -0.4741 -0.0990
   55c3c     C2  161   0.110   2.920   0.999 -0.1880 -0.0011 -0.2446
   55c3c     C3  162   0.274   2.800   0.875  0.6764  0.0164 -0.6101
   55c3c     C4  163   0.257   2.893   0.992  0.1673 -0.1220  0.0143
   55c3c     C5  164   0.098   3.001   0.775  0.2653 -0.5044 -0.4495
   55c3c     C6  165  -0.094   2.889   0.865 -0.0714  0.6432  0.1921
   55c3c     H1  166   0.109   2.738   0.723 -3.0639 -3.6374  1.5066
   55c3c     H2  167   0.097   2.685   0.878 -2.8224  1.1028  0.9502
   55c3c     H3  168   0.078   3.017   1.037  1.6778  1.1672 -1.5665
   55c3c     H4  169   0.081   2.850   1.077  0.7811 -0.2684 -0.1147
   55c3c     H5  170   0.336   2.850   0.800 -0.8431  0.6100 -1.5088
   55c3c     H6  171   0.316   2.701   0.893  0.5355  0.0231 -0.2439
   55c3c     H7  172   0.320   2.981   0.980 -1.2733  0.9974  0.4884
   55c3c     H8  173   0.285   2.829   1.075 -0.2356  0.8044  0.8780
   55c3c     H9  174   0.061   2.982   0.674  0.9252 -0.8508 -0.6314
   55c3c    H10  175   0.073   3.102   0.806  0.5228 -0.6161  0.1367
   55c3c    H11  176   0.205   3.005   0.757  0.0829  1.2595 -1.2200
   55c3c    H12  177  -0.134   2.987   0.891  1.5404  1.5218 -0.5503
   55c3c    H13  178  -0.118   2.863   0.762 -0.9656 -2.7793  1.1946
   55c3c     C7  179  -0.164   2.769   0.933  0.4625 -0.6193  0.3754
   55c3c    H14  180  -0.146   2.781   1.040 -2.4878  1.8942  0.6491
   55c3c    H15  181  -0.118   2.675   0.902  0.0189 -0.5434 -0.5294
   55c3c     C8  182  -0.314   2.764   0.921  0.2251  0.3704  0.1940
   55c3c    H16  183  -0.364   2.720   1.007  2.1479 -2.0480  0.1104
   55c3c    H17  184  -0.330   2.703   0.833 -0.6971 -0.0515  0.6458
   55c3c    H18  185  -0.357   2.864   0.907 -2.0901 -0.9427 -2.4433
   56c3c      N  186   1.895   1.701   0.951 -0.1257 -0.1722  0.0870
   56c3c     C1  187   1.855   1.605   0.842  0.1483 -0.2103  0.0375
   56c3c     C2  188   1.964   1.611   1.048  0.7531  0.2355  0.4369
   56c3c     C3  189   1.977   1.514   0.827  0.3157 -0.0097  0.2347
   56c3c     C4  190   2.044   1.512   0.965 -0.4159  0.2639 -0.2573
   56c3c     C5  191   1.983   1.813   0.914 -0.4825 -0.4261  0.0883
   56c3c     C6  192   1.780   1.775   1.004 -0.1799 -0.3962 -0.0875
   56c3c     H1  193   1.833   1.664   0.754 -0.4659 -0.8945 -0.2752
   56c3c     H2  194   1.769   1.540   0.860  1.0396 -1.1149  1.1863
   56c3c     H3  195   2.031   1.660   1.119  2.1347 -2.9172  1.3794
   56c3c     H4  196   1.902   1.551   1.115 -3.4154 -0.1606 -3.5158
   56c3c     H5  197   2.049   1.558   0.757 -0.9454 -1.3317 -1.9661
   56c3c     H6  198   1.954   1.413   0.792  1.8705 -0.0583 -0.7160
   56c3c     H7  199   2.149   1.539   0.952 -0.6503  0.5986 -1.5175
   56c3c     H8  200   2.036   1.416   1.016 -2.4924  0.1477 -0.7312
   56c3c     H9  201   1.955   1.872   0.826  0.0942 -0.0334  0.1596
   56c3c    H10  202   2.003   1.878   0.999  0.8488 -2.1547  1.1232
   56c3c    H11  203   2.081   1.779   0.877  0.3990 -0.3854  2.3324
   56c3c    H12  204   1.813   1.842   1.083  0.5609 -0.0151 -0.7147
   56c3c    H13  205   1.731   1.830   0.924  0.3444  1.8918  1.1237
   56c3c     C7  206   1.666   1.694   1.077  0.0202 -0.3265  0.2597
   56c3c    H14  207   1.726   1.648   1.155  1.7377 -1.5964 -1.7483
   56c3c    H15  208   1.618   1.625   1.008  0.6778  0.1089 -0.6416
   56c3c     C8  209   1.559   1.793   1.137  0.2810  0.9575 -0.6052
   56c3c    H16  210   1.522   1.862   1.061 -2.3829  1.8010  1.3939
   56c3c    H17  211   1.611   1.852   1.212 -2.1351  1.2513  0.8925
   56c3c    H18  212   1.478   1.737   1.184  1.0475 -1.2012 -1.8014
   57c3c      N  213   0.770   0.152   1.303  0.6162 -0.0283  0.1556
   57c3c     C1  214   0.744   0.109   1.439  0.1299  0.2076  0.5240
   57c3c     C2  215   0.662   0.255   1.293 -0.8016  0.2029  0.1774
   57c3c     C3  216   0.711   0.237   1.528  0.0360  1.2099  0.0925
   57c3c     C4  217   0.652   0.330   1.425  0.3195  0.1250  0.1436
   57c3c     C5  218   0.903   0.214   1.307  0.5828 -0.0562  0.1367
   57c3c     C6  219   0.770   0.056   1.189 -0.2303  0.4392  0.1767
   57c3c     H1  220   0.826   0.049   1.477  1.0373  0.9959 -0.1596
   57c3c     H2  221   0.660   0.040   1.439 -0.9605  1.5173  0.2173
   57c3c     H3  222   0.681   0.322   1.209 -0.9016  1.1700  0.9108
   57c3c     H4  223   0.563   0.218   1.266 -1.1532  1.9026 -1.0031
   57c3c     H5  224   0.796   0.283   1.579  0.9906 -0.3278 -0.1035
   57c3c     H6  225   0.649   0.198   1.609 -0.6245  1.3600 -0.3344
   57c3c     H7  226   0.720   0.414   1.412 -0.0899  0.5911  1.0373
   57c3c     H8  227   0.547   0.352   1.445  0.4271  0.3841  0.4136
   57c3c     H9  228   0.948   0.241   1.212 -1.0058  2.8417  0.1476
   57c3c    H10  229   0.907   0.300   1.374 -0.6685 -0.7760  1.1594
   57c3c    H11  230   0.975   0.139   1.341 -0.5721 -1.5300 -0.6266
   57c3c    H12  231   0.803   0.110   1.100 -0.8641  1.4609  0.5496
   57c3c    H13  232   0.848  -0.016   1.215 -2.1955 -1.7818  0.1296
   57c3c     C7  233   0.641  -0.010   1.156  0.6669  0.2710  0.4036
   57c3c    H14  234   0.564   0.054   1.114  0.3352 -0.5103 -0.1997
   57c3c    H15  235   0.606  -0.050   1.251 -0.8678  4.8918  1.8748
   57c3c     C8  236   0.682  -0.126   1.067 -0.4729  0.5559 -0.1914
   57c3c    H16  237   0.624  -0.214   1.096  0.9518 -1.4549 -3.1265
   57c3c    H17  238   0.788  -0.148   1.059  0.0111  2.4952  0.5825
   57c3c    H18  239   0.655  -0.101   0.965 -1.7668 -1.7241 -0.4385
   58c3c      N  240   1.691   2.045   0.351  0.1877 -0.4653 -0.7076
   58c3c     C1  241   1.814   2.073   0.430  0.0319 -0.8072  0.1256
   58c3c     C2  242   1.590   2.010   0.447  0.1654  0.2035 -0.6783
   58c3c     C3  243   1.767   2.128   0.571 -0.2241 -0.3018 -0.1454
   58c3c     C4  244   1.615   2.108   0.563 -0.2647  0.2862  0.2797
   58c3c     C5  245   1.653   2.173   0.293  0.5564 -0.0271  0.1752
   58c3c     C6  246   1.696   1.949   0.248 -0.0457 -0.1885 -0.2870
   58c3c     H1  247   1.884   2.140   0.380  0.2365 -0.6336  0.6419
   58c3c     H2  248   1.872   1.983   0.448  0.3082 -0.4922  0.8382
   58c3c     H3  249   1.489   2.027   0.409 -0.8374 -0.0153  1.7836
   58c3c     H4  250   1.592   1.905   0.475 -0.4047  0.4145  0.1752
   58c3c     H5  251   1.793   2.228   0.603 -0.6190 -0.0198 -0.6969
   58c3c     H6  252   1.802   2.050   0.639  0.5841  0.1292 -0.0626
   58c3c     H7  253   1.562   2.199   0.535 -0.5799 -0.3504 -1.2083
   58c3c     H8  254   1.562   2.077   0.653 -0.1735  1.3818  0.7209
   58c3c     H9  255   1.669   2.256   0.362  1.5508  1.1828 -1.4860
   58c3c    H10  256   1.701   2.206   0.202 -1.7376  0.5613 -0.8592
   58c3c    H11  257   1.552   2.184   0.254  0.5284 -1.2030 -0.0990
   58c3c    H12  258   1.605   1.939   0.188  1.7285  1.5329 -3.4190
   58c3c    H13  259   1.772   1.987   0.179  0.0555 -0.1603 -0.1588
   58c3c     C7  260   1.742   1.803   0.279  0.2320  0.3754 -0.3829
   58c3c    H14  261   1.667   1.742   0.330  0.5754  0.8235  0.6646
   58c3c    H15  262   1.824   1.812   0.350 -1.2762  0.6143  1.3694
   58c3c     C8  263   1.786   1.747   0.148  0.2514 -0.1351  0.2031
   58c3c    H16  264   1.704   1.728   0.078 -0.1050  0.1883  0.5306
   58c3c    H17  265   1.855   1.663   0.159 -1.4356 -1.4638  0.7885
   58c3c    H18  266   1.858   1.811   0.096 -0.9448  1.2923  0.2576
   59c3c      N  267   1.059   2.656   1.904  0.5369 -0.3128 -0.5948
   59c3c     C1  268   1.025   2.791   1.854 -1.1561  0.4944 -0.3980
   59c3c     C2  269   1.169   2.619   1.810  0.3251  0.3725 -0.2370
   59c3c     C3  270   1.156   2.857   1.819 -1.2241 -0.2739  0.5798
   59c3c     C4  271   1.256   2.748   1.786 -0.4922  0.6053  0.3580
   59c3c     C5  272   1.112   2.657   2.044 -0.6675 -0.0484  0.3478
   59c3c     C6  273   0.945   2.565   1.909  0.1907  0.0219  0.2444
   59c3c     H1  274   0.965   2.859   1.915 -0.5426  0.5873  0.1139
   59c3c     H2  275   0.967   2.774   1.764  0.7142  1.0541 -1.7432
   59c3c     H3  276   1.227   2.537   1.854 -0.0993 -0.4658 -1.2403
   59c3c     H4  277   1.138   2.586   1.711  0.3902 -2.0840  0.5125
   59c3c     H5  278   1.191   2.902   1.912 -0.2145  1.0327 -0.4158
   59c3c     H6  279   1.152   2.926   1.735 -0.4519 -0.0465  0.7304
   59c3c     H7  280   1.344   2.750   1.850  0.8392  2.5288 -1.4373
   59c3c     H8  281   1.294   2.756   1.684  1.1047  0.8423  0.9535
   59c3c     H9  282   1.040   2.697   2.115  1.2158  0.3921  2.0286
   59c3c    H10  283   1.141   2.555   2.065  1.4181  0.8466  1.9763
   59c3c    H11  284   1.205   2.713   2.053 -0.1542 -0.5447 -1.5355
   59c3c    H12  285   0.981   2.474   1.955  1.9586  0.4329 -0.2748
   59c3c    H13  286   0.863   2.594   1.974  0.1503 -1.6683  0.9407
   59c3c     C7  287   0.877   2.516   1.777  0.1762  0.8056  0.5310
   59c3c    H14  288   0.937   2.462   1.705 -0.8134 -0.9468  0.9981
   59c3c    H15  289   0.815   2.592   1.730 -0.0041  1.1935  1.3748
   59c3c     C8  290   0.763   2.415   1.815 -0.1143  0.1281 -0.1841
   59c3c    H16  291   0.679   2.463   1.865  0.2336  2.5534 -1.8304
   59c3c    H17  292   0.801   2.352   1.895 -0.9085 -1.4591 -1.0285
   59c3c    H18  293   0.726   2.352   1.734 -0.7190  0.0613  0.1387
   60c3c      N  294   1.455   0.249   1.421 -1.0295  0.3509  0.5068
   60c3c     C1  295   1.327   0.240   1.499  0.3821 -0.2458 -0.3367
   60c3c     C2  296   1.406   0.282   1.290  0.3566  0.2592  1.1319
   60c3c     C3  297   1.237   0.345   1.444  0.2898 -0.2757 -0.5689
   60c3c     C4  298   1.298   0.380   1.305 -0.5454 -0.3288 -0.0769
   60c3c     C5  299   1.551   0.354   1.472  1.0498 -0.3028  0.4028
   60c3c     C6  300   1.536   0.129   1.422  0.5310  0.2239 -0.2777
   60c3c     H1  301   1.331   0.241   1.608  3.4606 -0.5970 -0.4246
   60c3c     H2  302   1.278   0.144   1.479 -1.8205  1.0528 -1.3087
   60c3c     H3  303   1.487   0.307   1.222  0.1794 -2.8290 -0.2968
   60c3c     H4  304   1.351   0.200   1.244 -1.6886  1.3331  1.5855
   60c3c     H5  305   1.262   0.430   1.508 -2.6468  0.1442  0.1123
   60c3c     H6  306   1.130   0.327   1.442  0.5527 -2.5395  2.8563
   60c3c     H7  307   1.339   0.481   1.301 -0.6602 -0.2477  0.7065
   60c3c     H8  308   1.232   0.378   1.219 -1.2218 -0.9830  0.4584
   60c3c     H9  309   1.503   0.447   1.502  0.0921 -0.7497  0.2787
   60c3c    H10  310   1.601   0.321   1.564 -0.1767 -0.0471  1.1743
   60c3c    H11  311   1.624   0.384   1.397  0.9885 -0.2175  0.3763
   60c3c    H12  312   1.627   0.141   1.362  0.4202  1.8374 -0.1440
   60c3c    H13  313   1.569   0.107   1.523  0.3784  1.7095  0.1079
   60c3c     C7  314   1.476  -0.001   1.360 -0.3403  0.0172 -0.3371
   60c3c    H14  315   1.450  -0.008   1.255 -1.0843 -1.5646 -0.0564
   60c3c    H15  316   1.383  -0.033   1.407  1.0743 -1.6599  1.3958
   60c3c     C8  317   1.568  -0.121   1.383 -0.2863 -0.5813  0.1201
   60c3c    H16  318   1.526  -0.217   1.355  1.4357 -1.6916  1.2356
   60c3c    H17  319   1.584  -0.142   1.489  0.1155  1.2707  0.4395
   60c3c    H18  320   1.670  -0.106   1.346 -0.2857  0.6740  0.5878
   61c3c      N  321   2.548   1.813   2.406  0.0495 -0.3486  0.0609
   61c3c     C1  322   2.675   1.802   2.345 -0.2266 -0.2355  0.3515
   61c3c     C2  323   2.545   1.689   2.487  0.0866  0.3334  0.5134
   61c3c     C3  324   2.779   1.761   2.456  0.2809 -0.2579  0.1770
   61c3c     C4  325   2.690   1.675   2.538  0.7082 -0.7476 -0.2504
   61c3c     C5  326   2.539   1.932   2.488 -0.1120 -1.1446 -0.4395
   61c3c     C6  327   2.436   1.829   2.307 -1.1862 -0.7778 -0.0718
   61c3c     H1  328   2.702   1.895   2.295 -0.9167 -0.9417 -1.3809
   61c3c     H2  329   2.681   1.722   2.272  2.3160 -0.0246  0.2986
   61c3c     H3  330   2.469   1.674   2.563 -0.9252  0.2882 -0.4959
   61c3c     H4  331   2.537   1.606   2.417 -0.4383  1.1513 -0.4185
   61c3c     H5  332   2.814   1.846   2.515 -1.9285 -0.3144  1.6459
   61c3c     H6  333   2.869   1.710   2.422  0.4075 -1.7472  2.5913
   61c3c     H7  334   2.711   1.706   2.640 -2.3108  0.9333 -0.0896
   61c3c     H8  335   2.731   1.574   2.524  0.7965 -0.8130  0.4646
   61c3c     H9  336   2.553   2.024   2.432 -1.0458  0.4012  1.7708
   61c3c    H10  337   2.442   1.941   2.537 -0.2482 -3.8560 -0.1236
   61c3c    H11  338   2.619   1.933   2.563 -1.1547 -1.0927  0.6877
   61c3c    H12  339   2.344   1.822   2.364 -0.4194 -0.7200  1.2047
   61c3c    H13  340   2.439   1.930   2.264 -0.6603 -1.6740 -2.1846
   61c3c     C7  341   2.426   1.731   2.193 -0.5399  0.7686 -0.2627
   61c3c    H14  342   2.421   1.631   2.238 -1.9747 -0.0115 -2.0714
   61c3c    H15  343   2.514   1.741   2.129  0.6515 -2.5392  0.7633
   61c3c     C8  344   2.296   1.763   2.117  0.2221  0.0413  0.1275
   61c3c    H16  345   2.326   1.848   2.057  0.8913  1.1781  2.0306
   61c3c    H17  346   2.205   1.779   2.175 -0.6310  2.6819 -1.8462
   61c3c    H18  347   2.286   1.675   2.053  2.4429 -0.7235  0.8024
   62c3c      N  348   1.420   0.990   1.525  0.3933  0.2929 -0.3500
   62c3c     C1  349   1.424   0.843   1.535 -0.3439  0.7004 -0.7495
   62c3c     C2  350   1.485   1.037   1.646  0.8330  0.1784  0.4457
   62c3c     C3  351   1.560   0.809   1.606  0.5606  0.1843 -1.2873
   62c3c     C4  352   1.602   0.936   1.673 -0.4115 -0.0646  0.3306
   62c3c     C5  353   1.497   1.046   1.416  0.1293 -0.0289  0.3354
   62c3c     C6  354   1.289   1.056   1.522  0.1775  0.6915  0.1765
   62c3c     H1  355   1.395   0.789   1.445 -2.0546 -2.4260  1.5559
   62c3c     H2  356   1.345   0.814   1.606  0.4170 -0.7416 -0.4768
   62c3c     H3  357   1.514   1.142   1.640 -1.2001  0.7200 -0.4088
   62c3c     H4  358   1.421   1.023   1.733 -2.0671  0.0316 -1.6225
   62c3c     H5  359   1.638   0.773   1.539 -0.3075 -1.7485 -1.2795
   62c3c     H6  360   1.541   0.728   1.676 -0.8025  0.6175 -1.1375
   62c3c     H7  361   1.687   0.971   1.615 -0.0285 -1.2676  0.1400
   62c3c     H8  362   1.623   0.903   1.775 -1.2163  0.9349  0.8236
   62c3c     H9  363   1.451   1.013   1.323 -0.5874  1.3365  0.1936
   62c3c    H10  364   1.526   1.151   1.415  1.1982 -0.3199 -0.1245
   62c3c    H11  365   1.599   1.008   1.421  0.7318  1.7322  1.8634
   62c3c    H12  366   1.315   1.156   1.555  1.8681  0.2143  0.3727
   62c3c    H13  367   1.242   1.068   1.425 -1.4787  2.2058  1.1455
   62c3c     C7  368   1.169   1.012   1.614 -0.3363  0.0070  0.2691
   62c3c    H14  369   1.203   1.035   1.715 -1.7819 -2.2780  1.3368
   62c3c    H15  370   1.154   0.904   1.606 -0.5026  0.1545 -1.5149
   62c3c     C8  371   1.033   1.084   1.588  0.2104 -0.4243 -0.1423
   62c3c    H16  372   1.067   1.183   1.556 -1.9633 -0.2043 -1.8731
   62c3c    H17  373   0.980   1.092   1.682 -0.7043  0.8872 -0.7523
   62c3c    H18  374   0.985   1.033   1.505 -0.6620 -2.8251  1.8136
   63c3c      N  375   1.279   1.746   2.660  0.0418 -0.0123 -0.5838
   63c3c     C1  376   1.313   1.880   2.621  0.3344 -0.3360 -1.1974
   63c3c     C2  377   1.213   1.696   2.542 -0.3926 -0.3903 -0.6819
   63c3c     C3  378   1.353   1.879   2.477  0.8875 -0.2808  0.1391
   63c3c     C4  379   1.295   1.746   2.422 -0.4578  0.2752  0.3732
   63c3c     C5  380   1.404   1.675   2.682 -0.5581 -0.1225 -0.9892
   63c3c     C6  381   1.190   1.722   2.773  0.1685 -0.0610 -0.0731
   63c3c     H1  382   1.395   1.918   2.682  0.0976  0.5061 -1.3954
   63c3c     H2  383   1.231   1.950   2.639  0.6716  0.4381 -2.6305
   63c3c     H3  384   1.204   1.588   2.543 -0.8755 -0.3881 -2.7662
   63c3c     H4  385   1.111   1.725   2.518 -0.1359  0.6215 -0.6018
   63c3c     H5  386   1.461   1.870   2.486  0.6862 -2.1267  1.2591
   63c3c     H6  387   1.316   1.961   2.417 -0.9637 -1.9742 -1.1260
   63c3c     H7  388   1.384   1.686   2.400  0.1311  1.7352 -1.4232
   63c3c     H8  389   1.239   1.745   2.328  0.7022 -2.3930 -0.3317
   63c3c     H9  390   1.450   1.706   2.776  0.0881 -3.1153 -0.2791
   63c3c    H10  391   1.373   1.571   2.687  0.6445 -0.3763  2.9935
   63c3c    H11  392   1.471   1.679   2.596  0.4029  1.1386 -0.1975
   63c3c    H12  393   1.156   1.618   2.774 -2.1122  0.6610  1.7319
   63c3c    H13  394   1.245   1.737   2.866  0.0815  1.0727 -0.2034
   63c3c     C7  395   1.064   1.816   2.781  0.0860  0.5640  0.7110
   63c3c    H14  396   1.012   1.840   2.688 -0.5613  1.2018  1.2329
   63c3c    H15  397   1.096   1.920   2.794  3.7075 -0.5952  1.6401
   63c3c     C8  398   0.967   1.775   2.882  1.2114 -0.2397 -0.4828
   63c3c    H16  399   0.884   1.845   2.891  3.6345  2.7460 -0.5361
   63c3c    H17  400   1.015   1.774   2.980 -1.6075 -0.4772  0.9470
   63c3c    H18  401   0.925   1.675   2.874  2.2983 -1.1464  3.7865
   64c3c      N  402   0.101   2.216   1.880  0.2790 -0.1664  0.0945
   64c3c     C1  403   0.231   2.241   1.929  0.2829 -0.2325  0.1982
   64c3c     C2  404   0.072   2.080   1.934  0.2115 -0.4338  0.4283
   64c3c     C3  405   0.239   2.182   2.069  1.3401 -0.0945 -0.3321
   64c3c     C4  406   0.131   2.075   2.079 -0.1733  0.5078  0.0625
   64c3c     C5  407   0.015   2.325   1.932  0.5967  0.7817  0.1385
   64c3c     C6  408   0.083   2.212   1.729 -0.4194 -0.2033 -0.0680
   64c3c     H1  409   0.275   2.340   1.915  2.0797 -1.1369 -0.8103
   64c3c     H2  410   0.301   2.180   1.870  1.9444  1.0094  0.8463
   64c3c     H3  411  -0.034   2.054   1.930 -0.3310  1.8065 -1.0986
   64c3c     H4  412   0.128   1.996   1.892  2.3829  1.0149  0.3259
   64c3c     H5  413   0.213   2.259   2.141 -0.5690  1.2820 -2.4485
   64c3c     H6  414   0.340   2.150   2.095  2.3301  1.5896 -1.9754
   64c3c     H7  415   0.048   2.085   2.149  0.1149 -1.6429  0.7560
   64c3c     H8  416   0.186   1.983   2.099 -1.2414  0.2250  1.8585
   64c3c     H9  417   0.051   2.425   1.906 -2.0931  2.3232  2.0904
   64c3c    H10  418  -0.090   2.306   1.911  0.5148  1.3234  0.0524
   64c3c    H11  419   0.011   2.315   2.041 -1.3412 -0.0275  0.0012
   64c3c    H12  420  -0.018   2.180   1.703 -0.9646  0.1085  1.6259
   64c3c    H13  421   0.096   2.315   1.697 -1.8997  0.0210  0.0406
   64c3c     C7  422   0.162   2.116   1.642  0.1828 -0.1841  0.3582
   64c3c    H14  423   0.121   2.017   1.659  1.7152 -0.8761  0.0899
   64c3c    H15  424   0.269   2.113   1.661  0.5211  0.7840 -1.2862
   64c3c     C8  425   0.150   2.157   1.497  0.3422 -0.0271 -1.3100
   64c3c    H16  426   0.048   2.168   1.461  0.6676 -0.2949 -2.3598
   64c3c    H17  427   0.196   2.079   1.435  1.8993  1.3390 -1.9219
   64c3c    H18  428   0.210   2.244   1.472  2.9510 -1.3045  0.2214
   65c3c      N  429   2.613   2.194   1.153 -0.7593 -0.1257 -0.2726
   65c3c     C1  430   2.682   2.269   1.050 -0.4211  0.5556  0.8712
   65c3c     C2  431   2.616   2.297   1.255 -0.0214  0.2813  0.0125
   65c3c     C3  432   2.642   2.415   1.052  0.5006  0.3902 -0.1676
   65c3c     C4  433   2.573   2.427   1.193 -0.0858  0.6960 -0.2701
   65c3c     C5  434   2.480   2.152   1.115 -0.4567 -0.1353 -0.5693
   65c3c     C6  435   2.690   2.064   1.176  0.0686  0.6946 -0.0866
   65c3c     H1  436   2.680   2.226   0.950  1.6137  1.1029  0.5907
   65c3c     H2  437   2.789   2.274   1.067 -0.0053  0.2556 -1.5407
   65c3c     H3  438   2.554   2.279   1.342  0.8762  3.7741  1.4680
   65c3c     H4  439   2.715   2.315   1.297  0.1696  1.4780 -0.9280
   65c3c     H5  440   2.569   2.426   0.972 -0.1077 -1.0097  0.1827
   65c3c     H6  441   2.734   2.473   1.046  1.7445 -1.5527 -0.7578
   65c3c     H7  442   2.464   2.429   1.192 -0.1818 -2.3362  0.7824
   65c3c     H8  443   2.603   2.514   1.252  3.2540 -1.2515  1.0281
   65c3c     H9  444   2.460   2.081   1.034 -0.8791  0.0594 -0.6387
   65c3c    H10  445   2.438   2.101   1.202  1.6043 -0.4467  0.2526
   65c3c    H11  446   2.407   2.232   1.101 -0.3768 -0.2255 -1.5447
   65c3c    H12  447   2.626   1.997   1.234  0.2568 -0.2019 -0.9163
   65c3c    H13  448   2.729   2.023   1.083  2.3278  2.4817  0.0267
   65c3c     C7  449   2.816   2.082   1.252 -0.2883  0.5042 -0.4590
   65c3c    H14  450   2.805   2.120   1.353 -2.0014  3.6054 -1.7315
   65c3c    H15  451   2.880   2.162   1.213  0.4165 -0.9674 -2.4209
   65c3c     C8  452   2.901   1.953   1.254 -0.3736 -0.5889  0.0912
   65c3c    H16  453   2.997   1.963   1.306  0.1923  0.8410 -1.1959
   65c3c    H17  454   2.922   1.920   1.153  1.9040 -2.2503  1.0566
   65c3c    H18  455   2.848   1.873   1.306 -1.5188  0.7494  1.0072
   66c3c      N  456   1.286   2.827   0.093 -0.0561 -0.2274  0.2773
   66c3c     C1  457   1.194   2.941   0.135  0.4470 -0.5782  0.0310
   66c3c     C2  458   1.413   2.907   0.074  0.5500 -0.2349 -0.3378
   66c3c     C3  459   1.269   3.016   0.238  0.2603 -0.5100 -0.4506
   66c3c     C4  460   1.414   2.995   0.198 -0.3684  0.2661 -0.2987
   66c3c     C5  461   1.293   2.729   0.202 -0.0386 -0.4426  0.4057
   66c3c     C6  462   1.247   2.749  -0.029 -0.2731 -0.3335 -0.3651
   66c3c     H1  463   1.100   2.898   0.170 -0.1766 -0.6206 -1.6377
   66c3c     H2  464   1.173   2.996   0.044  0.6129  0.4809  0.6326
   66c3c     H3  465   1.500   2.842   0.078  1.9811  1.7009  0.3911
   66c3c     H4  466   1.427   2.974  -0.010  1.4326  0.0676  0.0494
   66c3c     H5  467   1.254   2.981   0.340  2.4388 -0.3993 -0.0699
   66c3c     H6  468   1.251   3.124   0.241 -0.1650 -0.6144  2.0570
   66c3c     H7  469   1.463   2.937   0.276 -2.3464 -0.4054  0.4577
   66c3c     H8  470   1.463   3.092   0.180  0.1737 -0.3155 -2.0703
   66c3c     H9  471   1.200   2.673   0.210 -0.6489  0.6179  0.7682
   66c3c    H10  472   1.371   2.656   0.180  0.4927  0.3331 -0.3174
   66c3c    H11  473   1.310   2.771   0.301 -1.2428 -2.1122  1.3502
   66c3c    H12  474   1.326   2.683  -0.066 -0.4755 -0.0128 -1.3751
   66c3c    H13  475   1.158   2.689  -0.015  0.5505 -1.0920  1.7637
   66c3c     C7  476   1.217   2.824  -0.162  0.4670  0.1237  0.3176
   66c3c    H14  477   1.282   2.908  -0.183  0.4267 -0.2828 -1.4610
   66c3c    H15  478   1.114   2.858  -0.146 -0.1619 -0.8273 -1.5060
   66c3c     C8  479   1.215   2.747  -0.290 -0.1428  0.1420  0.0907
   66c3c    H16  480   1.181   2.806  -0.375 -0.5839  0.4790  0.4985
   66c3c    H17  481   1.142   2.669  -0.268 -0.6760  0.1351 -1.5937
   66c3c    H18  482   1.309   2.696  -0.309 -0.5365 -1.4152  2.1843
   67c3c      N  483   3.001   2.873   2.885  0.3559  0.4541 -0.0263
   67c3c     C1  484   2.895   2.910   2.794  0.5010 -0.5050  0.2077
   67c3c     C2  485   2.946   2.750   2.947 -0.1031 -0.0994  0.6157
   67c3c     C3  486   2.838   2.786   2.721  0.4676  0.0786 -0.7906
   67c3c     C4  487   2.874   2.679   2.822  0.1654  0.5523 -0.4762
   67c3c     C5  488   3.121   2.841   2.809 -0.3976  0.0034 -0.2978
   67c3c     C6  489   3.038   2.984   2.981  0.3586  0.1064  0.4293
   67c3c     H1  490   2.912   2.992   2.724 -0.1813 -1.9896 -1.7370
   67c3c     H2  491   2.810   2.937   2.857 -0.4968 -1.2095 -0.8351
   67c3c     H3  492   3.026   2.695   2.997 -0.4388  1.1102  2.5505
   67c3c     H4  493   2.868   2.773   3.020  0.5878 -2.5010  2.1581
   67c3c     H5  494   2.892   2.757   2.631 -0.5541 -2.4183 -0.6484
   67c3c     H6  495   2.731   2.792   2.700 -0.2026 -1.9641  1.7306
   67c3c     H7  496   2.941   2.604   2.779  2.3517  1.2562  1.5703
   67c3c     H8  497   2.778   2.630   2.837  0.7988 -0.0431  1.8067
   67c3c     H9  498   3.177   2.925   2.770  0.6271 -1.0454 -1.1056
   67c3c    H10  499   3.190   2.787   2.874  1.0194  1.6763 -0.3641
   67c3c    H11  500   3.104   2.775   2.724  0.7139  0.2974 -0.7574
   67c3c    H12  501   3.129   2.958   3.036 -1.2136 -1.8371  2.1978
   67c3c    H13  502   3.058   3.075   2.925  1.3620 -1.3245 -1.6304
   67c3c     C7  503   2.928   3.030   3.075  0.2029 -0.6396  0.0641
   67c3c    H14  504   2.910   2.959   3.156 -2.9585  0.0431  0.0295
   67c3c    H15  505   2.831   3.042   3.027 -0.2942  0.0259  1.2074
   67c3c     C8  506   2.954   3.171   3.134  0.0539  0.2990  0.6195
   67c3c    H16  507   2.935   3.252   3.064 -1.1089 -1.0825 -0.7060
   67c3c    H17  508   3.050   3.181   3.184  1.5655  2.6380 -2.5778
   67c3c    H18  509   2.882   3.177   3.215 -2.4054  0.1430 -1.4843
   68c3c      N  510   2.927   2.848   1.997 -0.5255  0.1667  0.1971
   68c3c     C1  511   2.884   2.895   2.127 -0.1967 -0.1183 -0.5299
   68c3c     C2  512   2.862   2.716   1.984  0.4390  1.5919  0.4256
   68c3c     C3  513   2.741   2.833   2.144  0.3887 -0.5836 -0.0570
   68c3c     C4  514   2.720   2.734   2.034 -0.0346 -0.2968 -0.9162
   68c3c     C5  515   2.875   2.944   1.902 -0.7128 -0.3664  0.5066
   68c3c     C6  516   3.076   2.848   1.988  0.3593  0.1686 -0.2822
   68c3c     H1  517   2.894   3.003   2.138 -0.7349 -0.2493  1.4275
   68c3c     H2  518   2.934   2.858   2.216 -1.2461  1.8270  0.8936
   68c3c     H3  519   2.868   2.659   1.892  0.5788 -0.9171  1.9320
   68c3c     H4  520   2.915   2.651   2.053  1.5331  0.7634 -1.1694
   68c3c     H5  521   2.660   2.905   2.132  1.5505  0.6816 -0.3587
   68c3c     H6  522   2.726   2.782   2.239  1.0303  0.7621  0.7761
   68c3c     H7  523   2.651   2.763   1.954  0.7313  0.8691 -1.1611
   68c3c     H8  524   2.686   2.637   2.070  2.1380 -1.3530 -1.6155
   68c3c     H9  525   2.928   3.037   1.924 -1.6215 -0.0766  1.5426
   68c3c    H10  526   2.894   2.922   1.798 -1.7274  1.0528 -0.0034
   68c3c    H11  527   2.769   2.969   1.909 -1.1273 -0.8252 -3.4000
   68c3c    H12  528   3.101   2.853   1.882 -1.6395 -1.6342 -0.8760
   68c3c    H13  529   3.125   2.940   2.021 -1.9871  1.6241 -0.7483
   68c3c     C7  530   3.153   2.725   2.042  1.0830 -0.2347  0.3625
   68c3c    H14  531   3.129   2.633   1.989 -1.2936  0.0551  0.8795
   68c3c    H15  532   3.122   2.698   2.143 -0.1682  1.1434  0.3680
   68c3c     C8  533   3.300   2.735   2.036 -0.5149  0.6409  0.3005
   68c3c    H16  534   3.331   2.822   2.094  1.0653  0.9743 -0.9941
   68c3c    H17  535   3.330   2.747   1.932 -0.1976  2.2597  0.5674
   68c3c    H18  536   3.334   2.640   2.078 -1.8950 -0.5365 -1.1592
   69c3c      N  537   2.385   2.325   0.582  0.3923 -0.4214  0.1028
   69c3c     C1  538   2.263   2.310   0.659 -0.2625  0.1559 -0.3345
   69c3c     C2  539   2.484   2.260   0.666  0.5058 -0.4159  0.3562
   69c3c     C3  540   2.271   2.172   0.725 -0.1468 -0.0821  0.6042
   69c3c     C4  541   2.421   2.133   0.716 -0.0123  0.1344  0.0525
   69c3c     C5  542   2.368   2.260   0.455  0.1405 -0.6137 -0.1323
   69c3c     C6  543   2.428   2.470   0.562  0.3361 -0.2214 -0.2378
   69c3c     H1  544   2.173   2.325   0.600 -0.2553  0.6869 -0.2164
   69c3c     H2  545   2.262   2.390   0.733  0.5867  1.2300 -1.4550
   69c3c     H3  546   2.575   2.241   0.609 -0.2630  0.1071 -1.0854
   69c3c     H4  547   2.508   2.318   0.756  1.4943 -1.7644  0.9784
   69c3c     H5  548   2.208   2.100   0.673 -0.3077  1.1092 -0.8462
   69c3c     H6  549   2.240   2.184   0.829 -0.9570  0.7200  0.2747
   69c3c     H7  550   2.427   2.054   0.642 -1.4941  0.7817 -0.7854
   69c3c     H8  551   2.454   2.100   0.815 -0.9773 -2.1378 -0.3610
   69c3c     H9  552   2.281   2.290   0.396  0.8958 -0.5310 -1.2208
   69c3c    H10  553   2.458   2.284   0.398 -0.1132  1.4084  0.2634
   69c3c    H11  554   2.353   2.152   0.450 -1.3459 -0.4017 -0.7542
   69c3c    H12  555   2.523   2.472   0.509 -1.3729  0.0469 -3.4478
   69c3c    H13  556   2.359   2.524   0.496 -0.7086 -0.2746  0.7911
   69c3c     C7  557   2.440   2.569   0.684  0.3063 -0.7316 -0.3540
   69c3c    H14  558   2.513   2.521   0.749  2.0920 -0.6940 -2.2855
   69c3c    H15  559   2.348   2.566   0.742 -0.6080  2.6672 -1.5059
   69c3c     C8  560   2.478   2.706   0.636  0.0724  0.1675 -0.2440
   69c3c    H16  561   2.475   2.786   0.710 -0.2137  1.1162 -1.2694
   69c3c    H17  562   2.409   2.722   0.553  0.5816 -0.6110 -0.8203
   69c3c    H18  563   2.579   2.710   0.593  1.4660  0.0804  2.8855
   70c3c      N  564   0.885   2.381   1.112 -0.4622  0.0295  0.0046
   70c3c     C1  565   0.842   2.243   1.108 -0.3132  0.8241 -0.7603
   70c3c     C2  566   0.827   2.442   1.234  0.5423  0.2953 -0.2529
   70c3c     C3  567   0.847   2.192   1.253 -0.4366 -0.4206 -0.2192
   70c3c     C4  568   0.831   2.324   1.337 -0.1258 -0.1288  0.0292
   70c3c     C5  569   1.031   2.384   1.126  0.3258  0.2701  0.0281
   70c3c     C6  570   0.861   2.458   0.989  0.0468 -0.0795  0.0449
   70c3c     H1  571   0.895   2.168   1.048  2.4982  2.2573 -0.1659
   70c3c     H2  572   0.740   2.252   1.073  0.4605  4.1194 -2.3414
   70c3c     H3  573   0.879   2.529   1.276  0.8808  0.5743 -1.2376
   70c3c     H4  574   0.719   2.459   1.229 -0.2788 -4.2056  0.2003
   70c3c     H5  575   0.940   2.140   1.273  0.5958  1.6871  0.7047
   70c3c     H6  576   0.770   2.116   1.267  0.7974 -1.3027  2.1469
   70c3c     H7  577   0.913   2.340   1.407  0.1405  0.4650 -0.4098
   70c3c     H8  578   0.739   2.319   1.396 -0.2582 -0.3801 -0.1967
   70c3c     H9  579   1.084   2.325   1.052  0.9306 -0.6049  1.1502
   70c3c    H10  580   1.075   2.484   1.128  1.9187 -0.3916 -1.2539
   70c3c    H11  581   1.058   2.337   1.221  1.2483  0.8127  0.0452
   70c3c    H12  582   0.904   2.556   1.011  0.1683 -0.3653  1.1091
   70c3c    H13  583   0.919   2.421   0.904 -0.6797 -0.8327 -0.1268
   70c3c     C7  584   0.720   2.485   0.941  0.5815  0.3464  0.0766
   70c3c    H14  585   0.659   2.530   1.020  0.5987 -1.3111  1.0640
   70c3c    H15  586   0.670   2.391   0.917  1.2167  0.2184 -0.7348
   70c3c     C8  587   0.699   2.582   0.822  0.2758  0.1531  0.2870
   70c3c    H16  588   0.596   2.603   0.794  0.2650  1.3407  1.1575
   70c3c    H17  589   0.748   2.528   0.741 -0.2203 -1.3478  0.9807
   70c3c    H18  590   0.751   2.678   0.833  0.6588  0.2438 -1.9651
   71c3c      N  591   2.323   0.735   1.187  0.7213 -0.4263 -0.2309
   71c3c     C1  592   2.355   0.672   1.057 -0.0524 -0.5550  0.4937
   71c3c     C2  593   2.429   0.688   1.279  0.0871 -0.2670 -0.0910
   71c3c     C3  594   2.503   0.683   1.045 -0.4068 -0.1969 -0.6268
   71c3c     C4  595   2.552   0.682   1.194 -0.4270 -0.5043  0.3252
   71c3c     C5  596   2.326   0.880   1.175  0.8061 -0.6062 -0.8565
   71c3c     C6  597   2.189   0.702   1.238  0.2906 -0.3233 -0.6423
   71c3c     H1  598   2.306   0.722   0.973 -0.7053 -0.6690  0.8047
   71c3c     H2  599   2.324   0.567   1.061 -2.4724  0.1424  0.8180
   71c3c     H3  600   2.440   0.733   1.377 -0.5360 -0.4372  0.0599
   71c3c     H4  601   2.411   0.589   1.320 -0.7052  0.3914  1.1907
   71c3c     H5  602   2.534   0.778   1.002 -0.8835  0.2879  0.1003
   71c3c     H6  603   2.548   0.608   0.980  0.7497 -0.8490  0.8977
   71c3c     H7  604   2.620   0.768   1.196  0.9969 -1.5944 -0.1527
   71c3c     H8  605   2.608   0.593   1.222  0.3702 -0.3319 -0.6783
   71c3c     H9  606   2.243   0.919   1.116  1.6024  2.3709 -0.1189
   71c3c    H10  607   2.318   0.918   1.277 -0.5893 -0.6925 -0.9300
   71c3c    H11  608   2.418   0.922   1.133 -0.4878  3.3773  0.0636
   71c3c    H12  609   2.200   0.727   1.343 -0.8688 -3.7396  0.3657
   71c3c    H13  610   2.112   0.768   1.196  0.8328  1.5939  1.2871
   71c3c     C7  611   2.121   0.557   1.231  0.4554  0.3335 -0.4165
   71c3c    H14  612   2.189   0.494   1.289  0.3616 -0.9178 -1.6446
   71c3c    H15  613   2.109   0.513   1.133 -0.8729 -0.3948  0.0554
   71c3c     C8  614   1.988   0.561   1.302  1.2839  0.3722  0.0166
   71c3c    H16  615   1.946   0.460   1.307 -0.7995  1.1662 -0.7149
   71c3c    H17  616   1.917   0.616   1.241 -0.9778 -3.5946 -1.1574
   71c3c    H18  617   1.983   0.611   1.399  2.4946  0.6128 -0.0460
   72c3c      N  618   1.386   0.531   2.798 -0.7138 -0.0952 -0.0718
   72c3c     C1  619   1.480   0.422   2.766 -0.2013  0.1238  0.0481
   72c3c     C2  620   1.256   0.461   2.775 -0.1489  0.1205 -0.2230
   72c3c     C3  621   1.422   0.283   2.790 -0.2091 -0.2531 -0.4612
   72c3c     C4  622   1.276   0.316   2.823 -0.0650  0.3487 -0.0896
   72c3c     C5  623   1.383   0.567   2.942 -0.4795  0.1922  0.4491
   72c3c     C6  624   1.407   0.662   2.734  0.2673 -0.6117 -0.7578
   72c3c     H1  625   1.576   0.434   2.817 -0.1092  0.9483 -0.3258
   72c3c     H2  626   1.514   0.421   2.663 -1.1342  0.7640 -0.2673
   72c3c     H3  627   1.178   0.526   2.816  1.0741  0.6243  1.3607
   72c3c     H4  628   1.242   0.446   2.668 -0.0717 -1.8878  0.0329
   72c3c     H5  629   1.470   0.225   2.869 -1.1047 -0.2006  0.1285
   72c3c     H6  630   1.430   0.210   2.709 -2.9098 -0.8573 -0.2150
   72c3c     H7  631   1.258   0.319   2.931 -1.6614  1.7314 -0.3802
   72c3c     H8  632   1.200   0.248   2.785  0.8598 -1.4891  1.2503
   72c3c     H9  633   1.479   0.614   2.967 -1.1446  1.1835  1.1880
   72c3c    H10  634   1.310   0.642   2.972 -0.4315  0.4848 -0.1700
   72c3c    H11  635   1.379   0.479   3.006 -0.5084  0.6616  1.0957
   72c3c    H12  636   1.343   0.739   2.774  1.3346 -0.2659  0.3171
   72c3c    H13  637   1.512   0.693   2.732 -0.2279  1.1508  0.5116
   72c3c     C7  638   1.374   0.666   2.586  0.1840 -0.2242 -0.1021
   72c3c    H14  639   1.270   0.645   2.565  0.0137  0.1458  0.3501
   72c3c    H15  640   1.406   0.579   2.529  0.5593 -0.4914  0.4979
   72c3c     C8  641   1.411   0.798   2.522 -0.4298  0.2249 -0.4226
   72c3c    H16  642   1.360   0.876   2.579  0.8432  0.1182  0.8947
   72c3c    H17  643   1.382   0.805   2.417  0.0983  2.2074 -0.4538
   72c3c    H18  644   1.516   0.827   2.527 -0.0772 -1.2420  1.2830
   73c3c      N  645   2.228   1.825   0.010 -0.0631 -0.0218 -0.2215
   73c3c     C1  646   2.352   1.803   0.090 -0.6743 -0.6246 -0.5905
   73c3c     C2  647   2.282   1.886  -0.114  0.5225 -0.3297  0.1978
   73c3c     C3  648   2.457   1.756  -0.007 -0.2937 -0.3244  0.4138
   73c3c     C4  649   2.419   1.823  -0.138 -0.1981 -0.1093 -0.1469
   73c3c     C5  650   2.169   1.692  -0.018  0.6462 -0.4329 -0.1862
   73c3c     C6  651   2.129   1.918   0.073  0.0555  0.6919  0.0433
   73c3c     H1  652   2.337   1.742   0.179 -1.7369  1.1638  0.4920
   73c3c     H2  653   2.387   1.896   0.134  1.4501 -1.5078 -0.3878
   73c3c     H3  654   2.222   1.866  -0.203  1.3035  0.2310 -0.4564
   73c3c     H4  655   2.293   1.994  -0.110  2.0651 -0.4026 -1.7609
   73c3c     H5  656   2.461   1.647  -0.008  1.3303 -0.2857  1.2873
   73c3c     H6  657   2.559   1.789   0.015 -0.5704  0.0743  1.1238
   73c3c     H7  658   2.395   1.743  -0.208  0.8417 -2.3234  1.9512
   73c3c     H8  659   2.488   1.890  -0.189  0.4459  0.2723  1.2178
   73c3c     H9  660   2.110   1.648   0.061  2.6053 -2.4998  0.1975
   73c3c    H10  661   2.103   1.706  -0.104 -0.0807  0.7880  0.5691
   73c3c    H11  662   2.244   1.621  -0.053 -0.4571 -1.2866 -0.8356
   73c3c    H12  663   2.042   1.940   0.010  0.3214  3.0660  0.4618
   73c3c    H13  664   2.083   1.863   0.155 -0.2539  1.1193  0.1607
   73c3c     C7  665   2.184   2.054   0.119 -0.4042  0.1000  0.0455
   73c3c    H14  666   2.225   2.110   0.035 -1.4758 -1.0219 -1.2483
   73c3c    H15  667   2.261   2.049   0.196 -1.9853  1.0841  1.7347
   73c3c     C8  668   2.073   2.129   0.191  0.1373 -0.1657  0.1081
   73c3c    H16  669   2.059   2.078   0.286 -2.0876 -1.4980 -0.8859
   73c3c    H17  670   1.976   2.115   0.142  0.3411  1.0711 -0.6408
   73c3c    H18  671   2.093   2.235   0.207  0.2134 -0.2767  0.7700
   74c3c      N  672   1.322   1.736   1.660 -0.0655 -0.4503 -0.3904
   74c3c     C1  673   1.434   1.827   1.644 -1.2937 -0.7292 -0.0463
   74c3c     C2  674   1.315   1.646   1.536 -0.3737  0.5640  0.1872
   74c3c     C3  675   1.542   1.751   1.567  0.1680 -0.1145 -0.5578
   74c3c     C4  676   1.460   1.648   1.492  0.0939  0.4399 -0.0050
   74c3c     C5  677   1.356   1.656   1.776  0.9924  0.2872 -0.5952
   74c3c     C6  678   1.195   1.802   1.680  0.1439 -0.2759  0.1469
   74c3c     H1  679   1.477   1.859   1.739 -0.2394 -1.3144 -0.3180
   74c3c     H2  680   1.405   1.916   1.587 -1.8307  0.5946  2.2341
   74c3c     H3  681   1.280   1.547   1.563  0.6580 -0.3137 -1.6648
   74c3c     H4  682   1.253   1.683   1.454  0.5343 -0.9161 -1.1871
   74c3c     H5  683   1.614   1.697   1.628 -0.8814 -0.8308  0.0753
   74c3c     H6  684   1.593   1.812   1.492 -0.5853  0.6382 -0.4645
   74c3c     H7  685   1.512   1.552   1.497  0.3645  0.4714 -1.7266
   74c3c     H8  686   1.477   1.675   1.387  1.7162  0.0642  0.1503
   74c3c     H9  687   1.337   1.705   1.871  0.7668 -1.9723  0.5609
   74c3c    H10  688   1.290   1.570   1.763  1.7605 -0.3271 -0.3975
   74c3c    H11  689   1.454   1.611   1.786  1.0527  0.7145  0.7796
   74c3c    H12  690   1.119   1.725   1.694  1.2929 -1.6649 -1.0712
   74c3c    H13  691   1.198   1.850   1.778 -1.2676  0.9218 -0.3922
   74c3c     C7  692   1.153   1.914   1.583 -0.6011  0.6747  0.6401
   74c3c    H14  693   1.148   1.873   1.482 -2.5984  3.6183 -0.5357
   74c3c    H15  694   1.216   2.002   1.588 -2.9101  2.4286 -0.0526
   74c3c     C8  695   1.003   1.954   1.611  0.2388  0.0676  0.0478
   74c3c    H16  696   0.941   1.877   1.565  0.0524  0.6220 -0.6204
   74c3c    H17  697   0.988   2.059   1.587 -0.6230  0.0734  0.6078
   74c3c    H18  698   0.990   1.938   1.718  1.1245  1.2837  0.3468
   75c3c      N  699   1.714   0.638   2.212 -0.4190 -0.3569 -0.5963
   75c3c     C1  700   1.661   0.526   2.288  0.5681 -0.0563 -0.1589
   75c3c     C2  701   1.653   0.612   2.082 -0.2941  0.0321  0.2574
   75c3c     C3  702   1.514   0.510   2.249  0.0024  0.7255  0.1403
   75c3c     C4  703   1.513   0.565   2.113  0.0356  0.3622  0.4218
   75c3c     C5  704   1.673   0.772   2.263 -0.0070  0.3207 -0.0543
   75c3c     C6  705   1.863   0.637   2.214  0.5315  0.1326  0.2333
   75c3c     H1  706   1.663   0.540   2.396  0.0775 -0.8119 -0.0434
   75c3c     H2  707   1.704   0.427   2.273 -0.4385 -0.2952 -1.6304
   75c3c     H3  708   1.644   0.693   2.009 -0.5632  0.4054  0.7006
   75c3c     H4  709   1.706   0.536   2.025 -3.4394  0.6493 -3.7223
   75c3c     H5  710   1.442   0.567   2.308  2.1075  2.7975  0.7741
   75c3c     H6  711   1.495   0.403   2.243 -0.4868  0.9000 -1.9021
   75c3c     H7  712   1.449   0.653   2.111  0.0150  0.3831  1.8170
   75c3c     H8  713   1.478   0.491   2.041  2.2112 -0.7213  0.4158
   75c3c     H9  714   1.725   0.802   2.354 -0.5003  0.0508  0.3247
   75c3c    H10  715   1.711   0.843   2.190  3.4005 -0.6088  0.7282
   75c3c    H11  716   1.568   0.798   2.274 -0.3725 -1.2820  0.4707
   75c3c    H12  717   1.901   0.720   2.154  1.9824 -1.1604 -0.6720
   75c3c    H13  718   1.890   0.652   2.319  1.0820  1.4434 -0.0881
   75c3c     C7  719   1.943   0.500   2.181 -0.1335  0.2557 -0.4111
   75c3c    H14  720   1.907   0.442   2.096  0.8152 -2.1623  0.7772
   75c3c    H15  721   1.920   0.431   2.262 -3.8639  0.7514 -0.9690
   75c3c     C8  722   2.087   0.526   2.171  0.1912 -0.1400 -0.4870
   75c3c    H16  723   2.096   0.543   2.064  0.0405  1.2597 -0.2938
   75c3c    H17  724   2.154   0.443   2.191 -1.5036 -1.2469  0.7318
   75c3c    H18  725   2.118   0.620   2.217 -0.5958 -0.7254  1.2960
   76c3c      N  726   1.690   1.317   2.893 -0.5800  0.0913 -0.0680
   76c3c     C1  727   1.813   1.363   2.834 -0.0950 -0.4499  0.3546
   76c3c     C2  728   1.725   1.287   3.032  0.3377 -0.5783  0.0213
   76c3c     C3  729   1.881   1.455   2.936  0.1734 -0.7090  0.3881
   76c3c     C4  730   1.810   1.411   3.069  0.0906  0.0619  0.1267
   76c3c     C5  731   1.586   1.419   2.876  0.4598 -0.7691  0.9130
   76c3c     C6  732   1.634   1.201   2.820  0.0914 -0.5244  1.1950
   76c3c     H1  733   1.804   1.417   2.740  1.8694 -0.4376  0.1469
   76c3c     H2  734   1.887   1.287   2.809  0.8055 -0.0304  1.6627
   76c3c     H3  735   1.640   1.266   3.096  0.9879  0.3612  1.2237
   76c3c     H4  736   1.794   1.203   3.043  1.4786  0.7003  3.2017
   76c3c     H5  737   1.869   1.561   2.917  0.6030 -0.6677  0.3516
   76c3c     H6  738   1.989   1.440   2.937  0.1137 -1.2550 -0.7302
   76c3c     H7  739   1.734   1.477   3.111  0.5485  0.4309  0.3729
   76c3c     H8  740   1.877   1.384   3.151  0.0664  0.7663  0.3821
   76c3c     H9  741   1.576   1.434   2.768  3.5481  3.3357  1.0876
   76c3c    H10  742   1.486   1.398   2.916 -0.6127 -0.8628 -1.6863
   76c3c    H11  743   1.621   1.520   2.896  2.1859 -1.3035  0.5874
   76c3c    H12  744   1.528   1.198   2.842 -0.1039  0.1589  0.3540
   76c3c    H13  745   1.624   1.222   2.714  2.4921  0.4589  1.1243
   76c3c     C7  746   1.691   1.059   2.835  0.2494  0.2068  0.0564
   76c3c    H14  747   1.680   1.024   2.937 -1.9860  0.3408 -0.1205
   76c3c    H15  748   1.799   1.068   2.824  0.4891 -2.1307  0.2891
   76c3c     C8  749   1.638   0.971   2.722  0.0958 -0.3099  0.1530
   76c3c    H16  750   1.675   0.996   2.623  1.3452 -0.8343  0.4829
   76c3c    H17  751   1.530   0.964   2.736  0.1639 -0.8818  0.4219
   76c3c    H18  752   1.665   0.867   2.741  0.5205 -0.0522  1.0267
   77c3c      N  753   1.875   1.599   1.934 -0.2670 -0.4008 -0.0759
   77c3c     C1  754   1.943   1.662   2.042  0.2302  0.7102  0.1979
   77c3c     C2  755   1.730   1.621   1.962 -0.0503  0.3999  0.1559
   77c3c     C3  756   1.861   1.784   2.085 -0.7564 -0.1746 -0.2713
   77c3c     C4  757   1.719   1.756   2.028 -0.3377  0.8827 -1.0859
   77c3c     C5  758   1.907   1.668   1.810  0.2778  0.1605  0.1370
   77c3c     C6  759   1.915   1.459   1.917 -0.0644  0.1299  0.5213
   77c3c     H1  760   2.046   1.684   2.013  0.5903 -0.9706  0.1825
   77c3c     H2  761   1.951   1.597   2.129 -0.9698 -2.6766 -2.1191
   77c3c     H3  762   1.675   1.603   1.870  2.2878 -1.1855 -0.9716
   77c3c     H4  763   1.702   1.553   2.043 -0.6787  0.9157  0.3763
   77c3c     H5  764   1.899   1.873   2.035  0.3058 -0.3788  0.1609
   77c3c     H6  765   1.850   1.808   2.191  0.7851 -1.2135  0.1383
   77c3c     H7  766   1.682   1.841   1.970  1.0204  1.8582 -0.5524
   77c3c     H8  767   1.652   1.757   2.114 -0.1695 -2.7152 -0.8364
   77c3c     H9  768   1.908   1.776   1.814  3.2136  0.1491  0.7733
   77c3c    H10  769   2.006   1.644   1.769  0.0698 -2.0941  0.8877
   77c3c    H11  770   1.840   1.642   1.728  1.6395 -0.1620 -0.9154
   77c3c    H12  771   1.865   1.408   1.835 -0.2546 -0.5467  1.0564
   77c3c    H13  772   2.022   1.461   1.895 -0.2692 -0.7840 -0.5954
   77c3c     C7  773   1.899   1.364   2.028  0.8492 -0.4425 -0.1328
   77c3c    H14  774   1.794   1.345   2.048  0.1154  3.0098 -0.5324
   77c3c    H15  775   1.957   1.394   2.115  0.0528  0.8982 -0.0618
   77c3c     C8  776   1.960   1.227   1.996 -0.0872 -0.5881 -0.5663
   77c3c    H16  777   1.900   1.183   1.916 -1.3639 -1.0424  0.6273
   77c3c    H17  778   1.952   1.156   2.079 -1.4369 -0.6609 -0.7578
   77c3c    H18  779   2.065   1.241   1.970  0.0934 -2.2118 -0.8059
   78c3c      N  780   2.361   0.373   2.818  0.2790 -0.1366  0.5547
   78c3c     C1  781   2.323   0.278   2.712 -0.2783 -0.6287  0.4147
   78c3c     C2  782   2.370   0.495   2.733  0.3004  0.5159 -0.2274
   78c3c     C3  783   2.208   0.348   2.631  0.0713  0.0945  0.3826
   78c3c     C4  784   2.259   0.493   2.625 -0.1725 -0.7273 -0.1128
   78c3c     C5  785   2.260   0.380   2.923 -0.0312 -0.3213  0.2061
   78c3c     C6  786   2.488   0.339   2.890  1.6445  0.2315  0.6761
   78c3c     H1  787   2.295   0.176   2.737 -2.3893 -0.0123  0.7074
   78c3c     H2  788   2.411   0.267   2.648 -1.0706 -0.2385 -0.7721
   78c3c     H3  789   2.381   0.590   2.785 -3.6512  1.1684 -0.5022
   78c3c     H4  790   2.459   0.492   2.670 -0.6989 -0.4999 -1.6188
   78c3c     H5  791   2.109   0.337   2.675  0.6796 -0.4059  1.6302
   78c3c     H6  792   2.199   0.308   2.530 -2.7211  0.1554  0.5646
   78c3c     H7  793   2.183   0.566   2.654  1.3700  0.3818  1.2453
   78c3c     H8  794   2.291   0.524   2.525  0.9425  1.4790  0.8847
   78c3c     H9  795   2.230   0.283   2.963  0.2169 -0.1804  0.7478
   78c3c    H10  796   2.273   0.448   3.007 -3.2310  1.0670 -0.3445
   78c3c    H11  797   2.168   0.423   2.885  1.0316  0.4415 -1.5491
   78c3c    H12  798   2.506   0.400   2.978  0.3194  1.0957  0.3702
   78c3c    H13  799   2.473   0.235   2.921 -1.5782  0.4838  0.1486
   78c3c     C7  800   2.616   0.360   2.810 -0.7325 -0.1517 -0.1646
   78c3c    H14  801   2.636   0.466   2.799 -1.2741  0.1741  1.9020
   78c3c    H15  802   2.615   0.313   2.711  1.2723  1.5085 -1.0138
   78c3c     C8  803   2.735   0.305   2.882  0.0288 -0.1929  0.2983
   78c3c    H16  804   2.714   0.200   2.904  0.5567 -0.6805 -1.3856
   78c3c    H17  805   2.750   0.361   2.974  0.1441  1.5809 -0.7825
   78c3c    H18  806   2.822   0.314   2.816  0.4112  0.3799  0.8757
   79c3c      N  807   0.708   2.937   2.494  0.9096  0.3208  1.2490
   79c3c     C1  808   0.577   2.976   2.539 -0.3995  0.5194  0.2411
   79c3c     C2  809   0.759   3.064   2.444 -0.0485 -0.3166 -0.1810
   79c3c     C3  810   0.585   3.111   2.608 -0.6747 -0.2819  0.0877
   79c3c     C4  811   0.704   3.171   2.534 -0.2303 -0.5777 -0.4196
   79c3c     C5  812   0.796   2.893   2.601  0.6607  0.0901 -0.2553
   79c3c     C6  813   0.704   2.837   2.383  0.9985  0.2812  0.1327
   79c3c     H1  814   0.542   2.885   2.589  0.6385 -0.9751 -1.6586
   79c3c     H2  815   0.500   2.993   2.464  1.2934 -0.5670 -1.7911
   79c3c     H3  816   0.868   3.067   2.447 -0.1056  1.6761  1.2974
   79c3c     H4  817   0.742   3.091   2.340 -0.7354  1.2758  0.3343
   79c3c     H5  818   0.611   3.100   2.713 -0.0897  0.5119  0.0360
   79c3c     H6  819   0.493   3.168   2.596  0.0042  0.6305 -0.9016
   79c3c     H7  820   0.780   3.200   2.606 -1.5794  0.9375  0.4226
   79c3c     H8  821   0.693   3.262   2.474  0.0568 -2.1263 -2.8979
   79c3c     H9  822   0.755   2.801   2.641 -0.2711  0.4093 -0.4823
   79c3c    H10  823   0.893   2.854   2.570  0.2699 -2.1505  1.2462
   79c3c    H11  824   0.811   2.960   2.686  3.4455  0.1301 -0.7332
   79c3c    H12  825   0.809   2.830   2.352  1.0214  0.9572  0.0461
   79c3c    H13  826   0.682   2.740   2.427  2.5745  0.4213  1.2803
   79c3c     C7  827   0.636   2.862   2.250 -0.1076  0.1682 -0.0474
   79c3c    H14  828   0.696   2.936   2.197 -0.3133  1.8268  1.9607
   79c3c    H15  829   0.532   2.894   2.264  0.1825  1.5678 -1.0010
   79c3c     C8  830   0.619   2.716   2.185 -0.0831 -0.9086  0.3326
   79c3c    H16  831   0.610   2.728   2.077 -0.8919  2.4720  0.7293
   79c3c    H17  832   0.536   2.664   2.232 -2.4962  1.8596 -0.7545
   79c3c    H18  833   0.705   2.650   2.203  0.4479 -0.5129 -0.7329
   80c3c      N  834   2.832   1.251   0.795 -0.5918  0.4840 -0.1269
   80c3c     C1  835   2.873   1.328   0.681 -0.0378 -0.2396  0.2798
   80c3c     C2  836   2.694   1.220   0.761  0.5462  0.4498  0.1185
   80c3c     C3  837   2.800   1.273   0.563 -0.5987  0.1494 -0.5271
   80c3c     C4  838   2.686   1.193   0.614  0.3510 -0.0821 -0.7945
   80c3c     C5  839   2.916   1.130   0.797  0.6271 -0.3947 -0.5327
   80c3c     C6  840   2.855   1.320   0.924 -0.0357  0.5391  0.1154
   80c3c     H1  841   2.980   1.327   0.659 -0.5895  1.6279 -2.7009
   80c3c     H2  842   2.844   1.433   0.685 -2.1078 -0.7508 -1.0017
   80c3c     H3  843   2.658   1.135   0.819  0.0945  0.3002 -0.3737
   80c3c     H4  844   2.628   1.306   0.770  1.7251  1.4582 -0.8374
   80c3c     H5  845   2.872   1.216   0.504  1.1071  0.4528  1.1795
   80c3c     H6  846   2.768   1.353   0.497  1.4225 -0.4748 -2.3155
   80c3c     H7  847   2.710   1.090   0.588  1.5019  0.5908 -2.4474
   80c3c     H8  848   2.591   1.225   0.571  0.4633 -0.0112 -0.9901
   80c3c     H9  849   3.012   1.166   0.833 -0.0320  0.0493  0.8536
   80c3c    H10  850   2.869   1.058   0.865 -2.7988  0.4202 -1.9451
   80c3c    H11  851   2.935   1.084   0.701  0.1206 -2.9942  0.5679
   80c3c    H12  852   2.835   1.249   1.004  1.5436  1.7343  1.6126
   80c3c    H13  853   2.957   1.355   0.936  0.4715 -1.0425  0.4149
   80c3c     C7  854   2.763   1.438   0.955 -0.4126  0.3139 -0.2240
   80c3c    H14  855   2.659   1.406   0.963 -0.1448 -0.7311 -0.8116
   80c3c    H15  856   2.771   1.510   0.874  2.4361 -1.3975 -1.5499
   80c3c     C8  857   2.807   1.504   1.094 -0.4069 -0.4610  0.7425
   80c3c    H16  858   2.800   1.426   1.170  1.1129 -0.6596  0.6808
   80c3c    H17  859   2.742   1.590   1.114 -1.0460 -1.0008  1.0155
   80c3c    H18  860   2.904   1.553   1.085 -0.0976 -1.0161  1.0103
   81c3c      N  861   1.042   0.624   0.560  0.6414  0.2222 -0.1768
   81c3c     C1  862   0.982   0.744   0.613 -1.0308  0.1698 -0.9677
   81c3c     C2  863   0.933   0.522   0.587 -0.5338  0.1722 -0.0708
   81c3c     C3  864   0.835   0.739   0.566 -0.0434 -0.0741 -0.0228
   81c3c     C4  865   0.805   0.589   0.543  0.2351  0.8165 -0.4445
   81c3c     C5  866   1.064   0.644   0.417 -0.3549  0.4487 -0.2662
   81c3c     C6  867   1.165   0.589   0.630  0.0902  0.0258  0.0826
   81c3c     H1  868   1.026   0.844   0.604 -1.9088  0.4836 -1.8609
   81c3c     H2  869   0.975   0.743   0.722  0.0877  3.5764 -0.7860
   81c3c     H3  870   0.954   0.431   0.531  0.4417  0.3614 -0.0258
   81c3c     H4  871   0.933   0.493   0.693 -0.5382 -0.7073 -0.3049
   81c3c     H5  872   0.823   0.797   0.474  1.0807  1.1161  0.5601
   81c3c     H6  873   0.769   0.781   0.642 -0.5842  0.0207 -0.5399
   81c3c     H7  874   0.789   0.580   0.436 -2.9588  0.6589  0.0117
   81c3c     H8  875   0.724   0.537   0.593  0.3611  0.9887 -0.0589
   81c3c     H9  876   1.142   0.720   0.408  1.5525 -1.4401 -0.1542
   81c3c    H10  877   1.113   0.558   0.372  1.6930  2.3621 -1.8221
   81c3c    H11  878   0.990   0.684   0.347 -0.1980  2.4503  0.6654
   81c3c    H12  879   1.210   0.507   0.574 -1.0836 -0.5368 -0.0404
   81c3c    H13  880   1.229   0.675   0.609 -0.8437  1.2651  2.2170
   81c3c     C7  881   1.178   0.557   0.779 -0.5839  0.5727 -0.7963
   81c3c    H14  882   1.127   0.465   0.807 -0.0271  0.5578  0.2000
   81c3c    H15  883   1.124   0.639   0.826 -1.0842 -0.1606 -0.0752
   81c3c     C8  884   1.319   0.551   0.831 -0.5887 -0.8226  0.0434
   81c3c    H16  885   1.310   0.528   0.937 -1.8768  1.0449  0.3666
   81c3c    H17  886   1.366   0.649   0.818 -0.0757 -0.7903  2.0837
   81c3c    H18  887   1.377   0.477   0.777  0.1764 -0.5924  0.5405
   82c3c      N  888   0.192   0.489   0.967  0.1405 -0.2729  0.1488
   82c3c     C1  889   0.108   0.473   1.089 -0.7023  0.2933  0.2931
   82c3c     C2  890   0.332   0.491   1.011  0.1966  0.3821 -0.5592
   82c3c     C3  891   0.187   0.380   1.183 -0.8698  0.3917  0.0949
   82c3c     C4  892   0.338   0.400   1.139  0.3139 -0.2246 -0.1470
   82c3c     C5  893   0.190   0.368   0.883 -0.7650  0.1984 -0.1916
   82c3c     C6  894   0.159   0.600   0.877  0.0667 -1.1838  0.5713
   82c3c     H1  895   0.009   0.433   1.068 -0.6405  0.7586 -0.9336
   82c3c     H2  896   0.094   0.569   1.138 -1.7426 -0.6950  1.9897
   82c3c     H3  897   0.408   0.476   0.933  1.0591 -0.2925  0.3972
   82c3c     H4  898   0.364   0.589   1.046  1.8401 -0.0813 -0.6915
   82c3c     H5  899   0.164   0.279   1.147  0.5417  0.7864 -1.9781
   82c3c     H6  900   0.171   0.388   1.291  0.2930  1.9157  0.1640
   82c3c     H7  901   0.389   0.304   1.138  2.3422  0.8058  0.7166
   82c3c     H8  902   0.390   0.449   1.222  1.1470 -2.0098  0.4005
   82c3c     H9  903   0.095   0.342   0.836 -0.8733  3.2053 -1.7879
   82c3c    H10  904   0.258   0.366   0.798  0.3751  0.8519  0.6774
   82c3c    H11  905   0.238   0.283   0.931 -0.4465  0.7808  0.5352
   82c3c    H12  906   0.236   0.614   0.802 -1.0127  1.6487 -0.0816
   82c3c    H13  907   0.071   0.579   0.816  2.8737 -0.5822 -3.8386
   82c3c     C7  908   0.152   0.742   0.949  0.2177 -0.1592  0.2490
   82c3c    H14  909   0.228   0.766   1.024  0.5479  1.3693 -0.5540
   82c3c    H15  910   0.058   0.736   1.003  0.5461  0.7504  0.9383
   82c3c     C8  911   0.162   0.858   0.857  0.7020 -0.1910  0.4672
   82c3c    H16  912   0.124   0.951   0.902  2.7352  0.4731  0.8751
   82c3c    H17  913   0.097   0.858   0.770 -1.0014 -1.9433  1.6891
   82c3c    H18  914   0.264   0.882   0.827  0.1776  2.4637  0.6787
   83c3c      N  915   2.855   0.464   1.627  0.5410 -0.1913 -0.3662
   83c3c     C1  916   2.994   0.433   1.622  0.0612  0.0714  0.3678
   83c3c     C2  917   2.795   0.360   1.542  0.5382  0.2539  0.0182
   83c3c     C3  918   3.010   0.282   1.629 -0.1760 -0.1599 -0.5865
   83c3c     C4  919   2.876   0.231   1.574 -0.0158 -0.1162  0.4463
   83c3c     C5  920   2.815   0.434   1.768  0.4990  0.4887  0.3536
   83c3c     C6  921   2.818   0.597   1.586  0.0285  0.6060 -0.1663
   83c3c     H1  922   3.055   0.487   1.695 -0.9778 -1.6425  2.5507
   83c3c     H2  923   3.049   0.460   1.531 -1.1642 -0.3228 -0.4996
   83c3c     H3  924   2.688   0.355   1.563  0.0933  0.7397 -2.0154
   83c3c     H4  925   2.812   0.383   1.437  1.1611  0.3934  0.1477
   83c3c     H5  926   3.015   0.253   1.734  1.6828 -0.1503 -0.6597
   83c3c     H6  927   3.098   0.248   1.576  0.7673  2.0063 -0.4421
   83c3c     H7  928   2.827   0.160   1.640 -1.2456 -0.0061 -0.3402
   83c3c     H8  929   2.889   0.173   1.482 -0.1822  0.1743  0.2382
   83c3c     H9  930   2.882   0.494   1.829  1.1372 -1.3513  1.5079
   83c3c    H10  931   2.716   0.472   1.794  0.5162  0.5601  0.3140
   83c3c    H11  932   2.825   0.336   1.814 -1.5534  0.0685 -0.0534
   83c3c    H12  933   2.710   0.607   1.601 -0.2857  0.7914 -2.3594
   83c3c    H13  934   2.885   0.661   1.644 -1.2762  1.8027  0.0758
   83c3c     C7  935   2.837   0.636   1.438 -0.4246 -0.2600  0.6936
   83c3c    H14  936   2.764   0.584   1.377 -0.6787  0.5452  0.2992
   83c3c    H15  937   2.940   0.608   1.416 -1.1119 -0.1165 -3.0533
   83c3c     C8  938   2.824   0.785   1.416  0.3292 -0.1515 -0.1640
   83c3c    H16  939   2.898   0.841   1.474 -0.2165 -0.5445  0.9295
   83c3c    H17  940   2.729   0.830   1.445  0.8292  0.8548 -0.0677
   83c3c    H18  941   2.845   0.812   1.313  1.6417  0.3721  0.2284
   84c3c      N  942   1.043   1.018   2.912 -0.2197  0.8195  0.1997
   84c3c     C1  943   0.918   0.945   2.871 -0.0959 -1.1497  0.3861
   84c3c     C2  944   1.056   0.992   3.053  0.3731  0.5831  0.7808
   84c3c     C3  945   0.912   0.816   2.953 -0.1342  0.7631 -0.3211
   84c3c     C4  946   0.986   0.854   3.080  0.3748 -0.1762  0.0054
   84c3c     C5  947   1.160   0.959   2.851  0.5670  0.4333 -0.2051
   84c3c     C6  948   1.045   1.162   2.867  0.5650  0.3369 -0.2805
   84c3c     H1  949   0.907   0.922   2.765 -3.3569 -0.9188  0.6175
   84c3c     H2  950   0.827   0.996   2.903 -0.5594  0.0650 -2.6866
   84c3c     H3  951   1.157   0.995   3.094 -0.0732  0.2396  1.9104
   84c3c     H4  952   0.994   1.068   3.101  0.1948  1.3972 -0.6999
   84c3c     H5  953   0.976   0.736   2.914  1.9057  1.9627  0.5102
   84c3c     H6  954   0.819   0.764   2.976  0.4919  0.2262  1.0165
   84c3c     H7  955   1.047   0.774   3.120  1.7514  0.1079 -1.4784
   84c3c     H8  956   0.914   0.879   3.158 -0.2932 -1.6966 -0.1057
   84c3c     H9  957   1.251   0.990   2.903  1.7299  0.1570 -2.0212
   84c3c    H10  958   1.165   0.851   2.857 -1.0408  0.4430  2.1269
   84c3c    H11  959   1.160   0.983   2.744  1.3831  0.5993 -0.1695
   84c3c    H12  960   1.141   1.208   2.890 -1.0266  2.2724  2.7402
   84c3c    H13  961   1.038   1.173   2.759 -0.4524  0.0383 -0.2530
   84c3c     C7  962   0.923   1.246   2.913  0.9850 -0.1679  0.7044
   84c3c    H14  963   0.911   1.241   3.021  1.4257  1.2526  0.8227
   84c3c    H15  964   0.829   1.204   2.875  1.4569 -0.0862 -0.5530
   84c3c     C8  965   0.942   1.390   2.867  0.3232  0.5248  0.7813
   84c3c    H16  966   1.022   1.435   2.926  0.0008  0.4333  1.2949
   84c3c    H17  967   0.864   1.458   2.902 -0.2060 -1.2428  3.1506
   84c3c    H18  968   0.955   1.404   2.759 -2.2284  0.1813  0.3989
   85c3c      N  969   0.614   0.931   2.269  0.0982  0.4089  0.3553
   85c3c     C1  970   0.474   0.883   2.273 -0.0286  0.2935  0.3500
   85c3c     C2  971   0.616   1.027   2.379 -0.0812 -0.0416 -0.7771
   85c3c     C3  972   0.428   0.890   2.413  0.6947  0.4968 -0.5224
   85c3c     C4  973   0.540   0.959   2.489  0.3155 -0.2574  0.2121
   85c3c     C5  974   0.705   0.819   2.281  0.0294 -0.4549 -0.1548
   85c3c     C6  975   0.655   0.999   2.140 -0.1541 -0.3058  0.3640
   85c3c     H1  976   0.460   0.787   2.223  0.1543  0.7713 -0.6348
   85c3c     H2  977   0.402   0.944   2.219  0.0142  1.4164  1.5449
   85c3c     H3  978   0.713   1.071   2.401 -1.0831  1.0602  1.5575
   85c3c     H4  979   0.554   1.105   2.337  1.0380  0.1760 -2.0676
   85c3c     H5  980   0.411   0.792   2.458 -3.5007  2.1949  1.8536
   85c3c     H6  981   0.336   0.947   2.425  0.0114 -0.8905  0.9298
   85c3c     H7  982   0.598   0.887   2.546  0.1374  0.8006  1.7576
   85c3c     H8  983   0.512   1.034   2.563  2.7069  0.4661  0.4192
   85c3c     H9  984   0.685   0.739   2.210 -1.2751  1.4562 -2.0133
   85c3c    H10  985   0.812   0.844   2.275  0.2199 -0.8969  1.3498
   85c3c    H11  986   0.703   0.780   2.383 -1.4925 -0.5977 -0.2323
   85c3c    H12  987   0.757   1.034   2.158  0.3008 -1.8363  0.9041
   85c3c    H13  988   0.666   0.923   2.063  3.3911  0.5987 -0.1102
   85c3c     C7  989   0.569   1.115   2.084  0.1651 -0.3800 -0.7643
   85c3c    H14  990   0.558   1.198   2.153 -1.0038 -0.7967 -0.4390
   85c3c    H15  991   0.467   1.079   2.065 -0.2852 -0.0073  0.8748
   85c3c     C8  992   0.618   1.181   1.951  0.3880  0.1452 -0.2766
   85c3c    H16  993   0.614   1.112   1.867  1.2050  1.1619 -1.1636
   85c3c    H17  994   0.715   1.231   1.962  1.1898 -1.2717 -0.8517
   85c3c    H18  995   0.545   1.259   1.929  0.1770  0.2155  0.6430
   86c3c      N  996   2.357   1.399   1.380  0.1520  0.4080 -0.0420
   86c3c     C1  997   2.286   1.276   1.341 -0.0404  0.5457  0.0334
   86c3c     C2  998   2.421   1.445   1.263  0.3252 -0.6538  0.2351
   86c3c     C3  999   2.241   1.294   1.193 -0.2695  0.2550  0.2303
   86c3c     C4 1000   2.322   1.413   1.143  0.0880 -0.1793 -0.2855
   86c3c     C5 1001   2.252   1.490   1.429  0.2532 -0.3045 -0.1485
   86c3c     C6 1002   2.466   1.378   1.479 -0.3142 -0.1101 -0.5524
   86c3c     H1 1003   2.207   1.258   1.414  1.3934  1.3650  1.8168
   86c3c     H2 1004   2.354   1.192   1.353  0.2521  0.4275 -2.1635
   86c3c     H3 1005   2.443   1.552   1.265  0.0992 -0.6151  2.8853
   86c3c     H4 1006   2.507   1.381   1.243  1.8175  1.8573 -1.6450
   86c3c     H5 1007   2.135   1.304   1.173  0.0994 -0.4229 -2.3220
   86c3c     H6 1008   2.268   1.212   1.126  0.5274  1.8333 -1.4399
   86c3c     H7 1009   2.251   1.496   1.134  0.2277 -0.2439 -2.3477
   86c3c     H8 1010   2.378   1.416   1.049 -2.8622 -0.0697 -2.1171
   86c3c     H9 1011   2.287   1.591   1.447 -0.0843 -0.1978 -0.0871
   86c3c    H10 1012   2.171   1.492   1.355  1.1195 -0.6152 -1.1289
   86c3c    H11 1013   2.220   1.459   1.528  1.7835  1.3162  0.8669
   86c3c    H12 1014   2.546   1.314   1.440  1.8134  1.8288  0.4850
   86c3c    H13 1015   2.519   1.473   1.490 -1.6637  0.6221 -0.3402
   86c3c     C7 1016   2.420   1.333   1.614  0.0968 -0.0558 -0.5036
   86c3c    H14 1017   2.336   1.264   1.611  0.9127 -1.0698 -0.6124
   86c3c    H15 1018   2.367   1.416   1.660  2.8976  0.0110  2.8169
   86c3c     C8 1019   2.535   1.291   1.704  0.1481 -0.4146 -0.6957
   86c3c    H16 1020   2.599   1.211   1.665 -1.1910 -0.3563 -3.1086
   86c3c    H17 1021   2.504   1.266   1.805  0.5095  0.7653 -0.2906
   86c3c    H18 1022   2.604   1.375   1.694 -0.0543 -0.4143 -2.2831
   87c3c      N 1023   2.305   0.230   0.792  0.0944  0.2382 -0.7246
   87c3c     C1 1024   2.286   0.336   0.696 -0.1499 -0.0606 -0.2197
   87c3c     C2 1025   2.456   0.223   0.792  0.5255 -0.6231 -0.2952
   87c3c     C3 1026   2.390   0.444   0.729  0.2463  0.1810 -0.2985
   87c3c     C4 1027   2.508   0.369   0.785  0.3111  0.1154  0.1306
   87c3c     C5 1028   2.260   0.273   0.926 -0.0892 -0.1229 -0.9340
   87c3c     C6 1029   2.240   0.103   0.763 -0.4188  0.1908 -0.9015
   87c3c     H1 1030   2.189   0.385   0.686  0.3084  1.1336  1.0750
   87c3c     H2 1031   2.315   0.305   0.595  0.0164 -1.7729  0.3441
   87c3c     H3 1032   2.501   0.171   0.877  1.1463  0.1290 -0.1614
   87c3c     H4 1033   2.486   0.180   0.697  1.9957 -1.2954  0.4581
   87c3c     H5 1034   2.347   0.511   0.803 -1.0511 -0.2472 -0.6588
   87c3c     H6 1035   2.417   0.502   0.640 -1.0382 -0.9494 -1.4523
   87c3c     H7 1036   2.533   0.404   0.885 -1.6929  0.9615  0.3505
   87c3c     H8 1037   2.594   0.374   0.718 -0.0094  1.8258 -0.1899
   87c3c     H9 1038   2.276   0.204   1.009  0.0125  0.0061 -0.8455
   87c3c    H10 1039   2.305   0.363   0.968  1.4289 -1.5262  0.5610
   87c3c    H11 1040   2.152   0.286   0.929 -0.1085 -0.2076 -1.2390
   87c3c    H12 1041   2.243   0.035   0.849 -1.8849  0.7247 -0.4206
   87c3c    H13 1042   2.134   0.122   0.749 -1.2070 -2.3579  1.2226
   87c3c     C7 1043   2.278   0.027   0.631 -0.1591  0.0116 -0.3706
   87c3c    H14 1044   2.382  -0.005   0.639 -0.5501 -0.8408  1.3765
   87c3c    H15 1045   2.269   0.090   0.542  0.3197 -0.9439 -1.1064
   87c3c     C8 1046   2.196  -0.098   0.608  0.6566 -0.5750 -0.2452
   87c3c    H16 1047   2.208  -0.162   0.695 -1.4545  0.2920  0.7070
   87c3c    H17 1048   2.221  -0.161   0.522 -3.9074 -2.1377 -0.5312
   87c3c    H18 1049   2.089  -0.094   0.628  1.0046  2.6823  1.3824
   88c3c      N 1050   0.142   0.838   0.337  0.1059 -0.1872 -1.1458
   88c3c     C1 1051   0.194   0.901   0.218 -0.0326 -0.1329  1.0474
   88c3c     C2 1052   0.069   0.943   0.408 -0.4061  0.8280 -0.2511
   88c3c     C3 1053   0.080   0.976   0.158 -0.1081  0.0913 -0.2031
   88c3c     C4 1054  -0.004   1.005   0.285 -0.0194 -0.0261  1.0111
   88c3c     C5 1055   0.058   0.718   0.315 -0.0314 -0.3632  0.1934
   88c3c     C6 1056   0.255   0.789   0.420 -0.2960 -0.1225 -0.3652
   88c3c     H1 1057   0.231   0.829   0.144 -2.7441  2.0559 -2.5850
   88c3c     H2 1058   0.267   0.977   0.244  0.7373  0.1548 -1.7559
   88c3c     H3 1059   0.010   0.889   0.483  0.3289 -0.9189 -0.9125
   88c3c     H4 1060   0.111   1.027   0.463  0.1603 -0.4482  1.2948
   88c3c     H5 1061   0.028   0.906   0.093  0.1356  0.1032 -0.4093
   88c3c     H6 1062   0.114   1.061   0.098 -0.2740 -0.0712 -0.5263
   88c3c     H7 1063  -0.106   0.966   0.278 -1.1158  3.1407 -2.2044
   88c3c     H8 1064  -0.016   1.113   0.298  0.1661  0.0829  0.2967
   88c3c     H9 1065   0.125   0.641   0.277  3.0693  1.8855  0.8816
   88c3c    H10 1066   0.009   0.679   0.404  1.3276 -0.2060  1.0386
   88c3c    H11 1067  -0.017   0.741   0.239  2.3043  0.5907 -1.9285
   88c3c    H12 1068   0.229   0.746   0.517 -0.6384  1.0755  0.0874
   88c3c    H13 1069   0.309   0.706   0.374 -0.0623 -0.4778  0.5257
   88c3c     C7 1070   0.367   0.897   0.467  0.2832 -0.5854  0.1199
   88c3c    H14 1071   0.316   0.986   0.506 -1.3378 -1.3049 -0.3095
   88c3c    H15 1072   0.428   0.935   0.385  0.8768 -0.1765  0.7492
   88c3c     C8 1073   0.459   0.836   0.571 -0.2911  0.3569 -0.8514
   88c3c    H16 1074   0.421   0.778   0.655  0.7875  0.9999  0.1035
   88c3c    H17 1075   0.502   0.930   0.607  0.3632 -0.9091  1.7980
   88c3c    H18 1076   0.539   0.769   0.540 -0.1236 -0.6440  1.6263
   89c3c      N 1077   1.759   2.709   0.837 -0.0916  0.7705  0.0855
   89c3c     C1 1078   1.691   2.642   0.953 -0.3881 -0.0434  0.5206
   89c3c     C2 1079   1.692   2.836   0.822  0.0080 -0.5427  0.4259
   89c3c     C3 1080   1.650   2.761   1.048 -0.1439  0.3652  0.5816
   89c3c     C4 1081   1.650   2.887   0.962  0.7110 -0.2708  0.1170
   89c3c     C5 1082   1.896   2.745   0.877 -0.1091  0.7387  0.4455
   89c3c     C6 1083   1.754   2.620   0.718 -0.2597 -0.0698  0.0829
   89c3c     H1 1084   1.767   2.580   1.000  2.2236  1.7707 -1.1328
   89c3c     H2 1085   1.608   2.576   0.930 -0.0533  0.1906 -1.4315
   89c3c     H3 1086   1.753   2.901   0.760  0.8187 -2.4997 -0.8861
   89c3c     H4 1087   1.603   2.838   0.760  0.2472  3.7582  0.0583
   89c3c     H5 1088   1.726   2.768   1.126  2.5437  0.1326 -1.9712
   89c3c     H6 1089   1.553   2.732   1.089  0.0827 -0.5995  0.4569
   89c3c     H7 1090   1.714   2.967   1.001 -0.0189 -0.1522  1.0951
   89c3c     H8 1091   1.548   2.923   0.949  1.1323  0.8176 -0.2385
   89c3c     H9 1092   1.955   2.655   0.891 -0.4289  0.5524  0.5935
   89c3c    H10 1093   1.954   2.799   0.802 -0.4691  1.3782  0.6278
   89c3c    H11 1094   1.900   2.800   0.971 -0.3520  1.0228  0.2906
   89c3c    H12 1095   1.822   2.669   0.647  1.8324  1.4721  3.0437
   89c3c    H13 1096   1.786   2.516   0.732 -0.5876 -0.0584  0.8788
   89c3c     C7 1097   1.623   2.615   0.638 -1.2660 -0.0762 -0.3684
   89c3c    H14 1098   1.596   2.707   0.585 -0.7894  0.6638  0.6630
   89c3c    H15 1099   1.544   2.608   0.713 -1.3414  0.1152 -0.4280
   89c3c     C8 1100   1.611   2.502   0.536 -0.1209  0.1562 -0.7125
   89c3c    H16 1101   1.517   2.499   0.482  1.3164 -1.7579 -3.1890
   89c3c    H17 1102   1.629   2.406   0.585 -1.8370 -0.3230 -0.9864
   89c3c    H18 1103   1.691   2.524   0.465 -0.9255  0.6003 -1.4879
   90c3c      N 1104   0.382   1.661   2.349 -0.2268 -0.3398 -0.1763
   90c3c     C1 1105   0.251   1.710   2.300 -0.1892 -0.0865 -0.1599
   90c3c     C2 1106   0.388   1.525   2.308  0.7075 -0.1772  0.0006
   90c3c     C3 1107   0.236   1.650   2.157 -0.4794 -0.6307  0.3077
   90c3c     C4 1108   0.335   1.533   2.157  0.1893 -0.2219  0.2304
   90c3c     C5 1109   0.482   1.743   2.282 -0.2548 -1.1711  0.4486
   90c3c     C6 1110   0.404   1.668   2.494  0.2298 -0.6905 -0.3435
   90c3c     H1 1111   0.237   1.818   2.298  0.0437 -0.0050  1.8881
   90c3c     H2 1112   0.174   1.654   2.354 -0.2872  0.6083  0.4162
   90c3c     H3 1113   0.490   1.486   2.301  0.4502 -0.6696 -1.1884
   90c3c     H4 1114   0.327   1.455   2.365  2.0806 -1.2247  0.2153
   90c3c     H5 1115   0.264   1.716   2.075 -1.3161 -1.8797 -1.0124
   90c3c     H6 1116   0.138   1.605   2.140  0.1608 -1.7877 -0.4876
   90c3c     H7 1117   0.418   1.543   2.088 -0.9541 -1.7360 -1.4245
   90c3c     H8 1118   0.290   1.439   2.125 -0.1051 -0.2655  0.7588
   90c3c     H9 1119   0.472   1.849   2.308 -0.0097 -0.9369 -0.3820
   90c3c    H10 1120   0.580   1.721   2.324 -0.3342  0.0584  1.2969
   90c3c    H11 1121   0.502   1.726   2.176 -1.5381  1.1388 -0.2171
   90c3c    H12 1122   0.509   1.640   2.502  0.1297 -0.8974  0.2394
   90c3c    H13 1123   0.392   1.767   2.538 -1.1431 -0.5188 -1.0627
   90c3c     C7 1124   0.319   1.584   2.592  0.2275  0.2267 -0.4489
   90c3c    H14 1125   0.323   1.476   2.577 -0.4652  0.0646  0.4759
   90c3c    H15 1126   0.216   1.614   2.570  0.0990  0.0717 -0.0547
   90c3c     C8 1127   0.352   1.605   2.741 -0.1385 -0.1114 -0.0192
   90c3c    H16 1128   0.313   1.703   2.769  0.6768  0.9042 -2.2820
   90c3c    H17 1129   0.456   1.594   2.771  0.2656  0.4710 -1.1488
   90c3c    H18 1130   0.297   1.527   2.794 -0.3778 -0.4129 -0.7043
   91c3c      N 1131   0.818   2.132   2.342 -0.0052 -0.8765  0.1224
   91c3c     C1 1132   0.736   2.012   2.373 -0.0880  0.3499 -0.1096
   91c3c     C2 1133   0.839   2.194   2.470 -0.4692 -0.3882 -0.5019
   91c3c     C3 1134   0.800   1.953   2.499 -0.1007 -0.9460  0.4273
   91c3c     C4 1135   0.878   2.073   2.559 -0.0399 -0.5520  0.5927
   91c3c     C5 1136   0.952   2.087   2.287  0.7940  0.0268  0.4774
   91c3c     C6 1137   0.757   2.224   2.237 -1.2990  0.6436 -0.5253
   91c3c     H1 1138   0.741   1.933   2.298  1.8092  0.1876  0.1648
   91c3c     H2 1139   0.629   2.029   2.387 -0.4705  0.0150 -2.4710
   91c3c     H3 1140   0.904   2.282   2.470 -0.0845 -0.6687  0.0315
   91c3c     H4 1141   0.739   2.229   2.496 -1.8772 -3.6048 -1.3131
   91c3c     H5 1142   0.870   1.874   2.474  0.5731  0.0255 -0.7708
   91c3c     H6 1143   0.731   1.906   2.569 -1.4457 -0.5602 -0.6325
   91c3c     H7 1144   0.986   2.059   2.552  0.4715  3.5502 -0.9729
   91c3c     H8 1145   0.854   2.096   2.663 -0.2082  0.9277  0.2360
   91c3c     H9 1146   0.929   2.032   2.196 -0.9666 -0.6025  1.2809
   91c3c    H10 1147   1.019   2.169   2.262 -1.5874  1.1215 -2.5384
   91c3c    H11 1148   1.003   2.011   2.347  1.2905  1.5783  2.0496
   91c3c    H12 1149   0.817   2.313   2.216 -0.0516 -0.0638 -0.0181
   91c3c    H13 1150   0.747   2.175   2.140  0.8394  1.9138 -1.4455
   91c3c     C7 1151   0.616   2.272   2.257 -0.1007  0.4226  0.3002
   91c3c    H14 1152   0.616   2.329   2.350 -1.6264  0.2551  0.4126
   91c3c    H15 1153   0.553   2.184   2.275  2.1617 -1.7931 -2.1869
   91c3c     C8 1154   0.557   2.344   2.137 -0.4187 -0.2029 -0.2588
   91c3c    H16 1155   0.631   2.413   2.096  0.0860  0.8188  2.2852
   91c3c    H17 1156   0.464   2.397   2.152 -0.2516  0.5078 -1.6789
   91c3c    H18 1157   0.535   2.279   2.052 -0.7053  1.4385 -1.4588
   92c3c      N 1158   0.963   1.680   0.995 -0.2377 -0.9559  0.6648
   92c3c     C1 1159   0.863   1.609   1.075 -0.4248 -0.4918 -0.5869
   92c3c     C2 1160   0.876   1.764   0.906 -0.1707 -0.3258 -0.4325
   92c3c     C3 1161   0.760   1.709   1.119  0.2860 -0.0048 -0.1506
   92c3c     C4 1162   0.772   1.815   1.005  0.4196 -0.0479 -0.2389
   92c3c     C5 1163   1.044   1.758   1.086 -0.1912  0.3561  0.3005
   92c3c     C6 1164   1.052   1.592   0.919 -0.2199 -0.4073 -0.2476
   92c3c     H1 1165   0.920   1.558   1.152 -2.0247 -2.0276 -0.4013
   92c3c     H2 1166   0.814   1.529   1.021 -0.3873 -1.8931  1.4105
   92c3c     H3 1167   0.927   1.843   0.850  0.1509 -0.2417 -0.0263
   92c3c     H4 1168   0.814   1.709   0.835  0.5945  0.8180 -2.0143
   92c3c     H5 1169   0.795   1.749   1.215  1.3911  0.9703 -0.9403
   92c3c     H6 1170   0.657   1.676   1.132  0.2279  0.1938 -0.1054
   92c3c     H7 1171   0.801   1.915   1.039 -1.0436  0.5637 -0.7123
   92c3c     H8 1172   0.673   1.834   0.963  0.6543  1.7707 -0.0264
   92c3c     H9 1173   0.981   1.821   1.149  0.1300  1.9497 -0.9409
   92c3c    H10 1174   1.100   1.704   1.162  1.3388  1.4422 -0.0497
   92c3c    H11 1175   1.106   1.829   1.032 -0.2959 -0.5747 -1.0870
   92c3c    H12 1176   1.123   1.652   0.861  0.0104 -0.7136 -0.2875
   92c3c    H13 1177   1.109   1.543   0.998 -0.1346 -0.1020 -0.1178
   92c3c     C7 1178   0.992   1.495   0.815  0.7916  0.8703  0.3149
   92c3c    H14 1179   0.932   1.552   0.745 -0.0432 -0.8422 -0.4000
   92c3c    H15 1180   0.937   1.416   0.867 -0.7849  0.0325 -2.5418
   92c3c     C8 1181   1.101   1.435   0.732 -0.5136 -0.4725  0.3409
   92c3c    H16 1182   1.181   1.389   0.791  0.3270 -1.3976 -1.4847
   92c3c    H17 1183   1.148   1.505   0.663 -2.3936 -1.2767 -1.8162
   92c3c    H18 1184   1.058   1.356   0.671  0.3685 -0.5081 -0.2444
   93c3c      N 1185   1.645   2.976   2.413 -0.0908 -0.3320 -0.5152
   93c3c     C1 1186   1.559   3.004   2.530 -0.0341  0.5222 -0.5137
   93c3c     C2 1187   1.634   2.829   2.406  0.6990  0.1414  0.2886
   93c3c     C3 1188   1.447   2.911   2.516 -0.1891 -0.0443 -0.3114
   93c3c     C4 1189   1.493   2.792   2.447  0.4593  0.1732  0.6000
   93c3c     C5 1190   1.584   3.024   2.284  0.1131 -0.0198  0.3017
   93c3c     C6 1191   1.785   3.023   2.423 -0.2416 -0.3291 -0.0371
   93c3c     H1 1192   1.528   3.102   2.564  0.5825  0.2651  0.8379
   93c3c     H2 1193   1.608   2.965   2.619 -1.3937 -0.1212 -0.0312
   93c3c     H3 1194   1.662   2.786   2.310  0.3613 -1.3330  0.8418
   93c3c     H4 1195   1.684   2.773   2.484  0.1059 -0.6852  0.0757
   93c3c     H5 1196   1.370   2.953   2.451 -0.9162 -1.1229 -0.1610
   93c3c     H6 1197   1.398   2.902   2.613 -1.3457  2.8113 -0.5744
   93c3c     H7 1198   1.422   2.780   2.366 -0.7953  2.0843  1.3918
   93c3c     H8 1199   1.500   2.706   2.514 -0.9653 -1.5276 -1.3777
   93c3c     H9 1200   1.602   3.130   2.269  1.1676  0.0976  2.2406
   93c3c    H10 1201   1.633   2.991   2.192 -0.3135  0.1908 -0.0025
   93c3c    H11 1202   1.485   2.984   2.262 -0.3655 -0.1806  2.5911
   93c3c    H12 1203   1.849   2.988   2.342  1.9604  0.6686  1.2300
   93c3c    H13 1204   1.783   3.132   2.418  3.4993 -0.1867  0.6702
   93c3c     C7 1205   1.868   2.992   2.551  0.0498 -0.0898  0.1706
   93c3c    H14 1206   1.880   2.886   2.572 -1.5377 -0.4817 -0.7726
   93c3c    H15 1207   1.819   3.055   2.625 -0.0237  0.2173 -0.1348
   93c3c     C8 1208   2.012   3.045   2.527  0.5691 -0.5071  1.1687
   93c3c    H16 1209   2.066   3.064   2.619  1.4325 -2.0895  1.0110
   93c3c    H17 1210   2.024   3.134   2.464  0.6562  0.1066  2.0548
   93c3c    H18 1211   2.082   2.975   2.480  1.4791  1.2283 -0.1719
   94c3c      N 1212   0.447   1.268   0.938  0.6724  0.4089  0.8458
   94c3c     C1 1213   0.454   1.380   1.037  0.4469 -0.0247 -0.6843
   94c3c     C2 1214   0.531   1.159   0.995  0.2904  0.4696  0.2765
   94c3c     C3 1215   0.443   1.303   1.177 -0.1922  0.1052  0.1455
   94c3c     C4 1216   0.490   1.159   1.143 -0.3883  0.3169  0.0225
   94c3c     C5 1217   0.307   1.224   0.923 -0.4490  0.3260 -0.2261
   94c3c     C6 1218   0.490   1.307   0.798  0.3505 -0.4806 -0.3832
   94c3c     H1 1219   0.378   1.455   1.016 -2.3466 -2.3320  0.8480
   94c3c     H2 1220   0.554   1.424   1.038 -0.4274  2.1730 -3.0327
   94c3c     H3 1221   0.541   1.060   0.951  0.2135 -0.0965  1.5165
   94c3c     H4 1222   0.635   1.189   1.008  0.9647 -0.6994 -2.1592
   94c3c     H5 1223   0.340   1.302   1.211 -0.5084  1.6035 -0.7076
   94c3c     H6 1224   0.498   1.341   1.264  0.2297 -1.3834  0.5454
   94c3c     H7 1225   0.408   1.088   1.158  0.8319 -1.1498 -0.1190
   94c3c     H8 1226   0.572   1.123   1.205 -2.0404 -0.9296  1.5492
   94c3c     H9 1227   0.235   1.296   0.884 -0.1447  0.5490 -0.3830
   94c3c    H10 1228   0.295   1.141   0.853 -0.1575 -0.5057  0.7028
   94c3c    H11 1229   0.269   1.186   1.018  1.7940 -0.7960  0.2452
   94c3c    H12 1230   0.462   1.229   0.727 -0.3525 -2.0410  1.5864
   94c3c    H13 1231   0.428   1.392   0.773  0.5688 -0.3615 -0.5228
   94c3c     C7 1232   0.636   1.324   0.769 -0.2671  0.1132  0.6725
   94c3c    H14 1233   0.698   1.235   0.774 -0.4528  0.0654  2.3044
   94c3c    H15 1234   0.664   1.396   0.846  2.5878  0.3089 -0.4642
   94c3c     C8 1235   0.671   1.394   0.639 -1.2255 -0.2365 -0.2799
   94c3c    H16 1236   0.626   1.341   0.555 -1.9941  2.7329 -1.7966
   94c3c    H17 1237   0.777   1.392   0.613 -1.7373 -1.5171 -2.4519
   94c3c    H18 1238   0.650   1.501   0.632  0.3416  0.0140 -1.6602
   95c3c      N 1239   1.021   1.667   0.273  0.2147 -0.6569 -0.0908
   95c3c     C1 1240   1.008   1.811   0.296  0.2539 -0.1448 -0.1935
   95c3c     C2 1241   1.011   1.621   0.410 -0.3203  0.2704 -0.6128
   95c3c     C3 1242   0.886   1.821   0.391  0.1174 -0.7697  0.1481
   95c3c     C4 1243   0.891   1.696   0.479 -0.1633 -0.2427  0.0710
   95c3c     C5 1244   0.899   1.624   0.199 -0.8504  0.4127 -0.6661
   95c3c     C6 1245   1.141   1.616   0.200 -0.3515 -0.1206  0.0447
   95c3c     H1 1246   0.991   1.869   0.205  2.2506 -2.3989 -2.0673
   95c3c     H2 1247   1.102   1.858   0.327  1.6448 -2.9147 -0.0935
   95c3c     H3 1248   1.009   1.512   0.416 -0.7810  0.2938 -0.2282
   95c3c     H4 1249   1.096   1.650   0.471  0.2227 -2.1803 -0.1340
   95c3c     H5 1250   0.790   1.828   0.340  0.1340  0.0948  0.2285
   95c3c     H6 1251   0.903   1.912   0.448 -4.3061 -0.0712  0.5469
   95c3c     H7 1252   0.799   1.639   0.478  0.4134 -1.1841 -2.3149
   95c3c     H8 1253   0.919   1.724   0.580  2.5522 -0.2604 -0.6305
   95c3c     H9 1254   0.921   1.526   0.155 -0.4433 -0.5044  1.5266
   95c3c    H10 1255   0.807   1.601   0.252 -0.3583 -1.4594 -0.5997
   95c3c    H11 1256   0.871   1.693   0.120 -1.0940  0.8632 -0.1885
   95c3c    H12 1257   1.138   1.508   0.183  0.1791  0.1271 -1.6880
   95c3c    H13 1258   1.149   1.674   0.109  1.6694 -1.3306 -0.5918
   95c3c     C7 1259   1.274   1.642   0.272 -0.4468  0.9470  0.0966
   95c3c    H14 1260   1.287   1.569   0.353 -0.0742 -1.2091 -1.8454
   95c3c    H15 1261   1.293   1.734   0.326  2.7706 -0.1654  0.9544
   95c3c     C8 1262   1.384   1.655   0.169 -0.1259 -0.6901  0.0244
   95c3c    H16 1263   1.474   1.672   0.227  0.1456 -1.4497 -0.1680
   95c3c    H17 1264   1.366   1.739   0.103 -1.3869 -1.7267 -0.9818
   95c3c    H18 1265   1.400   1.565   0.110  1.2120 -0.7632  0.4904
   96c3c      N 1266   2.813   1.133   2.677 -0.0546  0.0070 -0.1954
   96c3c     C1 1267   2.777   1.163   2.815 -0.1652 -0.3806 -0.1056
   96c3c     C2 1268   2.812   0.987   2.663  0.0208 -0.1003 -0.1836
   96c3c     C3 1269   2.677   1.051   2.847  0.7633 -0.1827 -0.1962
   96c3c     C4 1270   2.680   0.952   2.729  0.0863  0.3841 -0.5465
   96c3c     C5 1271   2.717   1.197   2.586  0.1444  0.3573  0.5559
   96c3c     C6 1272   2.943   1.188   2.636  0.0202  0.5136  0.0123
   96c3c     H1 1273   2.746   1.266   2.834 -0.3419 -0.4910  0.1936
   96c3c     H2 1274   2.860   1.156   2.885 -1.7853 -0.6607  1.8390
   96c3c     H3 1275   2.826   0.938   2.567  3.0509 -0.3716  0.3566
   96c3c     H4 1276   2.897   0.945   2.717  0.4010 -1.7217 -2.0087
   96c3c     H5 1277   2.576   1.091   2.860  0.7861  0.1242 -0.9832
   96c3c     H6 1278   2.710   1.012   2.944 -1.2757 -0.4598  0.4229
   96c3c     H7 1279   2.586   0.970   2.678  0.1253 -1.4139 -1.2810
   96c3c     H8 1280   2.678   0.855   2.779  0.8092 -0.1722 -1.5783
   96c3c     H9 1281   2.705   1.304   2.598  2.3626  0.5893  0.8248
   96c3c    H10 1282   2.730   1.179   2.479  0.7916  0.4880  0.6085
   96c3c    H11 1283   2.615   1.160   2.597 -0.7082  2.8438  1.2250
   96c3c    H12 1284   2.967   1.177   2.530 -1.5010 -0.7771 -0.2214
   96c3c    H13 1285   2.931   1.296   2.644  0.4278  0.5052  0.7270
   96c3c     C7 1286   3.074   1.156   2.711 -0.1241  0.7947 -0.7319
   96c3c    H14 1287   3.085   1.049   2.726 -1.0445  0.8569  0.4666
   96c3c    H15 1288   3.082   1.210   2.805  1.0950 -0.4915 -0.0723
   96c3c     C8 1289   3.198   1.210   2.644 -0.4672  0.6996  0.0867
   96c3c    H16 1290   3.297   1.207   2.691 -1.7501 -1.3721  2.7803
   96c3c    H17 1291   3.181   1.315   2.621 -1.5121  0.1186 -1.8953
   96c3c    H18 1292   3.198   1.155   2.550 -2.3484  0.3851  0.2597
   97c3c      N 1293   2.282   0.966   2.428 -0.1900  0.9335 -0.1643
   97c3c     C1 1294   2.183   0.926   2.321  0.3382  0.3920  0.5819
   97c3c     C2 1295   2.189   0.995   2.541 -0.4953 -0.8220 -0.2321
   97c3c     C3 1296   2.075   0.839   2.388 -0.4495 -0.3275  0.4817
   97c3c     C4 1297   2.070   0.897   2.529 -0.0040  0.8797  0.1869
   97c3c     C5 1298   2.371   0.849   2.461 -0.1509 -0.3914  0.2140
   97c3c     C6 1299   2.370   1.065   2.375  0.3580 -0.3478 -0.1520
   97c3c     H1 1300   2.232   0.870   2.241 -1.7174  1.1672 -1.2530
   97c3c     H2 1301   2.128   1.010   2.278  0.4259 -0.1832 -0.6841
   97c3c     H3 1302   2.221   0.993   2.645  2.2517 -1.5543 -1.0559
   97c3c     H4 1303   2.156   1.098   2.526  0.2270 -0.4232  0.8225
   97c3c     H5 1304   2.104   0.734   2.383 -2.0508 -0.7277 -1.0229
   97c3c     H6 1305   1.978   0.849   2.340  0.3785 -0.1747 -1.1859
   97c3c     H7 1306   2.100   0.814   2.593 -0.5381  1.4825  1.2290
   97c3c     H8 1307   1.976   0.936   2.567  0.1651  0.8338  0.6565
   97c3c     H9 1308   2.410   0.797   2.374 -3.4018 -0.4829 -1.2665
   97c3c    H10 1309   2.450   0.873   2.532  0.1003 -2.8910  0.8110
   97c3c    H11 1310   2.321   0.768   2.513  1.1590 -3.6745 -3.3944
   97c3c    H12 1311   2.441   1.093   2.452  0.2712 -1.8782  0.5121
   97c3c    H13 1312   2.429   1.025   2.292 -1.9332 -0.1062 -1.9675
   97c3c     C7 1313   2.311   1.204   2.341 -0.0934  0.4103 -1.1471
   97c3c    H14 1314   2.283   1.244   2.438 -1.3996 -1.2014 -0.8437
   97c3c    H15 1315   2.229   1.208   2.270 -0.1208 -3.1929 -1.3703
   97c3c     C8 1316   2.434   1.297   2.295 -0.0655  0.2139 -0.1084
   97c3c    H16 1317   2.499   1.310   2.382 -1.0338  3.0795  0.2663
   97c3c    H17 1318   2.391   1.394   2.269 -1.0629 -0.1003  0.3525
   97c3c    H18 1319   2.492   1.251   2.215 -0.0627 -0.3394  0.2136
   98c3c      N 1320   1.530   1.268   0.654 -0.3140 -0.2965 -0.3768
   98c3c     C1 1321   1.469   1.385   0.596  0.1440  0.0382 -0.4135
   98c3c     C2 1322   1.638   1.230   0.553 -0.1949  0.0251 -0.3174
   98c3c     C3 1323   1.578   1.458   0.522  0.5737  0.0208  0.0990
   98c3c     C4 1324   1.697   1.366   0.506 -0.0546 -0.5068  0.0259
   98c3c     C5 1325   1.589   1.305   0.785 -0.0943 -0.7138  0.6439
   98c3c     C6 1326   1.428   1.167   0.676  0.5136 -0.4368  0.2380
   98c3c     H1 1327   1.424   1.433   0.683  0.5799  1.8056 -1.1415
   98c3c     H2 1328   1.388   1.361   0.527 -0.7267 -1.1785  0.9959
   98c3c     H3 1329   1.710   1.162   0.597 -0.3089 -0.5873 -1.0613
   98c3c     H4 1330   1.613   1.190   0.454  2.4485 -2.2699 -0.1049
   98c3c     H5 1331   1.599   1.548   0.580 -4.4586  1.6426 -0.2877
   98c3c     H6 1332   1.555   1.503   0.425 -0.4565  1.7217  1.0952
   98c3c     H7 1333   1.779   1.389   0.575 -1.3965 -0.3067  1.5789
   98c3c     H8 1334   1.734   1.364   0.403  3.5936  2.5903  1.1288
   98c3c     H9 1335   1.517   1.334   0.862  0.1449  3.6810 -0.6895
   98c3c    H10 1336   1.643   1.222   0.831 -1.5458 -1.0422  1.8134
   98c3c    H11 1337   1.669   1.378   0.776  0.7585 -1.8458 -1.3414
   98c3c    H12 1338   1.480   1.089   0.732  0.7112  0.0836  0.7827
   98c3c    H13 1339   1.346   1.203   0.739 -2.7244 -2.2905 -2.7511
   98c3c     C7 1340   1.359   1.100   0.558 -0.0960 -0.0255 -1.2256
   98c3c    H14 1341   1.444   1.058   0.503  1.4358  0.6621  0.5586
   98c3c    H15 1342   1.300   1.168   0.497 -1.2406 -0.5662 -0.7260
   98c3c     C8 1343   1.279   0.973   0.596 -0.4501  0.0322 -0.1437
   98c3c    H16 1344   1.338   0.895   0.644  0.7517 -0.5623 -2.5474
   98c3c    H17 1345   1.236   0.929   0.506 -0.0419  0.9382 -0.7871
   98c3c    H18 1346   1.190   0.997   0.655  0.2206  1.3839  0.3403
   99c3c      N 1347   1.585   2.241   1.612  0.4363  0.0206  0.0112
   99c3c     C1 1348   1.499   2.190   1.716 -0.4383 -0.0267 -0.6854
   99c3c     C2 1349   1.679   2.328   1.680  0.0928  0.3971 -0.6361
   99c3c     C3 1350   1.579   2.188   1.851  0.5666  0.0460 -0.1373
   99c3c     C4 1351   1.706   2.262   1.817  0.1053 -0.6932 -0.3309
   99c3c     C5 1352   1.656   2.118   1.565  0.8710  0.3030  0.1311
   99c3c     C6 1353   1.508   2.303   1.502 -0.2018 -0.1903  0.2617
   99c3c     H1 1354   1.455   2.092   1.697 -0.3295 -0.4116  0.9915
   99c3c     H2 1355   1.419   2.261   1.737  0.8373  0.8134  1.4774
   99c3c     H3 1356   1.775   2.329   1.628  0.8458 -0.9901  0.6710
   99c3c     H4 1357   1.656   2.432   1.702  1.0429  0.2262  1.2860
   99c3c     H5 1358   1.608   2.086   1.878  1.5332  0.1263 -0.8493
   99c3c     H6 1359   1.531   2.240   1.933 -1.0888 -1.4648 -0.1178
   99c3c     H7 1360   1.796   2.204   1.802  1.5808  1.2088  0.9307
   99c3c     H8 1361   1.737   2.329   1.898 -1.0929  1.7695 -1.8372
   99c3c     H9 1362   1.595   2.064   1.492  0.5440  0.3258  0.3848
   99c3c    H10 1363   1.745   2.137   1.506  0.8123 -2.5674 -0.9757
   99c3c    H11 1364   1.683   2.042   1.638  0.0164  1.8151  2.0615
   99c3c    H12 1365   1.578   2.328   1.422  1.2984  0.6240  1.7788
   99c3c    H13 1366   1.436   2.229   1.468  1.8060 -1.5584 -1.1383
   99c3c     C7 1367   1.428   2.434   1.534 -1.0357 -0.1807 -0.4769
   99c3c    H14 1368   1.492   2.515   1.568  0.2645 -1.2721 -0.2941
   99c3c    H15 1369   1.351   2.422   1.610 -2.5367 -1.0132 -2.0758
   99c3c     C8 1370   1.348   2.470   1.406 -0.5436  0.4580  0.0503
   99c3c    H16 1371   1.269   2.545   1.420 -0.6864  0.3350 -0.0900
   99c3c    H17 1372   1.285   2.388   1.371 -0.2404 -0.3740  1.3954
   99c3c    H18 1373   1.416   2.505   1.329 -1.9717  1.5744 -0.7491
  100c3c      N 1374   0.672   0.031   0.302 -0.2924  0.0413  0.4738
  100c3c     C1 1375   0.646  -0.041   0.427 -0.3991 -0.2690 -0.0671
  100c3c     C2 1376   0.817   0.059   0.310  0.2322  0.5569  0.0605
  100c3c     C3 1377   0.769  -0.132   0.457 -0.1771 -0.2512 -0.3736
  100c3c     C4 1378   0.881  -0.067   0.372  0.2261  0.5474  0.4726
  100c3c     C5 1379   0.635  -0.069   0.199 -0.4664  0.5486  0.8647
  100c3c     C6 1380   0.581   0.138   0.276  0.3566 -0.0666 -0.3422
  100c3c     H1 1381   0.557  -0.104   0.421 -0.7548  0.4189 -2.7187
  100c3c     H2 1382   0.642   0.023   0.515 -0.5473 -0.0558 -0.2285
  100c3c     H3 1383   0.861   0.058   0.210  0.6154 -0.4221  0.2341
  100c3c     H4 1384   0.846   0.136   0.382  1.0899  0.2779  0.0235
  100c3c     H5 1385   0.748  -0.234   0.426 -1.8167 -0.2014  0.5549
  100c3c     H6 1386   0.800  -0.147   0.561  2.1375  2.9051 -0.5109
  100c3c     H7 1387   0.910  -0.137   0.293 -0.6133  1.0865 -0.3232
  100c3c     H8 1388   0.966  -0.047   0.436  0.0119  0.4952  0.7753
  100c3c     H9 1389   0.528  -0.086   0.189 -0.2514 -0.5185  0.3733
  100c3c    H10 1390   0.665  -0.033   0.100  0.7545 -0.0574  1.0064
  100c3c    H11 1391   0.681  -0.167   0.212  0.5257  0.9170  0.1197
  100c3c    H12 1392   0.610   0.171   0.176 -1.0780  0.2662 -0.6543
  100c3c    H13 1393   0.482   0.094   0.274  0.4947 -0.5434  1.9015
  100c3c     C7 1394   0.586   0.257   0.382  0.0285  0.0786  0.3168
  100c3c    H14 1395   0.688   0.294   0.395 -0.7270  2.2484  0.2909
  100c3c    H15 1396   0.547   0.210   0.472  0.1759  1.3707  1.0608
  100c3c     C8 1397   0.499   0.371   0.336  0.0642  0.2400  0.1391
  100c3c    H16 1398   0.488   0.435   0.423  4.3576  0.5076  0.5791
  100c3c    H17 1399   0.401   0.337   0.302  0.5936 -0.7118 -0.4748
  100c3c    H18 1400   0.558   0.420   0.258  0.0787  0.7397  0.4665
  101fsi     F1 1401   1.676   2.595   1.330 -0.4266  0.1309  0.0043
  101fsi     S1 1402   1.819   2.547   1.379  0.1478  0.2113 -0.0192
  101fsi      N 1403   1.821   2.576   1.533 -0.1460  0.0098 -0.1699
  101fsi     O1 1404   1.822   2.405   1.349 -0.1391  0.2820 -0.1133
  101fsi     O2 1405   1.912   2.638   1.309  0.2738 -0.1796 -0.3932
  101fsi     S2 1406   1.891   2.692   1.616  0.2936  0.0355 -0.1261
  101fsi     O3 1407   2.022   2.725   1.576  0.4269 -0.1344  0.3237
  101fsi     O4 1408   1.873   2.685   1.761 -0.2402  0.1144 -0.0358
  101fsi     F2 1409   1.810   2.821   1.579  0.0541 -0.3633  0.2338
  102fsi     F1 1410   1.246   2.915   2.225 -0.1644 -1.0930 -0.1942
  102fsi     S1 1411   1.117   2.988   2.272  0.3870  0.0869  0.3405
  102fsi      N 1412   1.168   3.130   2.318 -0.0402  0.1418 -0.2416
  102fsi     O1 1413   1.046   3.007   2.149 -0.0984 -0.3901  0.2239
  102fsi     O2 1414   1.061   2.903   2.379  0.2831 -0.0022  0.5250
  102fsi     S2 1415   1.197   3.184   2.465  0.1932  0.5718 -0.2123
  102fsi     O3 1416   1.310   3.271   2.469  0.2738  0.3458 -0.7092
  102fsi     O4 1417   1.184   3.083   2.565 -0.6591 -0.0074 -0.1638
  102fsi     F2 1418   1.069   3.280   2.486 -0.5800  0.0497  0.3220
  103fsi     F1 1419   1.078   1.388   1.465  0.0554  0.7800 -0.2036
  103fsi     S1 1420   0.958   1.480   1.505 -0.0107  0.2057 -0.0211
  103fsi      N 1421   0.846   1.377   1.480  0.0512 -0.3037 -0.2858
  103fsi     O1 1422   0.978   1.514   1.646  0.4096  0.8520  0.1946
  103fsi     O2 1423   0.952   1.589   1.409 -0.6281  0.5603 -0.3902
  103fsi     S2 1424   0.741   1.315   1.584  0.4147 -0.0278 -0.1000
  103fsi     O3 1425   0.742   1.366   1.719  0.2590 -0.0947  0.2233
  103fsi     O4 1426   0.726   1.174   1.565 -0.5302 -0.5339 -0.0516
  103fsi     F2 1427   0.614   1.369   1.521  0.0924  0.2350 -0.1497
  104fsi     F1 1428   0.302   2.043   0.116 -0.2380  0.4930  0.0866
  104fsi     S1 1429   0.196   1.964   0.191  0.5033 -0.4083  0.1056
  104fsi      N 1430   0.112   2.071   0.268 -0.5751  0.2868 -0.0476
  104fsi     O1 1431   0.118   1.903   0.089  0.7307 -0.1252 -0.0635
  104fsi     O2 1432   0.258   1.868   0.281 -0.1858  0.2265  0.4003
  104fsi     S2 1433   0.152   2.152   0.395  0.2199 -0.0333 -0.3590
  104fsi     O3 1434   0.109   2.288   0.386 -0.2785  0.2765  0.1208
  104fsi     O4 1435   0.289   2.131   0.431  0.3528  0.3663 -0.0378
  104fsi     F2 1436   0.064   2.091   0.509 -0.7606  0.4253  0.0251
  105fsi     F1 1437   0.120   1.989   2.804 -0.2035  0.6020  0.6947
  105fsi     S1 1438  -0.038   1.941   2.780 -0.5923 -0.0331  0.1094
  105fsi      N 1439  -0.036   1.786   2.757 -0.4963 -0.7390  0.5306
  105fsi     O1 1440  -0.113   1.981   2.894  0.4595  0.4095  0.3756
  105fsi     O2 1441  -0.073   2.007   2.659 -0.0199 -0.7078  0.3467
  105fsi     S2 1442  -0.058   1.662   2.857 -0.3889  0.2314 -0.0265
  105fsi     O3 1443  -0.175   1.674   2.940 -0.1517 -0.8048 -0.0521
  105fsi     O4 1444   0.059   1.612   2.918 -0.2078  0.3255 -0.1729
  105fsi     F2 1445  -0.101   1.540   2.762  0.0885  0.5189  0.0746
  106fsi     F1 1446   0.213   1.553   0.811  0.1799 -0.4050 -0.9960
  106fsi     S1 1447   0.212   1.713   0.803  0.1530 -0.3735 -0.0749
  106fsi      N 1448   0.368   1.739   0.800  0.5924 -0.0049 -1.0450
  106fsi     O1 1449   0.131   1.751   0.689 -0.6192 -0.5806 -0.4867
  106fsi     O2 1450   0.162   1.760   0.933 -0.4022 -0.2657  0.3534
  106fsi     S2 1451   0.462   1.757   0.674 -0.2275  0.0343 -0.1197
  106fsi     O3 1452   0.420   1.693   0.552 -0.7599 -0.2360  0.8645
  106fsi     O4 1453   0.599   1.770   0.698  0.0816 -0.6504  0.0306
  106fsi     F2 1454   0.431   1.907   0.648 -0.3510 -0.7409  0.1175
  107fsi     F1 1455   1.355   0.120   0.563 -0.5182  0.1501  0.2257
  107fsi     S1 1456   1.218   0.148   0.634  0.0716 -0.6714  0.4473
  107fsi      N 1457   1.267   0.219   0.766 -0.2111 -0.3675  0.1182
  107fsi     O1 1458   1.158   0.237   0.539 -0.4374  0.4350 -0.3481
  107fsi     O2 1459   1.154   0.020   0.654 -0.0515 -0.1194 -0.1538
  107fsi     S2 1460   1.288   0.161   0.911  0.0325  0.2863 -0.3736
  107fsi     O3 1461   1.402   0.222   0.972  1.0109  0.0314  0.3378
  107fsi     O4 1462   1.269   0.022   0.913 -0.6570  0.3761  0.4180
  107fsi     F2 1463   1.174   0.206   1.000 -0.3111 -0.0548 -0.2410
  108fsi     F1 1464   1.073   2.120   0.014  0.4185  0.2435 -0.2059
  108fsi     S1 1465   1.195   2.092   0.110 -0.1201 -0.1050  0.2655
  108fsi      N 1466   1.302   2.186   0.053 -0.0064 -0.1250  0.0733
  108fsi     O1 1467   1.151   2.133   0.242 -0.5353  0.1229  0.4132
  108fsi     O2 1468   1.238   1.954   0.094  0.2168 -0.4216 -0.1438
  108fsi     S2 1469   1.302   2.346   0.079 -0.3594 -0.0442  0.4309
  108fsi     O3 1470   1.181   2.399   0.135 -0.0800 -0.0037 -0.0598
  108fsi     O4 1471   1.360   2.420  -0.032 -0.1053  0.1982 -0.1036
  108fsi     F2 1472   1.413   2.365   0.187 -0.3522 -0.4469 -0.1982
  109fsi     F1 1473   2.281   0.426   1.903  0.3200 -0.6558 -0.2847
  109fsi     S1 1474   2.375   0.512   1.815 -0.0628  0.6980  0.1825
  109fsi      N 1475   2.277   0.624   1.761 -0.4306  0.0912 -0.2193
  109fsi     O1 1476   2.480   0.558   1.904 -0.4822 -0.5911  0.1498
  109fsi     O2 1477   2.418   0.423   1.708  0.0539 -0.3798 -0.3252
  109fsi     S2 1478   2.183   0.623   1.632  0.1087 -0.0301 -0.5653
  109fsi     O3 1479   2.221   0.532   1.531  0.3652  0.0981  0.3073
  109fsi     O4 1480   2.146   0.757   1.590 -0.0143 -0.2842  0.2255
  109fsi     F2 1481   2.051   0.555   1.687 -0.3768  0.2405  0.2738
  110fsi     F1 1482   2.822   2.307   1.518 -0.1695  0.0128 -0.2057
  110fsi     S1 1483   2.787   2.428   1.604  0.2973 -0.0855  0.3150
  110fsi      N 1484   2.727   2.354   1.732 -0.1167 -0.4219  0.2011
  110fsi     O1 1485   2.912   2.492   1.634 -0.3366 -0.2071  0.0799
  110fsi     O2 1486   2.690   2.502   1.532  0.4904 -0.0860 -0.1363
  110fsi     S2 1487   2.625   2.240   1.737 -0.2668 -0.3313 -0.1561
  110fsi     O3 1488   2.560   2.218   1.611 -0.3490  0.0039  0.1903
  110fsi     O4 1489   2.539   2.238   1.853  0.4054 -0.0339 -0.3500
  110fsi     F2 1490   2.716   2.106   1.769 -0.0229 -0.3568 -0.0087
  111fsi     F1 1491   0.848   0.186   0.626 -0.3061  0.4457  0.5484
  111fsi     S1 1492   0.819   0.147   0.774  0.0638 -0.2754 -0.1078
  111fsi      N 1493   0.665   0.110   0.769  0.4576 -0.2767  0.0710
  111fsi     O1 1494   0.902   0.035   0.807  0.6172 -0.1293 -0.0446
  111fsi     O2 1495   0.843   0.270   0.844  1.0636  0.3954 -0.1992
  111fsi     S2 1496   0.540   0.206   0.786  0.3419 -0.1130 -0.2393
  111fsi     O3 1497   0.422   0.142   0.744 -0.3490  0.1153 -0.0504
  111fsi     O4 1498   0.560   0.339   0.743 -0.1048 -0.4747  0.1509
  111fsi     F2 1499   0.524   0.216   0.934  0.2269 -0.2485 -0.1027
  112fsi     F1 1500   2.589   1.532   0.198 -0.3746 -0.4235 -0.1866
  112fsi     S1 1501   2.525   1.435   0.303 -0.1714 -0.2498  0.0369
  112fsi      N 1502   2.630   1.318   0.313 -0.3056 -0.0450 -0.1382
  112fsi     O1 1503   2.515   1.512   0.425 -0.2886 -0.1633  0.2740
  112fsi     O2 1504   2.404   1.408   0.230  0.9893 -0.4360 -0.5776
  112fsi     S2 1505   2.659   1.194   0.230  0.3613  0.0895  0.2284
  112fsi     O3 1506   2.569   1.189   0.118  0.8840  0.0559  0.3715
  112fsi     O4 1507   2.679   1.082   0.315  0.1912  0.1660 -0.1601
  112fsi     F2 1508   2.804   1.215   0.174  0.1898 -0.4599  0.2019
  113fsi     F1 1509   2.285   2.880   2.711  0.2786 -0.0232 -0.4254
  113fsi     S1 1510   2.344   2.735   2.731 -0.7388 -0.2844 -0.3615
  113fsi      N 1511   2.482   2.758   2.801 -0.1085 -1.0379  0.8250
  113fsi     O1 1512   2.244   2.672   2.810 -0.3417  0.0291 -0.4501
  113fsi     O2 1513   2.365   2.690   2.596 -0.0350  0.5888  0.1458
  113fsi     S2 1514   2.502   2.802   2.949  0.1698 -0.0069  0.2047
  113fsi     O3 1515   2.593   2.714   3.019  0.4138 -0.0408 -0.6174
  113fsi     O4 1516   2.381   2.829   3.023 -0.3020  0.3123 -0.3174
  113fsi     F2 1517   2.571   2.945   2.947 -0.4616  0.3695  0.3545
  114fsi     F1 1518   1.860   1.064   0.210  0.1492  0.0074  0.0226
  114fsi     S1 1519   1.934   0.954   0.291  0.3966 -0.0102  0.4521
  114fsi      N 1520   2.084   0.957   0.248 -0.0445 -0.3698 -0.5975
  114fsi     O1 1521   1.914   0.990   0.429  0.1387 -0.7126  0.8420
  114fsi     O2 1522   1.873   0.831   0.238 -1.0231  0.2281  0.3237
  114fsi     S2 1523   2.205   1.013   0.331 -0.5297  0.0669  0.6038
  114fsi     O3 1524   2.326   1.016   0.249 -0.2803  0.2720  0.6569
  114fsi     O4 1525   2.213   0.944   0.457  0.4192  0.1294 -0.0991
  114fsi     F2 1526   2.180   1.164   0.353  0.1250  0.3056 -0.0301
  115fsi     F1 1527   1.701   0.078   0.325 -0.1521  0.0972  0.0583
  115fsi     S1 1528   1.804  -0.031   0.387  0.1584 -0.0605  0.5144
  115fsi      N 1529   1.938   0.013   0.323  0.0551 -0.4090 -1.3084
  115fsi     O1 1530   1.801  -0.025   0.528 -0.4076 -0.0028 -0.1869
  115fsi     O2 1531   1.768  -0.150   0.318  0.2270  0.1717  0.2684
  115fsi     S2 1532   2.039   0.126   0.356 -0.3618 -0.0232 -0.2618
  115fsi     O3 1533   2.171   0.085   0.323 -0.0616  0.3856 -0.0339
  115fsi     O4 1534   2.028   0.184   0.488  0.4112 -0.2756  0.3168
  115fsi     F2 1535   2.015   0.254   0.256  0.0905  0.5604 -0.3425
  116fsi     F1 1536   2.586   1.544   1.906  0.3657  0.1225  0.1807
  116fsi     S1 1537   2.728   1.535   1.969  0.0367 -0.0072 -0.2657
  116fsi      N 1538   2.751   1.672   2.040 -0.3805 -0.5289 -0.2880
  116fsi     O1 1539   2.711   1.438   2.072  0.5750 -0.1652  0.5520
  116fsi     O2 1540   2.812   1.498   1.853  0.1639 -0.2938 -0.0152
  116fsi     S2 1541   2.866   1.775   2.004 -0.5212  0.0633  0.0310
  116fsi     O3 1542   2.986   1.717   1.942 -0.0576  0.1810  0.0678
  116fsi     O4 1543   2.880   1.876   2.104  0.0063 -0.2481 -0.7048
  116fsi     F2 1544   2.799   1.860   1.888  0.4263 -0.5629 -0.0429
  117fsi     F1 1545   2.421   2.816   2.016  0.4885  0.9364 -0.1430
  117fsi     S1 1546   2.363   2.945   1.960  0.4500 -0.2916 -0.5672
  117fsi      N 1547   2.475   3.002   1.860 -0.0865  0.4408 -0.2844
  117fsi     O1 1548   2.242   2.900   1.896 -0.2056  0.1817  0.0573
  117fsi     O2 1549   2.350   3.023   2.084 -1.2905  0.3792  0.6229
  117fsi     S2 1550   2.476   2.999   1.709  0.2351  0.1938  0.1535
  117fsi     O3 1551   2.353   3.041   1.643 -0.3898  0.3451  0.5008
  117fsi     O4 1552   2.545   2.885   1.658  0.0350 -0.4839  0.8768
  117fsi     F2 1553   2.569   3.115   1.671  0.3303  0.7091 -0.5014
  118fsi     F1 1554   1.681   0.090   1.736 -0.1237  0.2509  0.4315
  118fsi     S1 1555   1.625  -0.015   1.850  0.3759 -0.0382  0.0897
  118fsi      N 1556   1.498   0.068   1.891 -0.2760  0.4418  0.4145
  118fsi     O1 1557   1.591  -0.129   1.770 -0.5659 -0.1371  0.2606
  118fsi     O2 1558   1.718  -0.044   1.954 -0.2405 -0.1592  0.6541
  118fsi     S2 1559   1.497   0.207   1.956  0.1763  0.1832 -0.3154
  118fsi     O3 1560   1.626   0.266   1.988  0.0853 -0.0640  0.0882
  118fsi     O4 1561   1.393   0.208   2.055  0.0582 -0.3883  0.1128
  118fsi     F2 1562   1.450   0.301   1.841 -0.7484  0.6876 -0.3257
  119fsi     F1 1563   2.039   2.891   2.839 -0.6961  0.0004  0.1041
  119fsi     S1 1564   2.030   2.974   2.978  0.1671 -0.4511 -0.0959
  119fsi      N 1565   1.923   3.088   2.950 -0.5916  0.2366  0.0553
  119fsi     O1 1566   1.987   2.873   3.066  0.6028 -0.3548 -0.0489
  119fsi     O2 1567   2.166   3.018   3.002  0.1735 -0.3775  0.2409
  119fsi     S2 1568   1.773   3.105   2.975  0.1303  0.2851  0.0206
  119fsi     O3 1569   1.710   3.005   3.056 -0.1169  0.5472 -0.0234
  119fsi     O4 1570   1.715   3.159   2.853 -0.0192  0.0429 -0.5227
  119fsi     F2 1571   1.774   3.229   3.070 -0.3612 -0.0620 -0.1153
  120fsi     F1 1572   2.707   2.314   0.020 -0.2701  0.0084  0.3761
  120fsi     S1 1573   2.551   2.305  -0.012 -0.2954 -0.1206  0.1560
  120fsi      N 1574   2.545   2.397  -0.137  0.4349 -0.5914  0.5344
  120fsi     O1 1575   2.531   2.162  -0.040 -0.0069 -0.4304  0.2377
  120fsi     O2 1576   2.490   2.358   0.109  0.4273  0.5317  0.7501
  120fsi     S2 1577   2.594   2.366  -0.286 -0.2755 -0.2804  0.3303
  120fsi     O3 1578   2.714   2.279  -0.289  0.2866 -0.3949  0.0152
  120fsi     O4 1579   2.594   2.485  -0.369 -0.0164  0.6300  0.3979
  120fsi     F2 1580   2.481   2.278  -0.347  0.3172 -0.4218 -0.4162
  121fsi     F1 1581   2.382   0.484   0.212  0.1114  0.0636  0.2445
  121fsi     S1 1582   2.416   0.591   0.330 -0.4356  0.1268 -0.3171
  121fsi      N 1583   2.297   0.560   0.429 -0.3299 -0.0300  0.3978
  121fsi     O1 1584   2.539   0.549   0.387 -0.0084 -0.0677  0.4110
  121fsi     O2 1585   2.418   0.721   0.269  0.6597  0.4966  0.1755
  121fsi     S2 1586   2.148   0.599   0.420  0.5853  0.1027  0.2783
  121fsi     O3 1587   2.095   0.647   0.293  0.3864  0.1395 -0.2709
  121fsi     O4 1588   2.101   0.676   0.534  0.6158 -0.2520  0.3105
  121fsi     F2 1589   2.068   0.468   0.444  0.1921  0.4181  0.5568
  122fsi     F1 1590   2.533   0.034   2.653  0.0956  0.0498  0.3230
  122fsi     S1 1591   2.553   0.040   2.499  0.2214 -0.0967 -0.0861
  122fsi      N 1592   2.663   0.160   2.484 -0.4180 -0.3618 -0.3758
  122fsi     O1 1593   2.592  -0.091   2.454 -0.1126 -0.3364 -0.0521
  122fsi     O2 1594   2.422   0.083   2.459 -0.5422  0.5237 -0.0092
  122fsi     S2 1595   2.823   0.163   2.450  0.1028 -0.1969 -0.0369
  122fsi     O3 1596   2.855   0.271   2.360 -0.0126  0.3188  0.0356
  122fsi     O4 1597   2.881   0.037   2.411  0.1867  0.1176  0.6031
  122fsi     F2 1598   2.895   0.213   2.584 -0.3496  0.2088  0.1058
  123fsi     F1 1599   0.785   1.096   0.484  0.3638 -0.0448 -0.1702
  123fsi     S1 1600   0.877   1.151   0.370  0.4777 -0.1819  0.1126
  123fsi      N 1601   0.782   1.132   0.243 -0.2205 -0.4482 -0.1294
  123fsi     O1 1602   0.905   1.283   0.413  0.1569  0.0530 -0.3389
  123fsi     O2 1603   0.985   1.060   0.369 -0.1530  0.0019  0.2328
  123fsi     S2 1604   0.669   1.224   0.194  0.4356 -0.1098 -0.1131
  123fsi     O3 1605   0.653   1.228   0.053  0.1193 -0.2145  0.3654
  123fsi     O4 1606   0.656   1.348   0.261  0.2247  0.0100  0.2166
  123fsi     F2 1607   0.531   1.160   0.242 -0.3591  0.0741  0.3404
  124fsi     F1 1608   0.089   0.799   2.380  0.0309  0.0140 -0.2572
  124fsi     S1 1609   0.072   0.681   2.484  0.2710  0.0103 -0.0091
  124fsi      N 1610  -0.073   0.703   2.531  0.1792 -0.2864 -0.4701
  124fsi     O1 1611   0.106   0.564   2.410  0.1954  0.4858 -0.1012
  124fsi     O2 1612   0.171   0.712   2.583 -0.1273  0.2405 -0.1771
  124fsi     S2 1613  -0.209   0.639   2.481  0.4959  0.2392 -0.5870
  124fsi     O3 1614  -0.210   0.589   2.345 -0.1386 -0.1038  0.1006
  124fsi     O4 1615  -0.326   0.714   2.529  0.7640 -0.1759  0.3585
  124fsi     F2 1616  -0.216   0.504   2.566 -0.1099  0.0898 -0.6556
  125fsi     F1 1617   2.805   1.780   0.881 -0.4017  0.6753 -0.1475
  125fsi     S1 1618   2.695   1.868   0.807  0.1496  0.1195 -0.0517
  125fsi      N 1619   2.580   1.843   0.907  0.0177  0.8753  0.1776
  125fsi     O1 1620   2.748   2.005   0.819 -0.5879  0.2237  0.1484
  125fsi     O2 1621   2.685   1.810   0.675 -0.1359  0.0402  0.4649
  125fsi     S2 1622   2.448   1.760   0.889  0.0176  0.1193 -0.1699
  125fsi     O3 1623   2.439   1.681   0.770 -0.3883  0.0304 -0.2992
  125fsi     O4 1624   2.332   1.842   0.921  0.1537  0.4706 -0.1818
  125fsi     F2 1625   2.463   1.656   1.005 -0.5281 -0.2641  0.7867
  126fsi     F1 1626   0.539   0.721   0.184 -0.3837  0.2732  0.2196
  126fsi     S1 1627   0.517   0.671   0.033  0.1620  0.0326 -0.2838
  126fsi      N 1628   0.572   0.794  -0.055  0.0777  0.1551  0.0092
  126fsi     O1 1629   0.609   0.558   0.030 -0.1975  0.1459 -0.7049
  126fsi     O2 1630   0.375   0.643   0.021 -0.1541 -0.0242 -0.4256
  126fsi     S2 1631   0.493   0.908  -0.127  0.2800  0.1735 -0.2064
  126fsi     O3 1632   0.370   0.868  -0.183  0.1667  0.0714  0.1396
  126fsi     O4 1633   0.586   0.985  -0.210  0.5110  0.3374  0.0879
  126fsi     F2 1634   0.458   1.016  -0.009  0.4178 -0.3103  0.4049
  127fsi     F1 1635   1.815   1.199   1.632 -0.1910  0.0411 -0.3401
  127fsi     S1 1636   1.932   1.213   1.533 -0.3317  0.1831  0.7425
  127fsi      N 1637   1.885   1.111   1.416  0.0440 -0.1440  0.4488
  127fsi     O1 1638   1.932   1.352   1.496  0.1578  0.1426  0.7382
  127fsi     O2 1639   2.050   1.170   1.603  0.1394  0.0924  0.1170
  127fsi     S2 1640   1.952   0.972   1.374  0.0152 -0.1543  0.0765
  127fsi     O3 1641   2.091   0.965   1.403  0.4682 -0.1085 -0.0938
  127fsi     O4 1642   1.897   0.932   1.248  0.2087 -0.0080 -0.1888
  127fsi     F2 1643   1.889   0.872   1.468 -0.2382 -0.1634 -0.0660
  128fsi     F1 1644   1.020   0.362   1.705  0.1250  0.7015  0.1663
  128fsi     S1 1645   1.005   0.222   1.769 -0.1210  0.0425  0.3292
  128fsi      N 1646   0.858   0.218   1.826 -0.5138 -0.0847 -0.2664
  128fsi     O1 1647   1.019   0.141   1.651  0.3353  0.3170 -0.1517
  128fsi     O2 1648   1.108   0.221   1.867 -0.0034  0.4732 -0.0209
  128fsi     S2 1649   0.764   0.098   1.844 -0.5294 -0.2192 -0.4547
  128fsi     O3 1650   0.801  -0.013   1.757  0.1359  0.2028  0.0485
  128fsi     O4 1651   0.623   0.133   1.859 -0.2486  0.3183  0.5218
  128fsi     F2 1652   0.799   0.048   1.993  0.5632  0.2530 -0.4933
  129fsi     F1 1653   0.721   1.223   2.641  0.0016  0.1159 -0.0153
  129fsi     S1 1654   0.619   1.339   2.638  0.5353  0.4093 -0.2284
  129fsi      N 1655   0.716   1.461   2.642  0.1675  0.2261 -0.3871
  129fsi     O1 1656   0.550   1.314   2.517 -0.3377  0.5240 -0.0533
  129fsi     O2 1657   0.543   1.320   2.756  0.1141 -0.0351  0.2150
  129fsi     S2 1658   0.807   1.510   2.522 -0.2097 -0.1791  0.1103
  129fsi     O3 1659   0.865   1.636   2.557 -1.2659  0.5421  0.2867
  129fsi     O4 1660   0.755   1.500   2.387 -0.3847  0.2108  0.3658
  129fsi     F2 1661   0.931   1.411   2.522  0.3738  0.3509 -0.1457
  130fsi     F1 1662   0.485   2.663   0.382  0.2876  0.3229  0.6609
  130fsi     S1 1663   0.375   2.613   0.475 -0.0449  0.0075 -0.1903
  130fsi      N 1664   0.252   2.677   0.401  0.8154 -0.2955  0.4016
  130fsi     O1 1665   0.389   2.475   0.471  0.2292 -0.1761 -0.8316
  130fsi     O2 1666   0.417   2.673   0.601  0.2713 -0.6903  0.4202
  130fsi     S2 1667   0.209   2.827   0.402  0.4656 -0.0775  0.3258
  130fsi     O3 1668   0.298   2.921   0.472  0.3276 -0.1569  0.4576
  130fsi     O4 1669   0.068   2.846   0.412  0.7955  0.2575 -0.6747
  130fsi     F2 1670   0.236   2.871   0.255  0.0963 -0.3486  0.1334
  131fsi     F1 1671   0.438   2.381   1.608  0.7141  0.2033  0.2696
  131fsi     S1 1672   0.384   2.528   1.629 -0.3978 -0.0455  0.0621
  131fsi      N 1673   0.406   2.592   1.486  0.0242  0.5144 -0.6743
  131fsi     O1 1674   0.245   2.516   1.664  0.3644 -0.8027  0.5641
  131fsi     O2 1675   0.470   2.582   1.729  0.2147 -0.3990  0.2300
  131fsi     S2 1676   0.540   2.629   1.413  0.3429  0.2762 -0.0291
  131fsi     O3 1677   0.533   2.627   1.270 -0.5480  0.3926 -0.0854
  131fsi     O4 1678   0.657   2.568   1.471 -0.1745  0.2250  0.2496
  131fsi     F2 1679   0.565   2.780   1.434 -0.2118 -0.0826 -0.1641
  132fsi     F1 1680   1.100   0.886   2.448 -0.2094 -0.0969  0.5460
  132fsi     S1 1681   1.099   1.032   2.390  0.1134 -0.5169  0.2864
  132fsi      N 1682   1.159   1.105   2.514 -0.2895 -0.1607 -0.6569
  132fsi     O1 1683   1.195   1.014   2.277 -0.6357  0.0515  0.1144
  132fsi     O2 1684   0.964   1.062   2.352  0.3340 -0.0539 -0.5645
  132fsi     S2 1685   1.266   1.225   2.510  0.0367 -0.0252  0.1691
  132fsi     O3 1686   1.268   1.300   2.630  0.3868 -0.0690  0.3287
  132fsi     O4 1687   1.272   1.300   2.389  0.0025 -0.5824  0.1327
  132fsi     F2 1688   1.406   1.149   2.520 -0.0393 -0.3106  0.1107
  133fsi     F1 1689   1.481   2.526   1.883 -0.3895  0.2364  0.1146
  133fsi     S1 1690   1.503   2.542   2.047 -0.0571  0.3489  0.0133
  133fsi      N 1691   1.640   2.471   2.075 -0.9811  0.3330 -0.0244
  133fsi     O1 1692   1.515   2.685   2.057  0.1841 -0.1351 -0.2068
  133fsi     O2 1693   1.388   2.478   2.109 -0.3473 -0.5002  0.6113
  133fsi     S2 1694   1.776   2.528   2.135 -0.0160 -0.1477 -0.3249
  133fsi     O3 1695   1.814   2.658   2.100  0.0914  0.1327 -0.5655
  133fsi     O4 1696   1.881   2.425   2.125 -0.4081 -0.1610 -0.2276
  133fsi     F2 1697   1.758   2.528   2.288  0.1828 -0.4556 -0.5732
  134fsi     F1 1698   1.918   0.232   1.425 -0.3395  0.0248 -0.0238
  134fsi     S1 1699   2.040   0.157   1.360 -0.1487  0.1507 -0.1452
  134fsi      N 1700   1.999   0.161   1.204  0.5636  0.2714  0.1465
  134fsi     O1 1701   2.154   0.236   1.400  0.0243 -0.1166  0.2332
  134fsi     O2 1702   2.039   0.036   1.428 -0.0779 -0.5768  0.3924
  134fsi     S2 1703   1.904   0.073   1.126 -0.3147 -0.3248  0.5619
  134fsi     O3 1704   1.867  -0.044   1.206 -0.0426 -0.0503  0.1875
  134fsi     O4 1705   1.937   0.062   0.986  0.2176 -0.2621 -0.5409
  134fsi     F2 1706   1.773   0.160   1.127 -0.7448  0.0601  0.0769
  135fsi     F1 1707   1.262   0.901   1.208 -0.0265  0.1552 -0.1473
  135fsi     S1 1708   1.296   0.796   1.097 -0.0909  0.3987  0.2726
  135fsi      N 1709   1.399   0.701   1.167  0.6187 -0.3796 -0.0279
  135fsi     O1 1710   1.168   0.736   1.074  0.3671  0.2537 -0.1348
  135fsi     O2 1711   1.347   0.869   0.981 -0.0666 -0.4442  0.9269
  135fsi     S2 1712   1.556   0.701   1.153  0.0598 -0.4969 -0.0690
  135fsi     O3 1713   1.614   0.640   1.268  0.3170  0.3639  0.1273
  135fsi     O4 1714   1.618   0.826   1.114  0.4683  0.2785  0.1007
  135fsi     F2 1715   1.586   0.599   1.030 -1.0647  0.2382 -0.7261
  136fsi     F1 1716   1.024   1.271   1.213 -0.2707 -0.1160  0.4843
  136fsi     S1 1717   0.879   1.217   1.172 -0.1382  0.0200 -0.9391
  136fsi      N 1718   0.904   1.174   1.023 -0.8670  0.3851 -0.6926
  136fsi     O1 1719   0.858   1.106   1.267 -0.2922 -0.2982 -0.0472
  136fsi     O2 1720   0.799   1.336   1.182 -0.1662  0.0795  0.1084
  136fsi     S2 1721   0.929   1.032   0.954 -0.1682  0.0197  0.3736
  136fsi     O3 1722   0.854   1.011   0.831  0.1403  0.4399  0.1533
  136fsi     O4 1723   0.939   0.921   1.046  0.0330 -0.4220  0.1534
  136fsi     F2 1724   1.080   1.055   0.908 -0.1507  0.3587  0.5234
  137fsi     F1 1725   2.988   2.562   2.306  0.0121  0.1133  0.0252
  137fsi     S1 1726   2.861   2.492   2.371  0.1340  0.0626 -0.1056
  137fsi      N 1727   2.828   2.387   2.261 -0.3277  0.2018 -0.1684
  137fsi     O1 1728   2.917   2.434   2.488 -0.5871 -0.7027  0.4119
  137fsi     O2 1729   2.772   2.598   2.403  0.2921 -0.1742  0.4115
  137fsi     S2 1730   2.793   2.235   2.272  0.1252  0.0440  0.1069
  137fsi     O3 1731   2.825   2.172   2.396 -0.6296 -0.2478 -0.4221
  137fsi     O4 1732   2.831   2.165   2.150  0.3179  0.3609  0.2247
  137fsi     F2 1733   2.639   2.240   2.271 -0.0936 -0.2271  0.5261
  138fsi     F1 1734   2.948   2.410   2.947  0.2801  0.4180 -0.2198
  138fsi     S1 1735   3.071   2.321   2.921  0.2542  0.0798 -0.3698
  138fsi      N 1736   3.197   2.418   2.927  0.3711  0.4835  0.2045
  138fsi     O1 1737   3.067   2.225   3.025 -0.3567 -0.3053 -0.6060
  138fsi     O2 1738   3.047   2.270   2.789 -0.1098 -0.0054 -1.1181
  138fsi     S2 1739   3.279   2.471   3.049  0.0209  0.0063  0.2266
  138fsi     O3 1740   3.191   2.509   3.157  0.1098  0.0713  0.0318
  138fsi     O4 1741   3.385   2.561   3.002 -0.0306  0.3252  0.1862
  138fsi     F2 1742   3.351   2.342   3.106 -0.2045 -0.0982 -0.5485
  139fsi     F1 1743   0.537   2.224   2.677  0.0686 -0.0274 -0.4220
  139fsi     S1 1744   0.408   2.143   2.719 -0.0619 -0.1034  0.2082
  139fsi      N 1745   0.292   2.196   2.621  0.7652 -0.1155  0.3420
  139fsi     O1 1746   0.446   2.006   2.701 -0.1497 -0.0555  0.3996
  139fsi     O2 1747   0.388   2.188   2.854 -0.0984  0.0041 -0.6558
  139fsi     S2 1748   0.260   2.150   2.475  0.2048 -0.4823  0.3580
  139fsi     O3 1749   0.122   2.167   2.447  0.4504  0.0992 -0.0238
  139fsi     O4 1750   0.318   2.020   2.440  0.1952 -0.7992 -0.5552
  139fsi     F2 1751   0.335   2.260   2.388  0.2187  0.2630  0.4152
  140fsi     F1 1752   1.092   2.364   2.736  0.0157  0.3792  0.0279
  140fsi     S1 1753   1.173   2.385   2.605 -0.2278  0.2484  0.2799
  140fsi      N 1754   1.084   2.485   2.527  0.2486  0.4691 -0.8218
  140fsi     O1 1755   1.305   2.432   2.647 -0.2016  0.0040  0.7298
  140fsi     O2 1756   1.174   2.256   2.551 -0.3144  0.2084  0.3789
  140fsi     S2 1757   1.084   2.527   2.376  0.1704  0.1613 -0.2491
  140fsi     O3 1758   0.951   2.566   2.339 -0.4683 -0.1242 -0.3685
  140fsi     O4 1759   1.153   2.440   2.287  0.2309 -0.2572  0.4275
  140fsi     F2 1760   1.180   2.653   2.368  0.6502 -0.0899 -0.6034
  141fsi     F1 1761   1.898   0.745   2.855  0.2978  0.2728 -0.1051
  141fsi     S1 1762   1.882   0.596   2.903  0.4341  0.4218  0.1946
  141fsi      N 1763   1.920   0.520   2.770  0.3074  0.2212  0.4773
  141fsi     O1 1764   1.974   0.587   3.013 -0.1194 -0.3619  0.4554
  141fsi     O2 1765   1.745   0.587   2.943  0.2322 -0.0524  0.2236
  141fsi     S2 1766   1.836   0.505   2.637  0.2495  0.3579  0.4094
  141fsi     O3 1767   1.906   0.483   2.514 -0.3926  0.3114  0.3989
  141fsi     O4 1768   1.729   0.599   2.627  0.2003  0.1807 -0.2628
  141fsi     F2 1769   1.760   0.372   2.657 -0.1138  0.5298  0.8916
  142fsi     F1 1770   1.927   0.267   1.797 -0.2228  0.0630  0.3405
  142fsi     S1 1771   2.049   0.170   1.820  0.1221 -0.0424  0.2536
  142fsi      N 1772   2.087   0.191   1.977  0.2518  0.1001  0.7186
  142fsi     O1 1773   1.992   0.039   1.791 -0.4415  0.1913 -0.5486
  142fsi     O2 1774   2.157   0.223   1.739 -0.1797  0.5315 -0.1668
  142fsi     S2 1775   2.035   0.125   2.107 -0.2332 -0.0148  0.1422
  142fsi     O3 1776   2.108   0.166   2.225 -0.0663 -0.5912  0.0039
  142fsi     O4 1777   2.012  -0.013   2.089 -0.3365 -0.0172 -0.0589
  142fsi     F2 1778   1.897   0.189   2.135 -0.0528 -0.0295 -0.1616
  143fsi     F1 1779   0.176   0.775   1.309 -0.3047  0.2656  0.0448
  143fsi     S1 1780   0.230   0.733   1.449 -0.1353  0.1350  0.0242
  143fsi      N 1781   0.358   0.821   1.444  0.1753 -0.2289 -0.6387
  143fsi     O1 1782   0.130   0.764   1.548  0.4424 -0.4513 -0.7005
  143fsi     O2 1783   0.265   0.596   1.435  0.7696 -0.5172 -0.4196
  143fsi     S2 1784   0.392   0.949   1.528  0.2137  0.0519 -0.0585
  143fsi     O3 1785   0.533   0.970   1.532  0.1952  0.0982  0.0995
  143fsi     O4 1786   0.324   0.971   1.655  0.5980  0.2410  0.0969
  143fsi     F2 1787   0.339   1.069   1.435 -0.3365  0.4418 -0.1114
  144fsi     F1 1788   0.025   1.031   1.343  0.9935 -0.4054  0.1225
  144fsi     S1 1789  -0.030   1.123   1.223 -0.4993 -0.1947 -0.3289
  144fsi      N 1790  -0.180   1.150   1.256  0.5090 -0.0720 -0.3647
  144fsi     O1 1791   0.064   1.233   1.217  0.0978 -0.0730 -0.2888
  144fsi     O2 1792  -0.018   1.035   1.116 -0.4129 -0.4085 -0.8848
  144fsi     S2 1793  -0.311   1.080   1.207  0.3819 -0.0403  0.0556
  144fsi     O3 1794  -0.401   1.045   1.310 -0.3342 -0.1098  0.4814
  144fsi     O4 1795  -0.305   0.986   1.096  0.5675  0.4889 -0.0339
  144fsi     F2 1796  -0.397   1.199   1.140  0.1756 -0.1591 -0.0292
  145fsi     F1 1797   0.936   0.467   2.007 -0.2036  0.2310 -0.4180
  145fsi     S1 1798   0.883   0.456   2.158  0.2027 -0.3451 -0.1946
  145fsi      N 1799   0.977   0.552   2.236 -0.1387  0.0377  0.4949
  145fsi     O1 1800   0.750   0.507   2.148  0.7122 -0.0268 -0.1002
  145fsi     O2 1801   0.914   0.317   2.186 -0.7074 -0.4451 -0.4463
  145fsi     S2 1802   1.132   0.546   2.256 -0.1109 -0.1650 -0.2342
  145fsi     O3 1803   1.191   0.674   2.212 -0.3544  0.4091  0.3148
  145fsi     O4 1804   1.195   0.426   2.213  0.3474  0.1570 -0.2153
  145fsi     F2 1805   1.143   0.544   2.413  0.5724 -0.3866 -0.3276
  146fsi     F1 1806   2.100   1.439   2.594 -0.1659 -0.2697  0.0443
  146fsi     S1 1807   2.229   1.537   2.600 -0.4933  0.0931  0.4936
  146fsi      N 1808   2.297   1.499   2.730  0.3891 -0.3526 -0.0565
  146fsi     O1 1809   2.306   1.498   2.483 -0.6093 -0.1415 -0.6457
  146fsi     O2 1810   2.177   1.668   2.598 -0.3212  0.2962 -0.4106
  146fsi     S2 1811   2.388   1.381   2.765 -0.5858 -0.1221  0.2902
  146fsi     O3 1812   2.393   1.275   2.674  0.2287 -0.4923  0.0196
  146fsi     O4 1813   2.391   1.353   2.909 -0.4081  0.3467 -0.0927
  146fsi     F2 1814   2.530   1.444   2.750 -0.5479  0.0907  0.3844
  147fsi     F1 1815   0.068   2.549   1.113  0.1820 -0.2088  0.5160
  147fsi     S1 1816   0.013   2.518   1.262 -0.4312 -0.3208 -0.4363
  147fsi      N 1817  -0.100   2.625   1.274 -0.4157  0.0212  0.0143
  147fsi     O1 1818  -0.032   2.388   1.243 -0.5266  0.2335  0.0302
  147fsi     O2 1819   0.122   2.535   1.354  0.2737  0.3375 -0.2023
  147fsi     S2 1820  -0.116   2.749   1.369  0.5677  0.2136  0.0561
  147fsi     O3 1821  -0.027   2.755   1.479 -0.7020 -0.0115  0.3127
  147fsi     O4 1822  -0.254   2.779   1.404  0.0438  0.4170  0.0676
  147fsi     F2 1823  -0.072   2.874   1.287 -0.1696  0.6094  0.0304
  148fsi     F1 1824   0.890   0.488   2.573 -0.2860 -0.1615 -0.2734
  148fsi     S1 1825   0.843   0.595   2.672 -0.3115  0.0894  0.2882
  148fsi      N 1826   0.700   0.629   2.618  0.4983  0.1382  0.1431
  148fsi     O1 1827   0.850   0.533   2.804 -0.3648 -0.1235 -0.0045
  148fsi     O2 1828   0.939   0.693   2.647 -0.8952 -0.2948 -0.1146
  148fsi     S2 1829   0.569   0.547   2.631 -0.0356 -0.0230  0.1795
  148fsi     O3 1830   0.452   0.628   2.651 -0.3278  0.1906  0.2933
  148fsi     O4 1831   0.583   0.430   2.710 -0.2675 -0.5600 -0.3154
  148fsi     F2 1832   0.550   0.495   2.490 -0.6749  0.2516 -0.5386
  149fsi     F1 1833   1.005   2.153   1.930  0.2510 -0.4661  0.6893
  149fsi     S1 1834   1.140   2.222   1.924  0.0092  0.2822  0.2693
  149fsi      N 1835   1.236   2.099   1.914  0.0004  0.0066  0.1633
  149fsi     O1 1836   1.139   2.289   1.798 -0.5717  0.2838 -0.0153
  149fsi     O2 1837   1.138   2.302   2.045  0.6966  0.2109  0.9074
  149fsi     S2 1838   1.282   2.000   2.029 -0.1109 -0.9920 -0.0656
  149fsi     O3 1839   1.269   2.059   2.162  0.6751 -0.1770  0.1607
  149fsi     O4 1840   1.407   1.936   1.993  0.0418 -0.2224  0.6718
  149fsi     F2 1841   1.177   1.881   2.031 -0.5808 -0.2388 -0.7081
  150fsi     F1 1842   0.983   1.156   2.063 -0.1005  0.6441 -0.1761
  150fsi     S1 1843   1.105   1.214   1.976 -0.5507  0.1552 -0.0606
  150fsi      N 1844   1.163   1.327   2.063  0.1164 -0.1264 -0.9428
  150fsi     O1 1845   1.183   1.096   1.964 -0.1751 -0.3052  0.0339
  150fsi     O2 1846   1.038   1.263   1.859  0.1360  0.3061  0.4233
  150fsi     S2 1847   1.114   1.481   2.073  0.0061 -0.1701  0.3653
  150fsi     O3 1848   1.058   1.538   1.954  0.0175 -0.6651 -0.0905
  150fsi     O4 1849   1.212   1.562   2.140 -0.7871 -0.2402  0.1042
  150fsi     F2 1850   0.994   1.464   2.181  0.0726 -0.4690 -0.3213
  151fsi     F1 1851   0.017   1.110   2.255  0.2548 -0.2496  1.1541
  151fsi     S1 1852   0.075   1.230   2.171  0.7205 -0.3301  0.2133
  151fsi      N 1853   0.085   1.352   2.274  0.6186 -0.5712 -0.0821
  151fsi     O1 1854   0.206   1.180   2.129  0.0508  0.6024  0.0433
  151fsi     O2 1855  -0.023   1.244   2.071 -0.0105  0.1674 -0.3107
  151fsi     S2 1856  -0.030   1.431   2.344 -0.3053  0.1748 -0.3325
  151fsi     O3 1857   0.006   1.497   2.472 -0.1184  0.0455 -0.3529
  151fsi     O4 1858  -0.156   1.366   2.349  0.6372  0.0256 -0.6045
  151fsi     F2 1859  -0.048   1.546   2.245 -0.1222  0.0693 -0.0238
  152fsi     F1 1860   0.938   0.924   1.843 -0.2471  0.1544  0.2652
  152fsi     S1 1861   0.960   0.802   1.939 -0.1935 -0.4816 -0.3615
  152fsi      N 1862   1.044   0.704   1.856  0.3747 -0.4032  0.5487
  152fsi     O1 1863   1.026   0.859   2.054  0.3323  0.2380 -0.0176
  152fsi     O2 1864   0.831   0.749   1.965 -1.0073  0.5474  0.3500
  152fsi     S2 1865   1.198   0.681   1.840 -0.1602  0.1241  0.2980
  152fsi     O3 1866   1.282   0.785   1.895  0.2170 -0.2872  1.0187
  152fsi     O4 1867   1.227   0.626   1.713 -0.3708 -0.0737  0.0353
  152fsi     F2 1868   1.231   0.558   1.938 -0.7079  0.1210 -0.0308
  153fsi     F1 1869   1.669   1.078   2.139  0.0957 -0.2583 -0.4029
  153fsi     S1 1870   1.532   1.094   2.071 -0.0706  0.0573 -0.7464
  153fsi      N 1871   1.554   1.172   1.936  0.3607  0.1318  0.7313
  153fsi     O1 1872   1.495   0.955   2.055  0.3252 -0.3595 -0.1960
  153fsi     O2 1873   1.460   1.169   2.166 -0.2691 -0.0412 -0.4102
  153fsi     S2 1874   1.514   1.310   1.887 -0.2012 -0.1200  0.0447
  153fsi     O3 1875   1.581   1.353   1.770 -0.9907  0.7380  0.3828
  153fsi     O4 1876   1.486   1.409   1.985  0.2371 -0.2679  0.1175
  153fsi     F2 1877   1.371   1.283   1.815  0.1163 -0.1606 -0.3340
  154fsi     F1 1878   0.538   1.696   0.251  0.1375 -0.6806  0.4401
  154fsi     S1 1879   0.545   1.716   0.089 -0.4756 -0.0580  0.2129
  154fsi      N 1880   0.660   1.818   0.072  0.1853 -0.3951 -0.9052
  154fsi     O1 1881   0.577   1.584   0.041  0.1211 -0.4608  0.5608
  154fsi     O2 1882   0.420   1.774   0.047 -0.5166 -0.3406  0.1820
  154fsi     S2 1883   0.672   1.971   0.090  0.1301  0.0071  0.1451
  154fsi     O3 1884   0.805   2.013   0.116  0.4358 -0.1299  0.0629
  154fsi     O4 1885   0.577   2.032   0.181 -0.3456  0.6713 -0.2018
  154fsi     F2 1886   0.631   2.028  -0.048 -0.2931  0.6403  0.0492
  155fsi     F1 1887   2.833   2.692   0.613 -0.1213  1.2190 -0.3537
  155fsi     S1 1888   2.876   2.542   0.607  0.0147 -0.0979 -0.1450
  155fsi      N 1889   2.792   2.482   0.499  0.1062 -0.7825  0.3349
  155fsi     O1 1890   3.015   2.545   0.570 -0.0559 -0.2356  0.3130
  155fsi     O2 1891   2.832   2.489   0.732 -0.6932  0.3939  0.2927
  155fsi     S2 1892   2.806   2.483   0.344 -0.4506  0.0740  0.2283
  155fsi     O3 1893   2.913   2.562   0.285  0.2312 -0.1019 -0.8057
  155fsi     O4 1894   2.681   2.487   0.276  0.0029  0.4609  0.1564
  155fsi     F2 1895   2.851   2.340   0.306  0.1214 -0.1858  0.2985
  156fsi     F1 1896   0.398   1.701   1.178 -0.2539  0.0167 -0.5037
  156fsi     S1 1897   0.390   1.842   1.243 -0.1342 -0.1884  0.0079
  156fsi      N 1898   0.429   1.827   1.389 -0.3444 -0.4842 -1.2647
  156fsi     O1 1899   0.491   1.914   1.169 -0.0300  0.7546 -0.3258
  156fsi     O2 1900   0.256   1.877   1.219  0.5844 -0.0382 -0.2238
  156fsi     S2 1901   0.566   1.835   1.473  0.0805  0.0984  0.4737
  156fsi     O3 1902   0.550   1.800   1.609  0.2742  0.5590  0.1220
  156fsi     O4 1903   0.649   1.946   1.439  0.3082 -0.3241 -0.0490
  156fsi     F2 1904   0.642   1.714   1.417  0.0682 -0.2008  0.0383
  157fsi     F1 1905   0.685   2.732   2.971  0.1629  0.4076 -0.7641
  157fsi     S1 1906   0.788   2.611   2.995  0.4943  0.1228  0.5221
  157fsi      N 1907   0.817   2.563   2.851 -0.1948 -0.0186  0.4350
  157fsi     O1 1908   0.901   2.683   3.049  0.0115 -0.5143 -0.4825
  157fsi     O2 1909   0.718   2.525   3.087 -0.8307 -0.7207  0.4033
  157fsi     S2 1910   0.737   2.459   2.762 -0.0324  0.1447 -0.0108
  157fsi     O3 1911   0.790   2.445   2.627 -0.0765 -0.4807 -0.3759
  157fsi     O4 1912   0.596   2.470   2.783 -0.1827 -0.0768  0.1307
  157fsi     F2 1913   0.781   2.319   2.838  0.1217 -0.2398  0.1258
  158fsi     F1 1914   0.135   0.195   1.988 -0.2217  0.0829 -0.2607
  158fsi     S1 1915   0.155   0.281   2.119  0.4637  0.2768  0.3600
  158fsi      N 1916   0.312   0.308   2.117 -0.0691  0.0286  0.2169
  158fsi     O1 1917   0.073   0.406   2.104  0.3163  0.6430 -0.1340
  158fsi     O2 1918   0.108   0.178   2.213  0.5871 -0.1966 -0.2101
  158fsi     S2 1919   0.421   0.253   2.216  0.1457 -0.0084  0.3127
  158fsi     O3 1920   0.522   0.173   2.155 -0.3463 -0.1214  0.0061
  158fsi     O4 1921   0.376   0.209   2.345 -0.1295  0.0064  0.2133
  158fsi     F2 1922   0.499   0.377   2.262  0.0547 -0.2683 -0.2312
  159fsi     F1 1923   2.863   0.081   0.537  0.0788  0.1395  0.0322
  159fsi     S1 1924   2.844   0.224   0.602  0.0117 -0.0907 -0.2992
  159fsi      N 1925   2.989   0.286   0.601 -0.6059  0.1789  0.1961
  159fsi     O1 1926   2.754   0.294   0.517  0.0723  0.4237  0.3180
  159fsi     O2 1927   2.805   0.184   0.734 -0.0016  0.0249 -0.2163
  159fsi     S2 1928   3.058   0.383   0.495  0.2405  0.2582  0.0359
  159fsi     O3 1929   3.138   0.473   0.566  0.3555 -0.4067  0.4034
  159fsi     O4 1930   2.976   0.424   0.388 -0.3704  0.1917  0.7193
  159fsi     F2 1931   3.168   0.289   0.434  0.0835  0.0314  0.0596
  160fsi     F1 1932   2.113   1.805   0.626 -0.3209  0.2289  0.2831
  160fsi     S1 1933   2.182   1.783   0.487 -0.3453  0.1616  0.1242
  160fsi      N 1934   2.169   1.629   0.463 -0.1225  0.7399 -0.1892
  160fsi     O1 1935   2.098   1.858   0.399  0.1857  0.0498 -0.9033
  160fsi     O2 1936   2.318   1.817   0.506  0.0584  0.5916  0.1115
  160fsi     S2 1937   2.046   1.541   0.441 -0.1293  0.2192  0.0463
  160fsi     O3 1938   2.038   1.474   0.313 -0.4513 -0.3674  0.3235
  160fsi     O4 1939   1.920   1.601   0.486  0.1779 -0.2634 -0.0369
  160fsi     F2 1940   2.074   1.423   0.543 -0.4444 -0.1815  0.4561
  161fsi     F1 1941   1.114   0.644   1.433 -0.2368  0.5687 -0.6486
  161fsi     S1 1942   0.965   0.647   1.392 -0.2407 -0.2725 -0.5050
  161fsi      N 1943   0.887   0.588   1.515 -0.3949 -0.0284 -0.2855
  161fsi     O1 1944   0.945   0.789   1.367 -0.1824  0.3064  0.4424
  161fsi     O2 1945   0.959   0.562   1.277 -0.1849 -0.1645 -0.6698
  161fsi     S2 1946   0.777   0.652   1.607  0.0123 -0.5311  0.0310
  161fsi     O3 1947   0.783   0.800   1.610  0.7790  0.3260 -0.0614
  161fsi     O4 1948   0.745   0.578   1.724 -0.3246  0.3729 -0.0627
  161fsi     F2 1949   0.642   0.626   1.523  0.6010  0.2630 -0.2816
  162fsi     F1 1950   1.179   2.085   0.747  0.6668 -0.1503  0.5636
  162fsi     S1 1951   1.207   1.968   0.650 -0.2373  0.1311  0.1534
  162fsi      N 1952   1.348   1.924   0.702 -0.8888 -0.8265 -0.1774
  162fsi     O1 1953   1.108   1.866   0.672 -0.0674 -0.3298 -0.4447
  162fsi     O2 1954   1.213   2.034   0.524  0.5923  0.1722 -0.0727
  162fsi     S2 1955   1.424   1.787   0.681  0.0821  0.2293  0.2346
  162fsi     O3 1956   1.557   1.782   0.737  0.1622 -0.1329 -0.4740
  162fsi     O4 1957   1.402   1.735   0.549  0.1972 -0.5376  0.0319
  162fsi     F2 1958   1.341   1.697   0.774 -0.0387  0.5951 -0.2084
  163fsi     F1 1959   2.758   2.032   0.480 -0.0803  0.5458  0.1322
  163fsi     S1 1960   2.744   1.963   0.335 -0.1232  0.2077  0.2281
  163fsi      N 1961   2.868   1.870   0.321  0.0548 -0.0330 -0.2728
  163fsi     O1 1962   2.612   1.907   0.337  0.3336  0.1137 -0.0266
  163fsi     O2 1963   2.766   2.072   0.245 -0.5165  0.4870 -0.8010
  163fsi     S2 1964   2.886   1.720   0.363 -0.1279 -0.1460  0.1625
  163fsi     O3 1965   2.779   1.665   0.441 -0.1663 -0.3329 -0.3335
  163fsi     O4 1966   3.020   1.688   0.403  0.2636  0.0164 -0.4146
  163fsi     F2 1967   2.875   1.645   0.224 -0.0760  0.1933 -0.3499
  164fsi     F1 1968   0.347   1.257   0.454 -0.6218 -0.2719  0.1789
  164fsi     S1 1969   0.225   1.336   0.406 -0.1668 -0.6895  0.3570
  164fsi      N 1970   0.223   1.285   0.258  0.3257 -0.3051  0.5535
  164fsi     O1 1971   0.118   1.285   0.486 -0.1281  0.3324  0.3663
  164fsi     O2 1972   0.258   1.477   0.427  0.0683  0.5671  0.3149
  164fsi     S2 1973   0.218   1.363   0.124 -0.1230  0.3946 -0.1775
  164fsi     O3 1974   0.317   1.301   0.033 -0.1388  0.1971 -0.7104
  164fsi     O4 1975   0.216   1.509   0.137  0.3349 -0.7916  0.0355
  164fsi     F2 1976   0.077   1.322   0.058  0.3505 -0.7700 -0.4266
  165fsi     F1 1977   1.886   1.696   1.340 -0.2844 -0.3452 -0.7839
  165fsi     S1 1978   1.927   1.839   1.397  0.5358  0.2549  0.1714
  165fsi      N 1979   2.083   1.834   1.393  0.3324  0.0594 -0.2490
  165fsi     O1 1980   1.867   1.942   1.318  0.5804 -0.2401 -0.0528
  165fsi     O2 1981   1.881   1.839   1.528 -0.0273  0.2866 -0.3612
  165fsi     S2 1982   2.187   1.898   1.296 -0.3282  0.0405 -0.2378
  165fsi     O3 1983   2.305   1.953   1.360  0.2276  0.2560  0.2758
  165fsi     O4 1984   2.133   1.978   1.191  0.1103  0.1973  0.3083
  165fsi     F2 1985   2.251   1.769   1.223  0.4324  0.1042  0.0320
  166fsi     F1 1986   2.850   1.109   1.540  0.3070 -0.4738 -0.6896
  166fsi     S1 1987   2.868   1.068   1.692 -0.1772  0.0633 -0.4932
  166fsi      N 1988   2.766   0.947   1.698  0.4015  0.1266 -0.2142
  166fsi     O1 1989   3.006   1.030   1.695  0.5391  0.1338  0.0500
  166fsi     O2 1990   2.827   1.182   1.768 -0.7348 -0.3764 -0.6946
  166fsi     S2 1991   2.625   0.934   1.775 -0.6665  0.2990  0.2056
  166fsi     O3 1992   2.601   1.039   1.875 -0.0750 -0.7914 -0.0388
  166fsi     O4 1993   2.613   0.796   1.813  0.3487 -0.4706 -0.2121
  166fsi     F2 1994   2.518   0.954   1.668 -0.2682  0.4893 -0.6382
  167fsi     F1 1995   1.001   0.480   0.032  0.1249 -0.3456 -0.5536
  167fsi     S1 1996   1.032   0.355   0.127 -0.4053  0.1422 -0.6287
  167fsi      N 1997   1.025   0.234   0.026 -0.0243  0.4774 -0.0730
  167fsi     O1 1998   1.168   0.385   0.171  0.0503 -0.1977  0.0896
  167fsi     O2 1999   0.927   0.360   0.229 -0.1342  0.1098  0.3485
  167fsi     S2 2000   0.907   0.181  -0.071  0.1764  0.3525  0.4410
  167fsi     O3 2001   0.776   0.245  -0.058  0.0036 -0.1742  0.4948
  167fsi     O4 2002   0.907   0.041  -0.085  0.4113  0.1282  0.1441
  167fsi     F2 2003   0.955   0.222  -0.200  0.1458  0.5532 -0.4042
  168fsi     F1 2004   1.244   2.795   1.101  0.2411 -0.4605 -0.1660
  168fsi     S1 2005   1.119   2.870   1.168 -0.1762 -0.0731 -0.1186
  168fsi      N 2006   1.067   2.757   1.264  0.2057  0.0611 -0.4093
  168fsi     O1 2007   1.182   2.985   1.234  0.3318 -0.0733 -0.0629
  168fsi     O2 2008   1.039   2.888   1.048 -0.3803 -0.2939 -0.8339
  168fsi     S2 2009   1.060   2.749   1.420  0.0987  0.1724  0.4175
  168fsi     O3 2010   1.167   2.815   1.489  0.3659 -0.0276 -0.3031
  168fsi     O4 2011   1.018   2.621   1.473 -0.1852  0.3017  0.3893
  168fsi     F2 2012   0.938   2.844   1.442 -0.0001 -0.1158  0.8760
  169fsi     F1 2013   2.833   0.696   0.747  0.1450  0.4661 -0.4766
  169fsi     S1 2014   2.748   0.726   0.615 -0.0994 -0.0395  0.3490
  169fsi      N 2015   2.600   0.713   0.660  0.4362 -0.6598  0.3122
  169fsi     O1 2016   2.793   0.857   0.577 -0.0879  0.1387  0.6363
  169fsi     O2 2017   2.790   0.614   0.533 -0.1956  0.8010 -0.1294
  169fsi     S2 2018   2.493   0.826   0.647 -0.0719  0.2967 -0.1392
  169fsi     O3 2019   2.362   0.775   0.687 -1.0661 -0.4164 -0.4226
  169fsi     O4 2020   2.499   0.905   0.525  0.2587  0.5263 -0.4882
  169fsi     F2 2021   2.525   0.919   0.762 -0.0960  0.1953 -0.0462
  170fsi     F1 2022   2.629   0.619   0.032 -0.1660 -0.9466 -0.3690
  170fsi     S1 2023   2.744   0.687   0.117 -0.3087 -0.4717  0.1846
  170fsi      N 2024   2.843   0.723   0.001 -0.4871  0.6772  0.1319
  170fsi     O1 2025   2.681   0.799   0.175 -0.2151  0.0680  0.3863
  170fsi     O2 2026   2.782   0.582   0.211 -0.5642 -0.1147 -0.7687
  170fsi     S2 2027   2.969   0.637  -0.049 -0.0893  0.2746  0.0748
  170fsi     O3 2028   2.992   0.518   0.031 -0.0657  0.7469 -0.6625
  170fsi     O4 2029   3.084   0.723  -0.083  0.4052  0.0149  0.3077
  170fsi     F2 2030   2.915   0.580  -0.183 -0.0562  0.1369 -0.0241
  171fsi     F1 2031   1.599   0.730   0.795  0.4665 -0.2241  0.3090
  171fsi     S1 2032   1.702   0.838   0.745 -0.0539 -0.5775 -0.0863
  171fsi      N 2033   1.844   0.767   0.754  0.4491  0.2407  0.6768
  171fsi     O1 2034   1.660   0.847   0.605 -0.1603 -0.3707 -0.2476
  171fsi     O2 2035   1.683   0.944   0.836  0.5929 -0.1890 -0.3616
  171fsi     S2 2036   1.926   0.715   0.874  0.2993 -0.0265 -0.0802
  171fsi     O3 2037   1.898   0.776   1.001 -0.3092  0.5310  0.0502
  171fsi     O4 2038   2.064   0.710   0.831 -0.2677  0.9772 -0.3008
  171fsi     F2 2039   1.888   0.564   0.887  0.2471 -0.4379  0.5392
  172fsi     F1 2040   2.253   2.579   1.328  0.0801 -0.3638  0.1590
  172fsi     S1 2041   2.326   2.717   1.326 -0.2141 -0.4183 -0.0673
  172fsi      N 2042   2.340   2.718   1.165  0.2184  0.0354 -0.5264
  172fsi     O1 2043   2.226   2.807   1.386 -0.0435 -0.2209  0.1054
  172fsi     O2 2044   2.448   2.685   1.397 -0.6272 -0.2757 -0.2379
  172fsi     S2 2045   2.256   2.802   1.063  0.5594  0.4452  0.2250
  172fsi     O3 2046   2.126   2.843   1.106 -0.2191  0.5172 -0.5582
  172fsi     O4 2047   2.265   2.762   0.927  0.3294  0.1612 -0.4199
  172fsi     F2 2048   2.351   2.934   1.067  0.2068  0.5383 -0.4353
  173fsi     F1 2049   0.311   0.151   0.067  0.2080  0.1192 -0.1374
  173fsi     S1 2050   0.380   0.164  -0.072 -0.0788  0.0949 -0.0420
  173fsi      N 2051   0.266   0.186  -0.177  0.7832  0.6255  0.2382
  173fsi     O1 2052   0.471   0.275  -0.064 -0.0125 -0.1251  0.4008
  173fsi     O2 2053   0.449   0.041  -0.082 -0.0711 -0.4343 -0.0206
  173fsi     S2 2054   0.209   0.310  -0.244 -0.0446  0.3141  0.0701
  173fsi     O3 2055   0.204   0.292  -0.387 -0.1306 -0.3651 -0.0500
  173fsi     O4 2056   0.238   0.440  -0.202  0.0928 -0.3995  0.1914
  173fsi     F2 2057   0.059   0.291  -0.191  0.0341 -0.1928  0.1631
  174fsi     F1 2058   0.484   2.962   1.639  0.1041 -0.4061 -0.4556
  174fsi     S1 2059   0.333   2.986   1.639 -0.4538  0.0159 -0.2145
  174fsi      N 2060   0.323   3.063   1.502 -0.2246  0.2975  0.2782
  174fsi     O1 2061   0.269   2.856   1.634 -0.1566 -0.2696  0.4043
  174fsi     O2 2062   0.312   3.070   1.756  0.2236  0.6800  0.0949
  174fsi     S2 2063   0.279   3.020   1.358 -0.0133  0.3083 -0.1482
  174fsi     O3 2064   0.244   2.885   1.338 -0.2159 -0.3046 -0.0819
  174fsi     O4 2065   0.353   3.085   1.251  0.0801  0.2366 -0.1024
  174fsi     F2 2066   0.129   3.078   1.349 -0.2014  0.2754 -0.2374
  175fsi     F1 2067   2.423   0.877   0.015  0.2037 -0.1210 -0.2534
  175fsi     S1 2068   2.307   0.889  -0.093 -0.0732  0.1299 -0.3103
  175fsi      N 2069   2.269   1.040  -0.090  1.0273  0.6635 -0.2192
  175fsi     O1 2070   2.372   0.853  -0.217 -0.1336 -0.1914 -0.0591
  175fsi     O2 2071   2.210   0.797  -0.036  0.0764  0.0377 -0.1512
  175fsi     S2 2072   2.126   1.096  -0.074  0.0881  0.2278  0.0570
  175fsi     O3 2073   2.127   1.203   0.026 -0.3536  0.0330 -0.0012
  175fsi     O4 2074   2.020   1.001  -0.072  0.2488  0.5548 -0.8236
  175fsi     F2 2075   2.112   1.166  -0.219  0.4368  0.4483 -0.4332
  176fsi     F1 2076   2.040   2.527   1.082 -0.4009  0.1091  0.2168
  176fsi     S1 2077   2.117   2.384   1.062  0.0056 -0.3436  0.1002
  176fsi      N 2078   2.041   2.325   0.946  0.1326  0.1909 -0.4546
  176fsi     O1 2079   2.254   2.420   1.028  0.1532  0.0949  0.0556
  176fsi     O2 2080   2.089   2.316   1.187 -0.7409  1.0671  0.0577
  176fsi     S2 2081   1.927   2.219   0.934 -0.3819  0.2465  0.2560
  176fsi     O3 2082   1.819   2.266   0.856 -0.2582  0.4039  0.8671
  176fsi     O4 2083   1.891   2.140   1.044  0.3574  0.1888 -0.3852
  176fsi     F2 2084   1.983   2.117   0.838  0.2097 -0.0873 -0.1232
  177fsi     F1 2085   2.104   2.370   1.559 -0.5266  0.4992  0.2030
  177fsi     S1 2086   2.100   2.213   1.547  0.3595  0.2072 -0.3650
  177fsi      N 2087   2.046   2.171   1.688  0.5013 -0.0614 -0.5855
  177fsi     O1 2088   2.009   2.184   1.443  0.1084  0.4217 -0.3552
  177fsi     O2 2089   2.237   2.171   1.537 -0.2177  0.4168  0.2006
  177fsi     S2 2090   2.106   2.119   1.826 -0.2513 -0.1400 -0.1984
  177fsi     O3 2091   2.027   2.149   1.941 -0.5520 -0.4516 -0.1397
  177fsi     O4 2092   2.246   2.134   1.849 -0.0496  0.0420  0.6872
  177fsi     F2 2093   2.094   1.957   1.809  0.4562 -0.1695  0.7280
  178fsi     F1 2094   1.677   2.011   2.309  0.0824 -0.7640  0.3724
  178fsi     S1 2095   1.699   2.154   2.266 -0.5678  0.1367 -0.0962
  178fsi      N 2096   1.688   2.224   2.408 -0.3203 -0.3739  0.3595
  178fsi     O1 2097   1.833   2.143   2.218  0.0865  0.0226  0.4809
  178fsi     O2 2098   1.592   2.190   2.179  0.4501 -0.1483  0.0308
  178fsi     S2 2099   1.554   2.258   2.480  0.0178  0.0042 -0.0845
  178fsi     O3 2100   1.442   2.302   2.400 -0.2957 -0.1090  0.5921
  178fsi     O4 2101   1.585   2.332   2.594  0.2916  0.5762 -0.0551
  178fsi     F2 2102   1.509   2.122   2.533  0.1695  0.1733  0.1757
  179fsi     F1 2103   0.320   0.676   2.076  0.4554  0.2973  0.2121
  179fsi     S1 2104   0.372   0.719   1.939 -0.0968 -0.2408  0.2704
  179fsi      N 2105   0.310   0.604   1.849  0.4903 -0.0508 -0.2819
  179fsi     O1 2106   0.299   0.842   1.920  0.3308 -0.6412  0.6177
  179fsi     O2 2107   0.518   0.718   1.950  0.7025  0.0443 -0.1132
  179fsi     S2 2108   0.363   0.465   1.819 -0.1029 -0.1496  0.2145
  179fsi     O3 2109   0.266   0.362   1.800  0.1828  0.5055  0.4733
  179fsi     O4 2110   0.486   0.426   1.890  0.8272  0.0172 -0.6385
  179fsi     F2 2111   0.417   0.483   1.677  0.5768 -0.0474  0.2354
  180fsi     F1 2112   0.069   2.804   2.449 -0.1122 -0.0230 -0.2865
  180fsi     S1 2113   0.208   2.881   2.465  0.1573 -0.1171  0.0902
  180fsi      N 2114   0.293   2.779   2.542 -0.4298 -0.4229 -0.3695
  180fsi     O1 2115   0.255   2.914   2.332  0.3300  0.0201  0.6877
  180fsi     O2 2116   0.178   2.995   2.543 -0.0028 -1.0702  0.0588
  180fsi     S2 2117   0.322   2.632   2.513 -0.3831 -0.0528  0.0842
  180fsi     O3 2118   0.270   2.594   2.384 -0.1241 -0.4771 -0.0408
  180fsi     O4 2119   0.283   2.547   2.622  0.1583  0.0207  0.3711
  180fsi     F2 2120   0.484   2.610   2.492  0.1486 -0.3113  0.2001
  181fsi     F1 2121   1.245   2.487   0.896 -1.2895 -0.6635 -0.2356
  181fsi     S1 2122   1.227   2.618   0.813  0.2275 -0.4172  0.4617
  181fsi      N 2123   1.236   2.571   0.667 -0.3677  0.3576  0.4391
  181fsi     O1 2124   1.098   2.666   0.857  0.0129  0.2219  0.1180
  181fsi     O2 2125   1.345   2.697   0.846  0.4645  0.4657  0.2239
  181fsi     S2 2126   1.129   2.583   0.554 -0.4642 -0.2627  0.1684
  181fsi     O3 2127   1.165   2.513   0.432 -0.1239  0.1340  0.6187
  181fsi     O4 2128   1.076   2.717   0.538  0.0251  0.0469  0.2094
  181fsi     F2 2129   1.006   2.500   0.605  0.3540  0.4241  0.0827
  182fsi     F1 2130   1.979   1.084   0.749 -0.2240  0.2015  0.4837
  182fsi     S1 2131   2.084   1.102   0.865 -0.4795  0.1995  0.2853
  182fsi      N 2132   2.152   1.234   0.816 -0.0333 -0.1209 -0.6201
  182fsi     O1 2133   2.009   1.115   0.988  0.0122 -0.9826  0.4822
  182fsi     O2 2134   2.162   0.979   0.852 -0.1710 -0.6074 -0.0747
  182fsi     S2 2135   2.305   1.261   0.782  0.3328  0.0843  0.2697
  182fsi     O3 2136   2.393   1.167   0.851  0.3392  0.6218  0.1787
  182fsi     O4 2137   2.344   1.399   0.792 -0.3937 -0.5218 -0.0940
  182fsi     F2 2138   2.317   1.213   0.634  0.1233 -0.4386 -0.0038
  183fsi     F1 2139   2.207   2.572   0.108  0.1093  0.1571  0.7003
  183fsi     S1 2140   2.242   2.622   0.253 -0.0811 -0.1277  0.0314
  183fsi      N 2141   2.170   2.515   0.350  0.0498  0.5486 -0.1143
  183fsi     O1 2142   2.389   2.622   0.257  0.4962 -0.0799  0.0681
  183fsi     O2 2143   2.176   2.748   0.249 -0.2869  0.4234  0.0161
  183fsi     S2 2144   2.043   2.526   0.446  0.2991 -0.3257 -0.2511
  183fsi     O3 2145   1.965   2.403   0.456 -0.0500  0.1519  0.1387
  183fsi     O4 2146   1.965   2.644   0.423  0.5393  0.1819 -0.2649
  183fsi     F2 2147   2.108   2.554   0.593  0.4344 -0.3569  0.3954
  184fsi     F1 2148   0.018   0.707   2.115  0.1242  0.1615  0.0872
  184fsi     S1 2149  -0.090   0.757   2.016 -0.1980  0.1453  0.5196
  184fsi      N 2150  -0.139   0.896   2.072 -0.3983  0.0889 -0.2928
  184fsi     O1 2151  -0.018   0.774   1.888  0.1682  0.2366 -0.1179
  184fsi     O2 2152  -0.195   0.658   2.027  0.6001  0.5300  0.0177
  184fsi     S2 2153  -0.262   0.940   2.164 -0.2538  0.1219  0.3147
  184fsi     O3 2154  -0.374   0.848   2.160 -0.0160 -0.7110  0.6850
  184fsi     O4 2155  -0.284   1.080   2.160 -0.3351 -0.2787  0.6265
  184fsi     F2 2156  -0.203   0.919   2.312 -0.0451 -0.0106 -0.3721
  185fsi     F1 2157   2.515   1.821   1.827 -0.4418  0.1451 -0.1815
  185fsi     S1 2158   2.412   1.774   1.712  0.2280 -0.0616 -0.3588
  185fsi      N 2159   2.506   1.713   1.602  0.6092  0.0399 -0.0572
  185fsi     O1 2160   2.327   1.677   1.777  0.1682  0.0325  0.0363
  185fsi     O2 2161   2.344   1.893   1.670 -0.1130 -0.0548  0.1162
  185fsi     S2 2162   2.614   1.780   1.520 -0.2111 -0.4102  0.0412
  185fsi     O3 2163   2.592   1.928   1.508 -0.3453  0.1448 -0.6673
  185fsi     O4 2164   2.651   1.706   1.401  0.6510  0.0682 -0.2087
  185fsi     F2 2165   2.733   1.769   1.609  0.4492  0.0083  0.0069
  186fsi     F1 2166   1.653   2.562   0.176  0.1956 -0.0534 -0.0912
  186fsi     S1 2167   1.775   2.560   0.061  0.2010  0.4610  0.6078
  186fsi      N 2168   1.734   2.677  -0.031  0.6597 -0.5350 -0.1470
  186fsi     O1 2169   1.894   2.599   0.130  0.4988 -0.2463  0.0853
  186fsi     O2 2170   1.765   2.428   0.008 -0.5238 -0.6054  0.6809
  186fsi     S2 2171   1.655   2.690  -0.164 -0.1625 -0.4421 -0.2385
  186fsi     O3 2172   1.597   2.815  -0.174  0.6603 -0.1307 -0.0560
  186fsi     O4 2173   1.580   2.577  -0.208 -0.0249  0.5210 -0.2333
  186fsi     F2 2174   1.766   2.695  -0.275 -0.1459  0.8731 -0.6566
  187fsi     F1 2175   0.793   1.758   1.840 -0.0118 -0.0924 -0.2490
  187fsi     S1 2176   0.705   1.711   1.965 -0.2387 -0.4274  0.1061
  187fsi      N 2177   0.569   1.758   1.913  0.5298  0.1853  0.5856
  187fsi     O1 2178   0.721   1.565   1.971 -0.0730 -0.3210  0.1267
  187fsi     O2 2179   0.764   1.782   2.077 -0.1738  0.3182  0.0726
  187fsi     S2 2180   0.506   1.902   1.921  0.3626  0.2781 -0.0482
  187fsi     O3 2181   0.502   1.967   2.051  0.1002 -0.1222  0.7838
  187fsi     O4 2182   0.379   1.907   1.850 -0.4714 -0.0664 -0.1341
  187fsi     F2 2183   0.602   1.993   1.830  0.5431  0.2710 -0.4933
  188fsi     F1 2184   1.326   1.337   1.048 -0.5393 -0.5493 -0.3734
  188fsi     S1 2185   1.386   1.406   1.175  0.0563  0.2418  0.1656
  188fsi      N 2186   1.542   1.414   1.145 -0.2368  0.3257  0.7635
  188fsi     O1 2187   1.328   1.532   1.179 -0.0390  0.0493 -0.4215
  188fsi     O2 2188   1.346   1.312   1.278  0.0165 -0.4645 -0.2293
  188fsi     S2 2189   1.659   1.303   1.150  0.0360 -0.1449  0.6860
  188fsi     O3 2190   1.779   1.347   1.083 -0.1295  0.1409 -0.4233
  188fsi     O4 2191   1.623   1.165   1.146  0.2716 -0.7818  0.0763
  188fsi     F2 2192   1.709   1.308   1.295 -0.9166 -0.2842 -0.1964
  189fsi     F1 2193   1.566   1.978   2.971 -0.5747  0.0659 -0.6772
  189fsi     S1 2194   1.652   2.066   2.871  0.4432  0.1589 -0.0664
  189fsi      N 2195   1.673   1.970   2.745  0.3537 -0.1712  0.1754
  189fsi     O1 2196   1.563   2.170   2.830 -0.0260 -0.1188  0.0242
  189fsi     O2 2197   1.774   2.101   2.941 -0.3785  0.2112 -0.1405
  189fsi     S2 2198   1.789   1.866   2.724 -0.0984  0.5061  0.1182
  189fsi     O3 2199   1.740   1.737   2.679  0.1953  0.0421  0.2887
  189fsi     O4 2200   1.894   1.867   2.823  0.4727 -0.3577  1.0496
  189fsi     F2 2201   1.855   1.930   2.602  0.6447  0.0278  0.0363
  190fsi     F1 2202   2.519   0.405   2.412 -0.0368 -0.3023  0.1252
  190fsi     S1 2203   2.489   0.440   2.255  0.1477  0.2762  0.1474
  190fsi      N 2204   2.621   0.402   2.180  0.3451 -0.2146 -1.0208
  190fsi     O1 2205   2.380   0.350   2.228 -0.3383  0.2006  1.1848
  190fsi     O2 2206   2.463   0.581   2.249  0.2128  0.1152  0.2080
  190fsi     S2 2207   2.658   0.277   2.086 -0.1065  0.0314 -0.4739
  190fsi     O3 2208   2.612   0.152   2.138 -0.0192 -0.4354 -0.2092
  190fsi     O4 2209   2.788   0.282   2.043  0.3097  0.0605  0.3175
  190fsi     F2 2210   2.570   0.294   1.953  0.0292  0.3555  0.3559
  191fsi     F1 2211   2.298   2.580   2.212 -0.1239 -0.9160  0.0516
  191fsi     S1 2212   2.397   2.470   2.245 -0.3382 -0.0972  0.1580
  191fsi      N 2213   2.314   2.364   2.331 -0.3010  0.1415  0.3533
  191fsi     O1 2214   2.433   2.427   2.112 -0.0361  0.3802  0.1673
  191fsi     O2 2215   2.496   2.547   2.324  0.5262 -0.0654 -0.4358
  191fsi     S2 2216   2.261   2.223   2.293 -0.2218 -0.2752  0.0561
  191fsi     O3 2217   2.319   2.162   2.175  0.2023  0.6615 -0.4666
  191fsi     O4 2218   2.121   2.208   2.322  0.2250 -0.4231 -0.2933
  191fsi     F2 2219   2.318   2.128   2.403  0.0235  0.1068 -0.3156
  192fsi     F1 2220   0.706   2.481   0.416  0.1719 -0.3796  0.3212
  192fsi     S1 2221   0.760   2.334   0.390  0.4784 -0.0909 -0.5691
  192fsi      N 2222   0.787   2.279   0.532 -0.2554  0.0090 -0.3550
  192fsi     O1 2223   0.648   2.282   0.319  0.0874  0.6561  0.1960
  192fsi     O2 2224   0.878   2.355   0.311 -0.8972 -0.2184  0.1625
  192fsi     S2 2225   0.736   2.145   0.597 -0.2671  0.0540 -0.2702
  192fsi     O3 2226   0.695   2.058   0.492  0.7402  0.1324 -0.5482
  192fsi     O4 2227   0.646   2.171   0.704 -0.9499  0.1602 -0.0920
  192fsi     F2 2228   0.867   2.066   0.665  0.5493  0.3946  0.1855
  193fsi     F1 2229   2.251   1.040   2.040 -0.1320 -0.2289 -0.2232
  193fsi     S1 2230   2.231   0.911   1.954  0.2361 -0.2863  0.0295
  193fsi      N 2231   2.084   0.857   1.994 -0.1986 -0.7857  0.2703
  193fsi     O1 2232   2.246   0.964   1.821  0.4519 -0.0556  0.1385
  193fsi     O2 2233   2.334   0.824   2.005 -0.4579  0.0955 -0.0784
  193fsi     S2 2234   1.952   0.858   1.909 -0.1175 -0.1742 -0.2032
  193fsi     O3 2235   1.909   0.723   1.893 -0.9104 -0.1363 -0.0829
  193fsi     O4 2236   1.955   0.939   1.792  0.8392 -0.2926 -0.1918
  193fsi     F2 2237   1.848   0.921   2.007  0.1810  0.3178 -0.3730
  194fsi     F1 2238   1.559   2.139   1.007 -0.0492  0.4522 -0.3578
  194fsi     S1 2239   1.532   2.214   1.143  0.0308  0.5265 -0.0501
  194fsi      N 2240   1.384   2.178   1.170  0.3813 -0.0865  0.1991
  194fsi     O1 2241   1.621   2.144   1.228  0.1503  0.7825 -0.7532
  194fsi     O2 2242   1.545   2.352   1.113 -0.0178 -0.0996  0.7922
  194fsi     S2 2243   1.314   2.085   1.272  0.4542  0.0671  0.0778
  194fsi     O3 2244   1.209   2.152   1.334 -0.3080  0.7641 -0.6592
  194fsi     O4 2245   1.401   1.994   1.341 -0.4560 -0.3902  0.1107
  194fsi     F2 2246   1.230   1.995   1.175  0.0246  0.2481  0.0237
  195fsi     F1 2247   1.583   0.960   0.223  0.3638  0.1210  0.1154
  195fsi     S1 2248   1.436   0.971   0.173  0.1158 -0.3471  0.1972
  195fsi      N 2249   1.389   1.099   0.243  0.2278  0.5583 -0.6014
  195fsi     O1 2250   1.456   0.965   0.030  0.6436  0.5785 -0.1717
  195fsi     O2 2251   1.377   0.853   0.235  0.1716 -0.5018 -0.1050
  195fsi     S2 2252   1.351   1.240   0.197  0.5994  0.1280 -0.2430
  195fsi     O3 2253   1.314   1.246   0.057  0.4268  0.0373  0.6207
  195fsi     O4 2254   1.439   1.342   0.252 -0.4366  0.1734  0.0967
  195fsi     F2 2255   1.215   1.269   0.269  0.4293 -0.0106 -0.5909
  196fsi     F1 2256   2.423   0.127   1.246  0.0731 -0.1884  0.5019
  196fsi     S1 2257   2.494   0.262   1.292 -0.4300 -0.0075  0.3455
  196fsi      N 2258   2.646   0.223   1.287  0.3388 -0.3926  0.9698
  196fsi     O1 2259   2.447   0.372   1.207 -0.5101  0.3185  0.1357
  196fsi     O2 2260   2.463   0.266   1.435 -0.1993 -0.4822  0.1461
  196fsi     S2 2261   2.745   0.238   1.175 -0.5085  0.1639 -0.0910
  196fsi     O3 2262   2.885   0.202   1.205 -0.5612 -0.0269 -0.3202
  196fsi     O4 2263   2.724   0.345   1.084 -0.2598  0.3617  0.3477
  196fsi     F2 2264   2.710   0.116   1.078  0.0864  0.0240  0.2778
  197fsi     F1 2265   2.623   2.920   0.484 -0.3250  0.0137 -0.4183
  197fsi     S1 2266   2.582   2.912   0.333 -0.0549 -0.3087 -0.1635
  197fsi      N 2267   2.622   3.059   0.294 -0.0216 -0.5028 -0.3411
  197fsi     O1 2268   2.666   2.805   0.277  0.4307 -0.1268  0.3770
  197fsi     O2 2269   2.439   2.888   0.333 -0.1326 -0.4673  0.3444
  197fsi     S2 2270   2.536   3.174   0.240 -0.0223 -0.2599  0.0792
  197fsi     O3 2271   2.431   3.135   0.149  0.0097  0.0046  0.1876
  197fsi     O4 2272   2.619   3.285   0.203  0.1256  0.2278  0.4811
  197fsi     F2 2273   2.465   3.231   0.367  0.7655  0.1793  0.1001
  198fsi     F1 2274   1.779   1.545   2.374 -0.4081 -0.0935 -0.1692
  198fsi     S1 2275   1.681   1.433   2.393  0.2188 -0.1371 -0.2338
  198fsi      N 2276   1.759   1.311   2.348 -0.3498  0.5226 -0.4699
  198fsi     O1 2277   1.647   1.441   2.533 -0.2795  0.9230  0.2017
  198fsi     O2 2278   1.573   1.460   2.298  0.1086 -0.1049  0.2456
  198fsi     S2 2279   1.854   1.211   2.426  0.1028 -0.2381 -0.0911
  198fsi     O3 2280   1.831   1.077   2.371 -0.4039 -0.3014 -0.2102
  198fsi     O4 2281   1.878   1.240   2.569 -0.7724 -0.0064  0.0278
  198fsi     F2 2282   1.992   1.261   2.366  0.2661 -0.3658  0.1628
  199fsi     F1 2283   0.507   0.663   1.253  0.1258 -0.8079 -0.1279
  199fsi     S1 2284   0.598   0.779   1.189  0.1878 -0.2012  0.3438
  199fsi      N 2285   0.705   0.695   1.111 -0.5699  0.8827 -0.1607
  199fsi     O1 2286   0.499   0.837   1.106 -0.1202  0.0345 -0.1146
  199fsi     O2 2287   0.659   0.851   1.295 -0.3148  0.5747  0.7903
  199fsi     S2 2288   0.696   0.627   0.968 -0.0340 -0.0897  0.2143
  199fsi     O3 2289   0.830   0.613   0.916  0.3743 -0.1720  0.3980
  199fsi     O4 2290   0.589   0.675   0.884  0.2874 -0.1205  0.4140
  199fsi     F2 2291   0.651   0.481   1.003  0.0244 -0.3356 -0.3543
  200fsi     F1 2292   2.373   2.456   1.621  0.4913  0.3615  0.5480
  200fsi     S1 2293   2.365   2.559   1.734  0.1773 -0.2356  0.1602
  200fsi      N 2294   2.295   2.476   1.850 -0.0150  0.3738 -0.1983
  200fsi     O1 2295   2.501   2.589   1.763  0.4770 -0.1660 -0.2928
  200fsi     O2 2296   2.286   2.668   1.690 -0.1977  0.6134 -0.1667
  200fsi     S2 2297   2.156   2.498   1.925  0.0204 -0.2948  0.1200
  200fsi     O3 2298   2.115   2.638   1.955  0.9008  0.1448  0.3862
  200fsi     O4 2299   2.147   2.399   2.033  0.1039 -0.3895  0.2137
  200fsi     F2 2300   2.046   2.446   1.824  0.3580 -0.2973  0.5088
   3.00149   3.00149   3.00149
