simbox
 2300
    1Li      Li    1   2.164   2.631   2.463  0.2429  0.5780  0.1542
    2Li      Li    2   1.151   2.645   0.340  0.2195  0.6658  0.3639
    3Li      Li    3   2.544   0.934   0.765 -0.2906  0.3378 -0.3472
    4Li      Li    4   2.344   0.827   0.227 -0.0664 -0.8520 -1.3561
    5Li      Li    5   2.706   0.168   2.354  0.0501  0.0539 -1.2139
    6Li      Li    6   0.567   0.672   1.601 -0.1502  0.1936  0.5901
    7Li      Li    7   1.735   2.713   2.970  0.2033 -0.0362 -0.1082
    8Li      Li    8   2.066   3.039   0.201  1.2668  0.2511  0.7594
    9Li      Li    9   0.322   1.985   0.108 -1.3024 -0.0870 -1.0545
   10Li      Li   10   3.040   2.470   2.795  0.3259  1.0272  0.2402
   11Li      Li   11   2.359   0.968   1.890 -0.3939 -0.2484  0.5144
   12Li      Li   12   1.704   1.250   2.482 -0.0755 -0.0938  0.0213
   13Li      Li   13   3.111   3.055   1.402 -1.2820  0.1398 -0.9201
   14Li      Li   14   2.029   0.969   1.200 -0.1094 -0.7588 -0.7522
   15Li      Li   15   0.282   2.400   3.141  0.0678  0.6006 -0.3242
   16Li      Li   16   2.096   3.156   1.406  0.3129 -0.2562  0.9493
   17Li      Li   17   0.313   0.243   2.727  0.6582 -0.4920  0.2277
   18Li      Li   18   2.771   2.726   2.295  0.3673 -0.8850 -0.4160
   19Li      Li   19   0.082   2.569   0.455  0.5898  0.3941 -0.0253
   20Li      Li   20   2.271   1.485   0.319  0.6035  0.0619 -0.3263
   21Li      Li   21   0.163   0.627   0.269  1.1554 -1.3105  1.3171
   22Li      Li   22   2.839   3.041   2.784  0.7188  0.4669 -0.2531
   23Li      Li   23   2.461   0.331   1.732 -0.7751  0.0814 -0.7094
   24Li      Li   24   2.860   2.799   0.134  0.3174  0.4072 -0.0007
   25Li      Li   25   1.203   1.074   2.104  0.0410 -1.0197 -0.7144
   26Li      Li   26   2.849   0.517   0.466 -1.1156 -0.3035 -0.5246
   27Li      Li   27   2.626   2.865   1.732  0.4819 -0.5300  0.5394
   28Li      Li   28   3.108   2.440   0.179  0.7424  0.2629  0.0274
   29Li      Li   29   1.170   0.495   2.293  0.3579  0.5953  0.4217
   30Li      Li   30   2.596   1.327   0.403  0.9397 -0.9349  0.0895
   31Li      Li   31   2.862   1.333   2.382 -0.3774  0.7482  0.2683
   32Li      Li   32   0.864   0.821   1.182  0.2175  0.5250  0.3584
   33Li      Li   33   0.882   1.203   1.649  0.0545  0.6547  0.4646
   34Li      Li   34   0.546   2.751   3.039  1.1215 -0.1411 -0.3138
   35Li      Li   35   2.570   1.892   0.549 -0.2188  0.7009  1.4130
   36Li      Li   36   2.787   0.734   2.210 -0.2912  0.5965 -0.2455
   37Li      Li   37   1.217   3.116   0.896  0.4497 -0.1976 -0.4424
   38Li      Li   38   0.597   2.280   0.516  0.1057  0.1929 -0.3815
   39Li      Li   39   0.668   0.549   0.007 -0.9186 -0.1744  0.0870
   40Li      Li   40   0.304   0.706   2.920 -0.1589  0.3848 -0.5181
   41Li      Li   41   1.444   2.733   2.480 -1.2001 -0.0796  0.5926
   42Li      Li   42   3.180   0.576   2.598  0.3213 -0.3363 -0.0557
   43Li      Li   43   0.011   0.916   1.978 -0.5260  0.7480 -0.5708
   44Li      Li   44   2.041   2.518   1.523  0.0199  0.8892 -0.2432
   45Li      Li   45   2.433   2.320   1.883 -0.1708  0.3870  0.0342
   46Li      Li   46   2.564   3.170   0.264  0.3154 -0.1695  0.2064
   47Li      Li   47   0.487   0.461   2.117  0.3091 -0.1539  0.5679
   48Li      Li   48   0.917   0.713   1.933  0.5892  0.1433 -0.0747
   49Li      Li   49   2.115   3.181   2.304 -0.2659 -0.0262  0.4503
   50Li      Li   50   2.274   3.189   1.939  0.4070  1.2764 -1.0816
   51c3c      N   51   2.332   3.137   2.772 -0.0346 -0.0035 -0.2428
   51c3c     C1   52   2.218   3.116   2.849  0.3836 -0.2848 -0.4140
   51c3c     C2   53   2.432   3.052   2.845  0.1364  0.1100 -0.4111
   51c3c     C3   54   2.208   2.966   2.885 -0.0420 -0.2110  0.1681
   51c3c     C4   55   2.352   2.925   2.881  0.0121  0.6829 -0.0883
   51c3c     C5   56   2.311   3.077   2.636 -0.0233 -0.0709 -0.0843
   51c3c     C6   57   2.372   3.281   2.756  0.3709  0.7355  0.4840
   51c3c     H1   58   2.124   3.140   2.798 -0.5714 -0.2326  1.3210
   51c3c     H2   59   2.217   3.170   2.943 -0.0416 -1.7047  0.4167
   51c3c     H3   60   2.516   3.020   2.783  1.9116 -0.4219  2.2002
   51c3c     H4   61   2.487   3.100   2.925  0.0468  1.9308 -1.4234
   51c3c     H5   62   2.154   2.907   2.811  1.0204  0.4923 -1.2125
   51c3c     H6   63   2.169   2.946   2.984 -2.6697  0.6419 -0.6669
   51c3c     H7   64   2.369   2.849   2.805  0.5789 -2.7161  3.2955
   51c3c     H8   65   2.386   2.878   2.973  0.3808  1.3752  0.1338
   51c3c     H9   66   2.216   3.121   2.604  0.0698  1.4118  1.6111
   51c3c    H10   67   2.400   3.102   2.579  0.0497 -3.7802 -1.8042
   51c3c    H11   68   2.305   2.968   2.630  1.8158 -0.0720 -2.4720
   51c3c    H12   69   2.453   3.279   2.682 -1.2148 -1.1330 -1.2680
   51c3c    H13   70   2.290   3.336   2.710  0.5148 -1.3927 -2.4890
   51c3c     C7   71   2.405   3.355   2.880 -0.4407 -0.0410 -0.0357
   51c3c    H14   72   2.481   3.313   2.946 -0.0437  0.4321 -0.1841
   51c3c    H15   73   2.316   3.369   2.942 -0.0622 -1.5107  0.8689
   51c3c     C8   74   2.439   3.502   2.849 -0.0169  0.5337  0.1070
   51c3c    H16   75   2.448   3.561   2.939  1.3937  0.1824  0.2191
   51c3c    H17   76   2.376   3.554   2.778  2.0639  3.8617  0.5878
   51c3c    H18   77   2.540   3.502   2.807  0.0949  2.1762  0.3651
   52c3c      N   78   2.010   0.459   0.607 -0.0023  0.1572  0.2416
   52c3c     C1   79   1.872   0.479   0.578  0.3800  0.4428 -0.1078
   52c3c     C2   80   2.058   0.379   0.493  0.1340  1.0581  0.4564
   52c3c     C3   81   1.852   0.497   0.430 -0.4110 -0.4397 -0.3061
   52c3c     C4   82   1.964   0.424   0.371 -0.1490  0.9057 -0.1961
   52c3c     C5   83   2.080   0.587   0.601 -0.0441  0.6986  0.2050
   52c3c     C6   84   2.034   0.398   0.743  0.4217 -0.1962 -0.3663
   52c3c     H1   85   1.821   0.552   0.642  1.0781  0.6630  0.1953
   52c3c     H2   86   1.818   0.390   0.610 -2.7658  1.8458 -1.2894
   52c3c     H3   87   2.165   0.380   0.473 -0.1423  0.7787 -1.1048
   52c3c     H4   88   2.029   0.277   0.516  1.7384  0.6584  0.8222
   52c3c     H5   89   1.866   0.599   0.394 -0.6217 -0.4235 -0.3444
   52c3c     H6   90   1.752   0.457   0.410 -1.7757  1.2497  2.7936
   52c3c     H7   91   2.032   0.489   0.316  1.3396 -0.3207  0.1833
   52c3c     H8   92   1.941   0.348   0.297  0.1004  0.2419  0.4034
   52c3c     H9   93   2.050   0.644   0.689  0.6945 -0.6813  1.3818
   52c3c    H10   94   2.184   0.574   0.629 -0.3505 -1.1036  0.5549
   52c3c    H11   95   2.069   0.644   0.509  0.2389  1.7203  0.7949
   52c3c    H12   96   2.135   0.355   0.743  0.5702  0.1423  0.3988
   52c3c    H13   97   2.030   0.482   0.813  2.8471 -1.2911  1.1565
   52c3c     C7   98   1.950   0.279   0.787  0.5644 -0.2494 -0.2484
   52c3c    H14   99   1.952   0.204   0.708 -2.1350  0.3057 -0.8973
   52c3c    H15  100   1.848   0.316   0.799  0.9361  0.4172  0.9822
   52c3c     C8  101   1.996   0.224   0.921 -0.7662 -0.2910  1.1295
   52c3c    H16  102   1.957   0.123   0.934 -0.6682 -0.5618 -0.6648
   52c3c    H17  103   1.980   0.292   1.005  0.2249  1.3893 -0.0047
   52c3c    H18  104   2.104   0.214   0.924 -0.7843 -1.6466 -1.5072
   53c3c      N  105   0.132   1.306   1.352  0.6602 -0.2591  0.3938
   53c3c     C1  106   0.129   1.307   1.504 -0.1624  0.4459  0.3955
   53c3c     C2  107   0.135   1.449   1.328 -0.5057 -1.1747 -0.4927
   53c3c     C3  108   0.232   1.414   1.546 -0.4623 -0.0031 -0.4605
   53c3c     C4  109   0.230   1.512   1.434 -0.1817  0.0812  0.6258
   53c3c     C5  110   0.247   1.222   1.307 -0.1023 -0.6797  0.1304
   53c3c     C6  111   0.013   1.231   1.300  0.1436  0.3195  0.3587
   53c3c     H1  112   0.156   1.213   1.551 -0.9715  0.1276  0.2225
   53c3c     H2  113   0.038   1.337   1.556 -2.2184 -2.7390 -1.2396
   53c3c     H3  114   0.163   1.476   1.226  0.9712 -1.4494 -0.1659
   53c3c     H4  115   0.044   1.507   1.341  0.6027  0.1012  1.7925
   53c3c     H5  116   0.332   1.375   1.565 -0.5428  1.1053  2.4916
   53c3c     H6  117   0.214   1.459   1.644 -0.3474 -1.7766  0.3965
   53c3c     H7  118   0.327   1.540   1.393 -0.0456  1.0068  1.5689
   53c3c     H8  119   0.175   1.601   1.463 -0.3097  0.0981  0.3428
   53c3c     H9  120   0.231   1.117   1.332 -1.7904 -0.7014 -0.9427
   53c3c    H10  121   0.258   1.212   1.199 -0.8481  0.3657 -0.0501
   53c3c    H11  122   0.345   1.252   1.345 -1.3164  2.5699  0.8860
   53c3c    H12  123   0.018   1.205   1.195  0.6072  0.4464  0.3489
   53c3c    H13  124   0.011   1.132   1.346 -1.4506 -0.0189 -0.4221
   53c3c     C7  125  -0.131   1.302   1.321  0.0042  0.6511  0.0391
   53c3c    H14  126  -0.138   1.379   1.244  1.5268 -0.1971 -0.9628
   53c3c    H15  127  -0.138   1.334   1.425  1.0323 -1.3624  0.7601
   53c3c     C8  128  -0.244   1.212   1.279 -0.2189 -0.1248 -0.1114
   53c3c    H16  129  -0.217   1.159   1.188  2.0679  2.7832 -1.2271
   53c3c    H17  130  -0.323   1.282   1.251  1.5754  2.8532  1.9828
   53c3c    H18  131  -0.275   1.151   1.364 -0.2145 -0.4072 -0.3113
   54c3c      N  132   0.201   2.347   1.020 -0.5442 -0.3232 -0.0194
   54c3c     C1  133   0.226   2.485   0.985  0.4560 -0.5291 -0.8381
   54c3c     C2  134   0.058   2.345   1.043  0.2076 -0.3170  0.3452
   54c3c     C3  135   0.107   2.525   0.900  0.6808 -0.1312 -0.0522
   54c3c     C4  136  -0.014   2.438   0.942 -0.0137  0.6061  0.2587
   54c3c     C5  137   0.226   2.265   0.904 -0.0714  0.2794  0.1377
   54c3c     C6  138   0.274   2.291   1.141  0.1801 -0.5075  0.0884
   54c3c     H1  139   0.328   2.497   0.949  1.9015  0.1877  3.1895
   54c3c     H2  140   0.222   2.540   1.079 -1.6586 -1.3060 -0.4352
   54c3c     H3  141   0.006   2.250   1.029  1.9165 -0.8026 -3.1235
   54c3c     H4  142   0.026   2.371   1.144 -2.0275  2.0062 -0.8939
   54c3c     H5  143   0.125   2.510   0.793 -2.1906  1.9388 -0.8916
   54c3c     H6  144   0.082   2.629   0.918 -1.1007 -0.1809 -2.0106
   54c3c     H7  145  -0.060   2.382   0.860  0.9509  1.8704 -1.1609
   54c3c     H8  146  -0.083   2.509   0.987 -0.7853 -0.5517  0.9212
   54c3c     H9  147   0.330   2.254   0.875 -0.8367  0.7022 -2.9681
   54c3c    H10  148   0.191   2.164   0.925  0.6105  0.2534  1.1742
   54c3c    H11  149   0.166   2.277   0.814 -2.7695  1.7878  2.0594
   54c3c    H12  150   0.224   2.197   1.162  2.1065 -1.3516  0.9974
   54c3c    H13  151   0.377   2.263   1.121  0.3748 -1.4976  2.3994
   54c3c     C7  152   0.268   2.385   1.268 -0.7310  0.9538 -0.2862
   54c3c    H14  153   0.168   2.430   1.270 -2.4974 -2.8150  0.9258
   54c3c    H15  154   0.332   2.473   1.267  0.8316 -0.1687  0.2994
   54c3c     C8  155   0.297   2.305   1.392 -0.1184  0.2538 -0.5077
   54c3c    H16  156   0.228   2.221   1.396  3.1873 -2.5417 -0.1853
   54c3c    H17  157   0.270   2.380   1.467  0.8725  2.7611 -2.5724
   54c3c    H18  158   0.402   2.278   1.392  0.2207  1.5325 -1.1226
   55c3c      N  159   3.212   3.101   0.790  0.0948  0.0233  0.2490
   55c3c     C1  160   3.330   3.072   0.869 -0.4274 -0.7274 -0.9377
   55c3c     C2  161   3.212   3.246   0.773 -0.5629  0.7997  0.2174
   55c3c     C3  162   3.432   3.177   0.826 -0.9747  0.0729  0.3533
   55c3c     C4  163   3.358   3.279   0.749  0.2731  0.1048  0.2571
   55c3c     C5  164   3.217   3.026   0.658  0.0703 -0.2218 -0.5795
   55c3c     C6  165   3.089   3.057   0.855 -0.5920 -0.1074  0.2429
   55c3c     H1  166   3.371   2.970   0.871 -0.6196 -0.7708  1.9466
   55c3c     H2  167   3.310   3.103   0.971 -0.1147  0.8244 -1.3329
   55c3c     H3  168   3.137   3.273   0.698  0.0921  0.5175 -0.5563
   55c3c     H4  169   3.181   3.296   0.864 -1.2196  0.6566  0.0742
   55c3c     H5  170   3.530   3.151   0.786 -1.1936  1.4326 -1.1100
   55c3c     H6  171   3.457   3.223   0.922 -3.1263 -0.3745  1.1568
   55c3c     H7  172   3.386   3.281   0.644 -1.7616 -0.5409 -0.3167
   55c3c     H8  173   3.370   3.380   0.788  0.2411 -0.7913  2.6732
   55c3c     H9  174   3.204   2.919   0.674  2.4337 -0.1867  1.9922
   55c3c    H10  175   3.161   3.073   0.577  0.4971  0.5047 -0.4628
   55c3c    H11  176   3.318   3.041   0.620  0.2808  1.9040  0.6993
   55c3c    H12  177   3.005   3.058   0.785 -0.1320  0.6858 -0.3017
   55c3c    H13  178   3.101   2.950   0.875  1.2425  0.0074 -0.2152
   55c3c     C7  179   3.043   3.113   0.996  0.1231  0.1629 -0.4586
   55c3c    H14  180   3.024   3.220   0.999 -3.2569 -0.3902  0.6887
   55c3c    H15  181   3.122   3.091   1.068  0.3976  2.5550 -0.0177
   55c3c     C8  182   2.909   3.048   1.046  0.6850 -0.3832 -0.3222
   55c3c    H16  183   2.884   3.086   1.145  1.1519  1.0237 -0.7368
   55c3c    H17  184   2.892   2.940   1.043 -3.2488  0.1019  1.5401
   55c3c    H18  185   2.822   3.084   0.992  0.1717 -1.1302 -0.0108
   56c3c      N  186   1.882   1.973   0.822  0.1400 -0.1924 -0.1772
   56c3c     C1  187   1.734   1.936   0.824 -0.4821 -0.4684  0.0548
   56c3c     C2  188   1.940   1.852   0.760  0.4130  0.0168 -0.1147
   56c3c     C3  189   1.714   1.857   0.692 -0.7187 -0.0306 -0.1271
   56c3c     C4  190   1.849   1.816   0.642 -0.5256 -0.0883 -0.0923
   56c3c     C5  191   1.911   2.086   0.728  1.3418  0.6734 -0.3319
   56c3c     C6  192   1.949   2.008   0.946 -0.2819  0.3483  0.1925
   56c3c     H1  193   1.666   2.018   0.847 -0.4697 -0.5735  0.4862
   56c3c     H2  194   1.712   1.867   0.906 -2.7319  1.9015  1.5508
   56c3c     H3  195   2.046   1.862   0.735  0.2187 -3.9050 -3.0126
   56c3c     H4  196   1.938   1.762   0.821 -0.3341  0.2161  0.1461
   56c3c     H5  197   1.682   1.931   0.619 -0.6207 -1.3719 -1.5586
   56c3c     H6  198   1.642   1.776   0.685 -0.2883 -0.3932 -0.3841
   56c3c     H7  199   1.873   1.872   0.551 -1.5220 -0.7169 -0.7627
   56c3c     H8  200   1.857   1.709   0.623 -0.2527 -0.2777  1.0763
   56c3c     H9  201   1.858   2.177   0.755 -2.2059 -0.9587 -1.5802
   56c3c    H10  202   2.018   2.109   0.730  1.4689  0.0751 -0.0006
   56c3c    H11  203   1.880   2.074   0.625  2.0408  1.2122 -0.6118
   56c3c    H12  204   2.052   2.024   0.915 -0.2741  0.4429  0.2659
   56c3c    H13  205   1.916   2.103   0.989 -1.0381 -0.8171  2.2745
   56c3c     C7  206   1.943   1.909   1.059 -0.4934  0.7513 -0.7195
   56c3c    H14  207   1.995   1.815   1.039 -1.7820 -0.1517  0.1329
   56c3c    H15  208   1.839   1.890   1.084 -0.0235 -1.5674 -0.4643
   56c3c     C8  209   2.001   1.964   1.194 -0.3230 -0.4179 -0.0400
   56c3c    H16  210   1.930   2.035   1.237 -2.0906 -1.9489 -0.3978
   56c3c    H17  211   2.100   2.009   1.184 -0.7590  0.5128 -0.2425
   56c3c    H18  212   2.014   1.879   1.261 -1.6827  0.5738  1.5301
   57c3c      N  213   0.595   0.147   1.279 -0.0468 -0.3647  0.3214
   57c3c     C1  214   0.622   0.116   1.423 -0.0406  0.4795  0.2827
   57c3c     C2  215   0.454   0.176   1.277 -0.1399  0.4817  0.3074
   57c3c     C3  216   0.534   0.212   1.509 -0.5767  0.1751  0.3301
   57c3c     C4  217   0.423   0.265   1.403 -0.6238  0.6803  0.1331
   57c3c     C5  218   0.666   0.276   1.249  0.2881 -0.4383  0.2758
   57c3c     C6  219   0.636   0.045   1.183  0.1644 -0.2794  0.2193
   57c3c     H1  220   0.724   0.143   1.449 -0.1198  0.9797  0.0816
   57c3c     H2  221   0.605   0.013   1.453 -1.6829  0.2284 -1.3960
   57c3c     H3  222   0.423   0.230   1.188  2.8641 -0.2897 -1.2622
   57c3c     H4  223   0.397   0.083   1.283  1.6208 -0.7556 -1.6520
   57c3c     H5  224   0.592   0.294   1.550 -0.4037 -0.7035  1.8908
   57c3c     H6  225   0.491   0.164   1.597 -2.2444  0.8895 -0.0807
   57c3c     H7  226   0.437   0.371   1.381  2.4402 -0.0979 -2.0552
   57c3c     H8  227   0.322   0.242   1.435 -0.2125 -0.3758  0.7073
   57c3c     H9  228   0.773   0.258   1.256  0.2871  0.1395  1.9513
   57c3c    H10  229   0.634   0.309   1.150  1.9725  0.2708 -0.0519
   57c3c    H11  230   0.653   0.355   1.323  1.3497  1.8530 -1.8816
   57c3c    H12  231   0.618   0.077   1.080 -0.6946 -1.8918 -0.1607
   57c3c    H13  232   0.741   0.021   1.202  0.0901  0.4398  1.6035
   57c3c     C7  233   0.568  -0.097   1.201  0.0272 -0.2250  0.2247
   57c3c    H14  234   0.461  -0.093   1.179 -0.4494 -3.1968  1.7970
   57c3c    H15  235   0.582  -0.144   1.298 -0.1655 -0.1990  0.2649
   57c3c     C8  236   0.620  -0.181   1.084  0.3626  0.7097  0.4416
   57c3c    H16  237   0.723  -0.210   1.104  0.0477  0.1378  1.2575
   57c3c    H17  238   0.620  -0.119   0.994  0.7226  1.3792  0.8935
   57c3c    H18  239   0.564  -0.274   1.079  0.5029  0.6132  0.6488
   58c3c      N  240   1.819   2.334   0.132 -0.6055 -0.4259 -0.2261
   58c3c     C1  241   1.762   2.468   0.134 -0.3206 -0.1173 -0.2568
   58c3c     C2  242   1.965   2.357   0.158  0.2712  0.3690  0.9903
   58c3c     C3  243   1.832   2.536   0.248 -0.2594 -0.6917  0.2187
   58c3c     C4  244   1.964   2.464   0.270  0.2942 -0.1948  0.3676
   58c3c     C5  245   1.758   2.254   0.238  0.3067  0.7974  0.0296
   58c3c     C6  246   1.802   2.256   0.008  0.4216 -0.2586 -0.6671
   58c3c     H1  247   1.654   2.478   0.144 -0.3481  1.8480 -2.1012
   58c3c     H2  248   1.793   2.528   0.049 -0.5081  0.2151 -0.0888
   58c3c     H3  249   2.014   2.262   0.174 -1.7390 -1.0853 -1.1619
   58c3c     H4  250   2.000   2.407   0.067  1.8897  1.7425  2.3389
   58c3c     H5  251   1.775   2.537   0.341  0.5479  0.1338  0.7188
   58c3c     H6  252   1.833   2.645   0.237 -0.8870 -0.7552 -0.5046
   58c3c     H7  253   1.971   2.407   0.363 -1.4824 -0.8806  0.0963
   58c3c     H8  254   2.051   2.529   0.260 -0.9499  1.1251 -2.1892
   58c3c     H9  255   1.652   2.253   0.213  0.3262  0.0535 -0.0564
   58c3c    H10  256   1.797   2.152   0.249  0.9102  0.9300 -0.8300
   58c3c    H11  257   1.765   2.288   0.341 -0.1989 -1.3812  0.8100
   58c3c    H12  258   1.860   2.164   0.018 -0.3393 -0.8411 -1.5484
   58c3c    H13  259   1.704   2.208   0.002  0.0239  0.4475  0.0937
   58c3c     C7  260   1.851   2.320  -0.128 -0.0276 -0.5242  0.4925
   58c3c    H14  261   1.960   2.326  -0.137 -0.0255 -0.9692  0.2052
   58c3c    H15  262   1.811   2.421  -0.138 -0.3396 -0.6097  0.8674
   58c3c     C8  263   1.793   2.226  -0.243  0.4932 -0.1455 -0.0983
   58c3c    H16  264   1.830   2.244  -0.343  1.9275 -0.4970  0.3596
   58c3c    H17  265   1.684   2.228  -0.250  0.4698 -0.5404  0.1352
   58c3c    H18  266   1.813   2.121  -0.223  2.3902  0.3404  0.6246
   59c3c      N  267   1.268   0.002   2.144 -0.5136  0.3697  0.2286
   59c3c     C1  268   1.339  -0.053   2.264  0.7175 -0.7141  0.2017
   59c3c     C2  269   1.312   0.144   2.132  0.2869 -0.4648  0.2438
   59c3c     C3  270   1.467   0.029   2.275  0.4343 -0.6098 -0.4821
   59c3c     C4  271   1.458   0.144   2.171  0.3811 -0.2866 -0.1359
   59c3c     C5  272   1.324  -0.075   2.027 -0.5699  0.6378  0.2827
   59c3c     C6  273   1.123  -0.005   2.146 -0.1290 -0.4507  0.0884
   59c3c     H1  274   1.348  -0.162   2.269 -2.3372 -0.9793  0.5026
   59c3c     H2  275   1.277  -0.039   2.352  0.1579  0.3668 -0.3606
   59c3c     H3  276   1.288   0.198   2.040  0.3386  2.0701  1.6577
   59c3c     H4  277   1.261   0.198   2.212 -1.6079 -0.2150 -1.0932
   59c3c     H5  278   1.548  -0.035   2.240  1.3570  0.4203 -0.2933
   59c3c     H6  279   1.472   0.056   2.380  1.1465  0.1214 -0.6935
   59c3c     H7  280   1.526   0.122   2.089  0.3273  1.1252 -0.5710
   59c3c     H8  281   1.499   0.236   2.212  0.8053 -0.5365  0.0091
   59c3c     H9  282   1.281  -0.174   2.010 -2.4469  1.5364 -0.2588
   59c3c    H10  283   1.295  -0.023   1.935  0.2071  0.9789  0.2198
   59c3c    H11  284   1.432  -0.089   2.032 -0.3500  2.0769 -0.0971
   59c3c    H12  285   1.085   0.059   2.067  1.1630  1.6147  1.1050
   59c3c    H13  286   1.090  -0.108   2.130  1.9270 -0.9233 -1.2569
   59c3c     C7  287   1.037   0.044   2.267  0.1443  0.7088  0.6987
   59c3c    H14  288   1.069   0.141   2.306 -0.8010  0.8012  1.2916
   59c3c    H15  289   1.034  -0.034   2.344 -1.5934 -1.0899 -1.1242
   59c3c     C8  290   0.883   0.049   2.232 -0.3308 -0.0358  0.1112
   59c3c    H16  291   0.859   0.126   2.158  1.3286  0.5518  0.1641
   59c3c    H17  292   0.824   0.065   2.322 -3.0585  1.2431 -1.7956
   59c3c    H18  293   0.842  -0.045   2.196  2.4903 -2.1880  2.2965
   60c3c      N  294   1.557   0.296   1.362 -0.4913 -0.0548  0.2583
   60c3c     C1  295   1.610   0.170   1.294 -0.7486 -0.0573 -0.2599
   60c3c     C2  296   1.674   0.385   1.345 -0.3617 -0.3049 -0.0654
   60c3c     C3  297   1.693   0.211   1.177 -0.2302  0.6690  0.6189
   60c3c     C4  298   1.733   0.356   1.202  0.2032 -0.1255  0.2987
   60c3c     C5  299   1.441   0.345   1.284 -0.2616  0.3396  0.6310
   60c3c     C6  300   1.511   0.269   1.501  0.6066 -0.0557  0.4943
   60c3c     H1  301   1.534   0.094   1.279 -0.4654 -0.0376 -1.8110
   60c3c     H2  302   1.682   0.134   1.368  0.9817 -2.1940 -2.8999
   60c3c     H3  303   1.642   0.486   1.372  0.0804  0.4812 -2.4444
   60c3c     H4  304   1.753   0.360   1.416  0.4886 -0.2286 -0.9733
   60c3c     H5  305   1.666   0.195   1.072  2.2517  0.2323  0.0175
   60c3c     H6  306   1.784   0.153   1.190 -0.9772 -0.1348  2.4480
   60c3c     H7  307   1.692   0.423   1.127 -0.4789 -0.4036  0.4142
   60c3c     H8  308   1.841   0.364   1.190  0.2882  0.4762  1.3752
   60c3c     H9  309   1.355   0.278   1.283  1.0995 -1.4317  0.7199
   60c3c    H10  310   1.406   0.445   1.312 -2.4633 -0.3798  0.5505
   60c3c    H11  311   1.472   0.361   1.181  1.3970  0.9180  1.2089
   60c3c    H12  312   1.466   0.363   1.531  0.5719  0.2060 -0.3709
   60c3c    H13  313   1.427   0.202   1.479  2.4019 -2.2659  0.0878
   60c3c     C7  314   1.610   0.227   1.614 -0.6999  0.3080 -0.4368
   60c3c    H14  315   1.676   0.307   1.646  0.0295 -0.1935 -0.6949
   60c3c    H15  316   1.683   0.154   1.582 -0.4052  0.2387  0.3659
   60c3c     C8  317   1.546   0.177   1.737  0.1280  0.3666 -0.0243
   60c3c    H16  318   1.626   0.163   1.810 -0.6846  1.5106  1.1167
   60c3c    H17  319   1.502   0.080   1.715  0.1283  0.7104 -1.6346
   60c3c    H18  320   1.458   0.236   1.762  0.7628  1.7643 -1.0255
   61c3c      N  321   2.519   2.240   2.468 -0.5715 -0.6176  0.3135
   61c3c     C1  322   2.609   2.118   2.473 -0.0288 -0.2521  0.4492
   61c3c     C2  323   2.505   2.269   2.613  0.1867 -0.0231  0.5287
   61c3c     C3  324   2.709   2.147   2.593 -0.3594  0.1595 -0.1079
   61c3c     C4  325   2.650   2.266   2.666 -0.2832 -0.9348 -0.4533
   61c3c     C5  326   2.585   2.343   2.391 -0.6708  0.2098 -0.2892
   61c3c     C6  327   2.384   2.207   2.404  0.1208  0.8075  0.1350
   61c3c     H1  328   2.666   2.107   2.381  2.6145 -1.5078  2.1482
   61c3c     H2  329   2.559   2.025   2.499 -1.8458  0.0619 -1.7999
   61c3c     H3  330   2.465   2.367   2.639 -1.4954 -0.4388 -0.4623
   61c3c     H4  331   2.446   2.196   2.668  1.0969 -1.3313 -0.1932
   61c3c     H5  332   2.809   2.178   2.562 -0.3892 -1.3642 -1.7724
   61c3c     H6  333   2.721   2.069   2.668  0.8383  1.1400  0.7420
   61c3c     H7  334   2.698   2.360   2.638  0.8132 -1.0077  1.1553
   61c3c     H8  335   2.645   2.254   2.774  0.7472  0.5197 -0.2202
   61c3c     H9  336   2.592   2.325   2.284  1.1957 -5.3710  0.6388
   61c3c    H10  337   2.525   2.431   2.414  2.0981  1.7769  1.2118
   61c3c    H11  338   2.684   2.368   2.430  0.1798  0.0350 -2.2595
   61c3c    H12  339   2.328   2.298   2.381 -2.9526 -1.0150  0.1180
   61c3c    H13  340   2.411   2.155   2.312  3.0966 -0.0808  1.4578
   61c3c     C7  341   2.283   2.126   2.481 -0.2698 -0.8535 -0.0775
   61c3c    H14  342   2.252   2.183   2.569 -1.1444 -0.5778 -0.5501
   61c3c    H15  343   2.336   2.041   2.523  2.6675  0.9850  0.0591
   61c3c     C8  344   2.177   2.065   2.385 -0.0166 -0.4412 -0.2625
   61c3c    H16  345   2.213   1.970   2.344  2.0905  0.5900 -0.8441
   61c3c    H17  346   2.169   2.142   2.309  2.0279  0.2264  0.1798
   61c3c    H18  347   2.079   2.056   2.432 -0.8714  0.0022 -1.9368
   62c3c      N  348   1.785   0.764   1.755  0.4233  0.1813 -0.4160
   62c3c     C1  349   1.866   0.644   1.755  0.4628 -0.5600 -0.2888
   62c3c     C2  350   1.722   0.768   1.890  0.4417  0.0925  0.0162
   62c3c     C3  351   1.936   0.647   1.888  0.8803  0.2989 -0.2129
   62c3c     C4  352   1.828   0.711   1.987  0.0247  0.6296  0.7351
   62c3c     C5  353   1.869   0.885   1.733 -0.9166  0.0661 -0.0667
   62c3c     C6  354   1.685   0.771   1.647  0.6373  0.1411  0.2640
   62c3c     H1  355   1.939   0.640   1.673  1.0963 -1.3695  0.3004
   62c3c     H2  356   1.807   0.552   1.753  2.0078 -1.5573 -1.7913
   62c3c     H3  357   1.701   0.871   1.918  0.4228 -0.5670  2.5442
   62c3c     H4  358   1.634   0.706   1.911  0.6483 -1.0676 -2.4198
   62c3c     H5  359   2.034   0.694   1.876  2.0720 -0.3644  5.3756
   62c3c     H6  360   1.974   0.547   1.907  1.3603  0.6169  0.5401
   62c3c     H7  361   1.879   0.788   2.044  0.3658  3.7890 -3.5776
   62c3c     H8  362   1.793   0.621   2.036  0.1281  0.1056 -0.1325
   62c3c     H9  363   1.924   0.876   1.639  0.0164  2.6335  0.1822
   62c3c    H10  364   1.821   0.982   1.721  0.1592  0.4269 -1.6763
   62c3c    H11  365   1.949   0.896   1.807  0.9745 -0.8534 -1.9208
   62c3c    H12  366   1.633   0.867   1.646 -0.2514 -0.3011 -2.8917
   62c3c    H13  367   1.741   0.763   1.553 -0.3836 -0.1739 -0.3267
   62c3c     C7  368   1.581   0.659   1.636 -0.2021  0.0353 -0.7217
   62c3c    H14  369   1.532   0.637   1.730  0.0170  0.2911 -0.5473
   62c3c    H15  370   1.635   0.567   1.614 -1.3310 -1.7873  3.6091
   62c3c     C8  371   1.483   0.684   1.526 -0.4975  0.0887 -0.2889
   62c3c    H16  372   1.534   0.697   1.431  0.2595 -1.1356 -0.0685
   62c3c    H17  373   1.430   0.773   1.559 -0.8971 -0.5079  0.7038
   62c3c    H18  374   1.419   0.597   1.510 -0.5199  0.1271 -0.4059
   63c3c      N  375   1.715   1.800   2.764 -0.1244 -0.2398  0.1438
   63c3c     C1  376   1.711   1.937   2.714  0.6424  0.0193 -0.7695
   63c3c     C2  377   1.708   1.718   2.643  0.6326  0.0802 -0.3361
   63c3c     C3  378   1.805   1.931   2.584  0.2953 -0.6514  0.2089
   63c3c     C4  379   1.793   1.785   2.537 -0.0681 -0.6573 -0.1371
   63c3c     C5  380   1.845   1.765   2.831 -0.2846  0.2167 -0.0904
   63c3c     C6  381   1.597   1.762   2.851  0.6352 -0.3535  0.5103
   63c3c     H1  382   1.757   2.004   2.787 -0.3933  0.5312 -0.5780
   63c3c     H2  383   1.609   1.971   2.700  1.0152  2.1827  1.4273
   63c3c     H3  384   1.757   1.622   2.663  2.2443  0.2079 -3.3213
   63c3c     H4  385   1.608   1.691   2.611  1.1432 -2.5535  0.1415
   63c3c     H5  386   1.908   1.941   2.620  1.1233 -2.0752 -1.6480
   63c3c     H6  387   1.791   2.006   2.507  1.1950 -3.8278 -3.1945
   63c3c     H7  388   1.891   1.741   2.522  0.8793  1.3140  0.1367
   63c3c     H8  389   1.745   1.776   2.439  0.4407 -2.0191 -0.2766
   63c3c     H9  390   1.867   1.837   2.910  1.8819  0.1014 -0.5445
   63c3c    H10  391   1.828   1.664   2.868  1.1478 -0.7789 -2.0391
   63c3c    H11  392   1.925   1.770   2.757  2.5112 -1.7726  2.6348
   63c3c    H12  393   1.605   1.655   2.871  1.9261 -0.7155 -1.7611
   63c3c    H13  394   1.607   1.813   2.946  0.7882  0.7573 -0.0925
   63c3c     C7  395   1.454   1.777   2.797  1.0471  0.3102 -0.9579
   63c3c    H14  396   1.425   1.701   2.724  0.3152  1.3504 -1.7726
   63c3c    H15  397   1.424   1.870   2.749  1.8082  0.1874 -1.6800
   63c3c     C8  398   1.360   1.760   2.919 -0.3058 -0.0021  0.4323
   63c3c    H16  399   1.365   1.843   2.989  2.3175  0.2126  0.0585
   63c3c    H17  400   1.384   1.669   2.975  0.4461  0.7494  1.3530
   63c3c    H18  401   1.265   1.745   2.869  0.4453 -2.7824 -0.2832
   64c3c      N  402   2.770   1.964   1.560  0.0706  0.2151  0.0769
   64c3c     C1  403   2.776   2.040   1.685  0.5342 -0.0287 -0.0686
   64c3c     C2  404   2.777   2.075   1.453 -0.7792 -0.1684 -0.7902
   64c3c     C3  405   2.881   2.152   1.660 -0.3051  0.4173  0.6139
   64c3c     C4  406   2.848   2.190   1.514 -0.0511  0.2575 -0.7506
   64c3c     C5  407   2.884   1.880   1.543 -0.0757 -0.4732 -0.1941
   64c3c     C6  408   2.649   1.882   1.539 -0.0482  0.8951  0.6093
   64c3c     H1  409   2.812   1.989   1.774 -0.9617  1.9887  1.7452
   64c3c     H2  410   2.684   2.094   1.704  1.2524  1.5594 -1.0192
   64c3c     H3  411   2.823   2.037   1.362  1.4332 -2.7013  1.3069
   64c3c     H4  412   2.678   2.103   1.417 -0.4211 -0.4311 -1.9803
   64c3c     H5  413   2.987   2.129   1.656 -0.4036  0.2683 -2.4508
   64c3c     H6  414   2.867   2.232   1.732 -1.9421  1.0319 -0.3389
   64c3c     H7  415   2.938   2.211   1.457  0.9426 -2.3024 -0.1803
   64c3c     H8  416   2.783   2.277   1.506 -1.6976 -0.9581 -0.8885
   64c3c     H9  417   2.894   1.813   1.628 -0.9989  0.3021  0.5419
   64c3c    H10  418   2.890   1.822   1.451  1.2798  1.5148 -1.3991
   64c3c    H11  419   2.975   1.940   1.538 -1.1283  1.1790  0.1057
   64c3c    H12  420   2.659   1.816   1.453 -3.3969  0.2473  0.6641
   64c3c    H13  421   2.639   1.817   1.626 -2.7163 -0.6636 -0.7943
   64c3c     C7  422   2.511   1.952   1.542 -0.4434  0.2280 -0.0171
   64c3c    H14  423   2.503   2.034   1.469  1.7368  0.6569  0.1918
   64c3c    H15  424   2.516   2.005   1.637  0.9693 -0.2417  0.1762
   64c3c     C8  425   2.381   1.872   1.541  0.7635  0.1328  0.0582
   64c3c    H16  426   2.302   1.946   1.553 -0.2688 -0.8568 -0.4812
   64c3c    H17  427   2.372   1.804   1.626  1.4037  0.2674  0.2339
   64c3c    H18  428   2.382   1.825   1.442  0.4194 -0.8773  0.5206
   65c3c      N  429   2.694   2.563   1.210  0.0288 -0.4849  0.2738
   65c3c     C1  430   2.673   2.533   1.355 -0.5382 -0.3869 -0.1048
   65c3c     C2  431   2.559   2.545   1.166  0.4818  0.3426  0.0120
   65c3c     C3  432   2.554   2.616   1.391 -1.0002  0.6498  0.3841
   65c3c     C4  433   2.468   2.616   1.263 -0.2180  0.2117  0.1754
   65c3c     C5  434   2.735   2.702   1.187  0.0379 -0.5339 -0.1574
   65c3c     C6  435   2.796   2.480   1.146  0.0602  0.1202  0.2954
   65c3c     H1  436   2.760   2.566   1.413  0.5919 -1.5758 -1.0970
   65c3c     H2  437   2.653   2.432   1.388 -0.4402 -0.0784  0.9065
   65c3c     H3  438   2.542   2.582   1.065  1.4361  0.4818 -0.1088
   65c3c     H4  439   2.534   2.439   1.163 -0.5287  0.5630  0.4297
   65c3c     H5  440   2.574   2.722   1.404 -0.9361  0.2812  3.9340
   65c3c     H6  441   2.490   2.576   1.470  0.0532 -1.9323 -0.0208
   65c3c     H7  442   2.425   2.713   1.240 -1.9209 -0.7759 -0.8896
   65c3c     H8  443   2.395   2.536   1.276  1.7355 -1.9941 -1.8912
   65c3c     H9  444   2.836   2.713   1.229 -0.4840 -2.2132  1.6083
   65c3c    H10  445   2.734   2.721   1.080 -0.1086  1.1441  0.1318
   65c3c    H11  446   2.672   2.778   1.234  0.0419  0.2544 -1.4108
   65c3c    H12  447   2.811   2.513   1.043 -0.0967  1.5514  0.7119
   65c3c    H13  448   2.897   2.491   1.187  0.2609 -0.9769  0.1054
   65c3c     C7  449   2.765   2.332   1.149  0.4479 -0.0972  0.6129
   65c3c    H14  450   2.675   2.326   1.087  2.0916  0.1817 -1.8685
   65c3c    H15  451   2.742   2.298   1.250  0.0289 -1.8321 -0.0553
   65c3c     C8  452   2.882   2.250   1.095 -0.3397 -0.3243  0.6936
   65c3c    H16  453   2.978   2.289   1.129 -0.2429 -1.6338  1.9930
   65c3c    H17  454   2.902   2.266   0.989  0.3713 -2.6812  0.4327
   65c3c    H18  455   2.864   2.143   1.103 -1.1850 -0.3115 -0.9123
   66c3c      N  456   1.262   3.157   0.285  0.5139  0.3684  0.0131
   66c3c     C1  457   1.346   3.281   0.302  0.0833  0.7609  0.4667
   66c3c     C2  458   1.339   3.052   0.351  0.4857  0.4504 -0.2328
   66c3c     C3  459   1.402   3.270   0.443 -0.3120  1.2174  0.1487
   66c3c     C4  460   1.392   3.120   0.480 -0.3881  0.6589  0.1545
   66c3c     C5  461   1.127   3.168   0.346 -0.4304 -0.5096 -0.2799
   66c3c     C6  462   1.227   3.123   0.144 -0.0423  0.4893  0.8506
   66c3c     H1  463   1.304   3.379   0.279 -1.2777  0.3297  1.0785
   66c3c     H2  464   1.432   3.271   0.235  1.2010  2.1474  1.6807
   66c3c     H3  465   1.280   2.963   0.371  0.6829  0.7015  1.4992
   66c3c     H4  466   1.426   3.011   0.299 -1.8863 -1.6658 -2.7059
   66c3c     H5  467   1.340   3.328   0.511 -1.2458  0.5478 -0.1260
   66c3c     H6  468   1.506   3.304   0.450 -0.0050 -0.0818  2.5210
   66c3c     H7  469   1.329   3.101   0.567  0.4565  0.7643  0.7931
   66c3c     H8  470   1.486   3.076   0.514 -0.4987  1.7064  1.8549
   66c3c     H9  471   1.060   3.233   0.290  0.9183  0.6301 -0.5926
   66c3c    H10  472   1.076   3.073   0.358  0.2486 -0.8171  0.2519
   66c3c    H11  473   1.142   3.198   0.449  0.5262  3.2614 -1.4435
   66c3c    H12  474   1.171   3.029   0.142  0.8876 -0.0564 -2.2206
   66c3c    H13  475   1.168   3.203   0.099  0.3484  1.1945  1.5823
   66c3c     C7  476   1.336   3.103   0.043 -0.4479 -0.2017 -0.8666
   66c3c    H14  477   1.400   3.022   0.078  1.3990  1.4611 -0.2861
   66c3c    H15  478   1.396   3.191   0.019  2.0727 -1.3212  1.0922
   66c3c     C8  479   1.273   3.068  -0.093  0.1938  0.5489 -0.0772
   66c3c    H16  480   1.232   3.163  -0.127 -2.1888 -1.0668 -1.8886
   66c3c    H17  481   1.192   2.995  -0.097  1.8653 -1.2454 -2.2672
   66c3c    H18  482   1.352   3.045  -0.165  1.2705 -0.1134  1.2788
   67c3c      N  483   0.115   3.157   3.156  0.6460  0.2962  0.0341
   67c3c     C1  484   0.019   3.242   3.087 -0.6307 -0.9066 -0.4339
   67c3c     C2  485   0.039   3.028   3.173  0.2356 -0.3360 -0.5190
   67c3c     C3  486  -0.046   3.145   2.983  0.7118  0.0206  0.2903
   67c3c     C4  487  -0.029   3.004   3.040  0.1469  0.4997  0.0810
   67c3c     C5  488   0.234   3.136   3.071 -0.0187 -0.0956 -0.6308
   67c3c     C6  489   0.170   3.233   3.273 -0.3833 -0.0220  0.1000
   67c3c     H1  490   0.058   3.336   3.047  0.2015 -0.8651  0.4340
   67c3c     H2  491  -0.059   3.275   3.155  1.8424  1.6726  1.2894
   67c3c     H3  492   0.112   2.950   3.193 -0.6649 -0.9589  0.3622
   67c3c     H4  493  -0.034   3.037   3.253 -1.0685  0.4052 -1.7480
   67c3c     H5  494  -0.005   3.143   2.882 -1.5525 -0.8406 -0.6359
   67c3c     H6  495  -0.151   3.166   2.965  0.5768 -0.7572  0.1382
   67c3c     H7  496   0.032   2.952   2.966 -1.1430 -0.9075 -0.0231
   67c3c     H8  497  -0.122   2.948   3.047  1.3856 -1.5927  0.2706
   67c3c     H9  498   0.286   3.231   3.054 -2.5753  1.4278 -0.1529
   67c3c    H10  499   0.308   3.077   3.124  0.0859  0.8411  0.2851
   67c3c    H11  500   0.220   3.093   2.972 -0.0913  0.1896 -0.7458
   67c3c    H12  501   0.239   3.165   3.322  0.8709 -0.7649 -2.6157
   67c3c    H13  502   0.225   3.327   3.261 -1.1299  0.5655  1.1886
   67c3c     C7  503   0.062   3.268   3.387  0.4295  0.1584  0.8736
   67c3c    H14  504   0.001   3.180   3.409  1.4407 -0.7923 -0.0397
   67c3c    H15  505  -0.014   3.340   3.357 -0.2760 -1.0074 -0.1831
   67c3c     C8  506   0.117   3.324   3.520  0.0460 -0.7374 -0.0367
   67c3c    H16  507   0.039   3.324   3.596 -1.9784 -0.8004 -2.0695
   67c3c    H17  508   0.155   3.425   3.511 -3.2297  0.4006 -2.0033
   67c3c    H18  509   0.201   3.264   3.555 -0.2503 -1.4201 -0.4750
   68c3c      N  510   3.184   3.134   2.248  0.4309 -0.0420  0.2734
   68c3c     C1  511   3.317   3.088   2.298  0.3329 -0.1594 -0.6494
   68c3c     C2  512   3.095   3.150   2.361  0.0225 -0.1594  0.4354
   68c3c     C3  513   3.324   3.168   2.431  0.3162 -0.0628 -0.3443
   68c3c     C4  514   3.183   3.224   2.457  0.6765 -0.5078 -0.3629
   68c3c     C5  515   3.202   3.260   2.176  0.2973  0.0687 -0.0942
   68c3c     C6  516   3.129   3.040   2.149 -1.2433 -0.3710  0.7516
   68c3c     H1  517   3.401   3.103   2.230  0.6534 -2.4309 -0.7859
   68c3c     H2  518   3.320   2.985   2.332  0.4110  0.0778  0.0672
   68c3c     H3  519   2.998   3.194   2.336 -0.2327 -0.9920 -0.0537
   68c3c     H4  520   3.080   3.053   2.409  0.0373 -0.3035  0.1495
   68c3c     H5  521   3.395   3.249   2.413 -0.6296  1.4644  2.4567
   68c3c     H6  522   3.350   3.099   2.512 -0.7484 -2.2833 -1.8572
   68c3c     H7  523   3.190   3.333   2.449 -0.2080 -0.3643  0.6755
   68c3c     H8  524   3.154   3.201   2.560 -1.6941  1.4170 -0.5499
   68c3c     H9  525   3.275   3.261   2.095 -0.0545  1.0146 -0.4021
   68c3c    H10  526   3.106   3.294   2.136 -1.2042  1.2324  4.2233
   68c3c    H11  527   3.231   3.348   2.233  2.7593 -0.7869  0.0080
   68c3c    H12  528   3.043   3.072   2.090 -0.1363 -0.1374 -0.7671
   68c3c    H13  529   3.205   3.012   2.076 -0.5883  0.6712  1.0238
   68c3c     C7  530   3.088   2.900   2.212  0.3746 -0.2239  0.0212
   68c3c    H14  531   2.997   2.916   2.269  0.5255  0.2927  0.1127
   68c3c    H15  532   3.167   2.860   2.275  2.4137  3.6037  0.0091
   68c3c     C8  533   3.072   2.795   2.108  0.0524  0.1999  0.3464
   68c3c    H16  534   3.058   2.698   2.157  1.0984 -0.6976 -1.0823
   68c3c    H17  535   3.153   2.794   2.035 -0.5793  1.6119 -0.3928
   68c3c    H18  536   2.974   2.810   2.063  0.3450 -0.8184 -0.6649
   69c3c      N  537   2.555   2.471   0.692  0.0344  0.2469 -0.2736
   69c3c     C1  538   2.462   2.499   0.580 -0.4683  0.0970 -0.4218
   69c3c     C2  539   2.473   2.412   0.798  0.0399 -1.1265  0.2201
   69c3c     C3  540   2.370   2.377   0.569  0.4529  0.2119  0.2849
   69c3c     C4  541   2.372   2.329   0.720  0.0841  0.1751  0.3301
   69c3c     C5  542   2.655   2.377   0.643 -0.2466 -0.2227  0.0879
   69c3c     C6  543   2.627   2.589   0.740 -0.1596 -0.0516  0.1193
   69c3c     H1  544   2.514   2.525   0.488 -0.1832  0.4180 -0.1745
   69c3c     H2  545   2.403   2.582   0.618  0.8675  0.6198  0.5859
   69c3c     H3  546   2.531   2.365   0.877  2.4933  2.5930  0.7443
   69c3c     H4  547   2.424   2.494   0.849 -0.3379  0.6316 -2.8396
   69c3c     H5  548   2.397   2.306   0.491 -0.5357  1.2222 -1.0085
   69c3c     H6  549   2.267   2.406   0.546  0.5506  0.0876 -0.2975
   69c3c     H7  550   2.400   2.224   0.709 -1.5595 -0.0793 -1.6881
   69c3c     H8  551   2.278   2.323   0.774 -1.5670  0.8892 -2.3770
   69c3c     H9  552   2.700   2.417   0.553  1.3357 -1.0496  0.4971
   69c3c    H10  553   2.738   2.352   0.709 -0.1840  0.8065  0.4006
   69c3c    H11  554   2.609   2.285   0.606  0.2827 -0.1791 -0.6870
   69c3c    H12  555   2.690   2.562   0.825  1.2359 -0.6583 -1.0810
   69c3c    H13  556   2.693   2.623   0.660 -2.2755 -0.0428 -1.6673
   69c3c     C7  557   2.559   2.720   0.786  0.2630  0.2362 -0.5044
   69c3c    H14  558   2.499   2.692   0.872  1.5457  1.7718  0.9165
   69c3c    H15  559   2.498   2.762   0.706  1.4837  0.9917 -1.0697
   69c3c     C8  560   2.662   2.830   0.816  0.1171  0.3455 -0.1295
   69c3c    H16  561   2.749   2.792   0.870 -0.1374  1.6521  1.2097
   69c3c    H17  562   2.610   2.908   0.871 -3.1983 -0.7265 -1.6330
   69c3c    H18  563   2.704   2.863   0.720 -0.7703 -0.3515 -0.7711
   70c3c      N  564   1.203   2.480   1.016 -0.5731  0.0796 -0.0487
   70c3c     C1  565   1.271   2.486   1.147  0.3405  0.3810 -0.2391
   70c3c     C2  566   1.259   2.595   0.936 -0.2202 -0.8069 -0.1406
   70c3c     C3  567   1.409   2.548   1.125  0.4144  0.0122 -0.6569
   70c3c     C4  568   1.398   2.611   0.983  0.0193  0.3708  0.5649
   70c3c     C5  569   1.249   2.356   0.951  0.2618 -0.2088  0.6691
   70c3c     C6  570   1.057   2.475   1.024 -0.4942 -0.1922 -0.1023
   70c3c     H1  571   1.263   2.391   1.199 -1.5715  0.6634  0.0327
   70c3c     H2  572   1.216   2.549   1.217  0.1383  0.6739 -0.6557
   70c3c     H3  573   1.254   2.566   0.831 -2.3009 -1.4534  0.1251
   70c3c     H4  574   1.208   2.691   0.952  0.0571 -0.8810  1.2612
   70c3c     H5  575   1.486   2.471   1.134 -1.2403 -1.6711 -0.8211
   70c3c     H6  576   1.444   2.621   1.199 -1.0116 -0.3943  0.4465
   70c3c     H7  577   1.460   2.556   0.912 -1.7607 -0.3864 -0.4324
   70c3c     H8  578   1.432   2.714   0.990  2.2852 -0.0491 -2.8054
   70c3c     H9  579   1.200   2.266   0.988  2.0677 -1.0790  1.0061
   70c3c    H10  580   1.228   2.354   0.844 -0.8472  1.5239  0.8303
   70c3c    H11  581   1.357   2.337   0.949  0.1715 -0.7093  0.4438
   70c3c    H12  582   1.012   2.445   0.930  0.2639  1.0552 -0.8734
   70c3c    H13  583   1.023   2.396   1.091 -2.3918 -0.5320 -1.4056
   70c3c     C7  584   0.980   2.598   1.071  0.0447 -0.1593 -0.9861
   70c3c    H14  585   0.936   2.652   0.987 -0.5657  0.7563 -0.0922
   70c3c    H15  586   1.044   2.676   1.112 -0.3005 -0.1157 -0.5198
   70c3c     C8  587   0.862   2.581   1.162 -0.7639 -0.0157 -0.0045
   70c3c    H16  588   0.888   2.527   1.252 -0.8684 -0.1544 -0.0566
   70c3c    H17  589   0.780   2.522   1.121 -2.9205  4.0302 -1.7978
   70c3c    H18  590   0.802   2.669   1.185  0.6723  1.3224 -1.2504
   71c3c      N  591   2.541   0.809   1.398 -0.1341 -0.0092  0.7804
   71c3c     C1  592   2.642   0.742   1.487 -0.1214 -0.1559 -0.5928
   71c3c     C2  593   2.540   0.948   1.448 -0.4655  0.5176 -0.4795
   71c3c     C3  594   2.756   0.846   1.492  0.1372  0.1853 -0.0658
   71c3c     C4  595   2.689   0.981   1.455  0.3062  0.0882 -0.2772
   71c3c     C5  596   2.583   0.798   1.252  0.7744  0.8553  0.7254
   71c3c     C6  597   2.407   0.744   1.404 -0.5982 -0.0989 -0.0983
   71c3c     H1  598   2.665   0.647   1.440 -3.1098 -1.1202 -0.2021
   71c3c     H2  599   2.604   0.732   1.588  2.5263  0.0200  0.4408
   71c3c     H3  600   2.482   1.023   1.395  0.4013  2.5169  1.3405
   71c3c     H4  601   2.508   0.956   1.552  0.1435  1.1962 -0.3393
   71c3c     H5  602   2.837   0.820   1.423  0.7235 -0.3706  0.8222
   71c3c     H6  603   2.799   0.852   1.591 -0.1364  3.1511 -0.0987
   71c3c     H7  604   2.724   1.022   1.361 -0.6156  3.0584  0.6074
   71c3c     H8  605   2.726   1.057   1.525  2.9138  0.0399 -1.5464
   71c3c     H9  606   2.584   0.694   1.221 -1.9216  1.6094 -2.1024
   71c3c    H10  607   2.517   0.860   1.192  1.3153 -0.7179 -1.5579
   71c3c    H11  608   2.686   0.831   1.237  2.4170 -3.1333  2.5866
   71c3c    H12  609   2.341   0.808   1.345 -0.7170 -0.1855 -0.0588
   71c3c    H13  610   2.413   0.648   1.353 -0.9668 -0.7044  0.9962
   71c3c     C7  611   2.350   0.712   1.542 -0.3037  0.1818  0.1888
   71c3c    H14  612   2.378   0.783   1.619  0.8254 -1.1123  0.9895
   71c3c    H15  613   2.400   0.620   1.573 -0.3496 -0.5501 -1.7985
   71c3c     C8  614   2.199   0.689   1.544 -0.5640 -0.2529  0.4741
   71c3c    H16  615   2.169   0.606   1.479 -0.2335  0.5324 -0.7049
   71c3c    H17  616   2.144   0.775   1.507  3.4028  0.3651 -4.6079
   71c3c    H18  617   2.176   0.667   1.648 -2.0696 -2.8022 -0.3382
   72c3c      N  618   1.805   0.586   3.137 -0.2349  0.0210  0.0077
   72c3c     C1  619   1.771   0.478   3.048 -0.0280 -0.0930 -0.1753
   72c3c     C2  620   1.698   0.583   3.241  0.4152  0.5573 -0.2239
   72c3c     C3  621   1.730   0.364   3.148 -0.1372 -0.1552 -0.1296
   72c3c     C4  622   1.681   0.441   3.272 -0.1822 -0.2347  0.4936
   72c3c     C5  623   1.938   0.559   3.195  0.1135 -0.1937  0.3635
   72c3c     C6  624   1.826   0.718   3.073 -0.0637  0.2106 -0.3721
   72c3c     H1  625   1.848   0.446   2.978  1.3805  1.5421  0.5862
   72c3c     H2  626   1.678   0.509   3.000 -0.9271 -1.6596  0.5150
   72c3c     H3  627   1.728   0.630   3.335 -1.8531 -1.3845  1.5394
   72c3c     H4  628   1.607   0.623   3.195 -0.5089  0.1993  1.2370
   72c3c     H5  629   1.813   0.297   3.167 -2.1917 -2.1492  2.1390
   72c3c     H6  630   1.650   0.309   3.098 -1.2204  0.0245  1.3674
   72c3c     H7  631   1.733   0.408   3.362 -2.3915 -0.3208  1.7940
   72c3c     H8  632   1.574   0.420   3.275 -0.0654 -1.1699 -1.3237
   72c3c     H9  633   2.018   0.551   3.121  0.1690 -1.3461  0.5453
   72c3c    H10  634   1.964   0.633   3.272 -0.6746  1.2633 -0.7402
   72c3c    H11  635   1.938   0.469   3.256  1.2742 -2.1229 -2.4309
   72c3c    H12  636   1.830   0.794   3.151 -2.5418 -0.4179  0.4300
   72c3c    H13  637   1.916   0.720   3.011  1.6992 -2.6640  1.9490
   72c3c     C7  638   1.706   0.756   2.980 -0.0616  0.4392 -0.0956
   72c3c    H14  639   1.618   0.775   3.041  0.5637  1.5217  0.4898
   72c3c    H15  640   1.686   0.680   2.904  1.9322  1.8628 -2.1271
   72c3c     C8  641   1.740   0.892   2.906  0.3412  1.0317  0.1749
   72c3c    H16  642   1.738   0.965   2.986 -2.2215 -0.0140  1.1213
   72c3c    H17  643   1.666   0.920   2.832  1.4629  1.9647 -0.6178
   72c3c    H18  644   1.839   0.888   2.859  0.5503 -0.8797  0.7128
   73c3c      N  645   2.487   2.094   3.245 -0.1251  0.5995  0.0709
   73c3c     C1  646   2.591   2.154   3.158  0.2596  0.0737  0.4033
   73c3c     C2  647   2.391   2.042   3.145  0.6406  0.9147  0.0525
   73c3c     C3  648   2.526   2.202   3.029  0.2069 -0.0867  0.8409
   73c3c     C4  649   2.386   2.151   3.034  0.1300  0.0223  0.4747
   73c3c     C5  650   2.550   1.986   3.326  0.3076 -0.3270  0.4553
   73c3c     C6  651   2.439   2.192   3.343  0.0086  0.1840  0.5536
   73c3c     H1  652   2.661   2.075   3.128 -0.0703 -0.3116  0.6500
   73c3c     H2  653   2.636   2.247   3.192 -2.1851  2.5599 -2.8478
   73c3c     H3  654   2.424   1.950   3.098  0.3585  2.1145 -2.5348
   73c3c     H4  655   2.291   2.020   3.185  0.0421  0.7557 -1.4937
   73c3c     H5  656   2.584   2.160   2.947  1.3429  0.6816  1.2439
   73c3c     H6  657   2.524   2.311   3.026 -1.4606 -0.1279 -1.4880
   73c3c     H7  658   2.349   2.113   2.939 -0.0379  0.6490  0.2895
   73c3c     H8  659   2.307   2.222   3.055 -1.4400 -1.6322  0.2805
   73c3c     H9  660   2.628   2.020   3.395  1.4036 -2.6522  0.4200
   73c3c    H10  661   2.473   1.922   3.371 -0.1621  2.4024  3.7542
   73c3c    H11  662   2.594   1.915   3.256 -0.1267 -1.3336  1.1848
   73c3c    H12  663   2.367   2.142   3.406  1.7975  0.9178  3.2740
   73c3c    H13  664   2.520   2.217   3.411  0.2176 -2.8880  1.4727
   73c3c     C7  665   2.367   2.324   3.309 -0.2309 -0.1238 -0.1072
   73c3c    H14  666   2.267   2.310   3.269  0.4364  1.2514 -2.3571
   73c3c    H15  667   2.429   2.382   3.241 -0.9754  0.6922 -0.0937
   73c3c     C8  668   2.364   2.418   3.431  0.7584 -0.9054  0.2414
   73c3c    H16  669   2.455   2.442   3.486 -0.8080  2.6634  1.3748
   73c3c    H17  670   2.304   2.383   3.515 -1.3365  0.7714 -0.5095
   73c3c    H18  671   2.331   2.515   3.395  0.6550 -1.2651 -0.6652
   74c3c      N  672   1.214   1.199   1.274  0.2279 -0.6168 -0.1664
   74c3c     C1  673   1.301   1.216   1.157  0.2237  0.1408  0.4735
   74c3c     C2  674   1.171   1.335   1.312  0.3786 -0.7281 -0.1571
   74c3c     C3  675   1.238   1.331   1.080  0.6145 -0.2449  0.5371
   74c3c     C4  676   1.165   1.418   1.183  0.9487  0.4528  0.8864
   74c3c     C5  677   1.095   1.122   1.230 -0.3322 -0.1918 -0.1793
   74c3c     C6  678   1.282   1.125   1.383  0.1875  0.0846 -0.3954
   74c3c     H1  679   1.314   1.119   1.108 -0.9262  0.1461  0.1350
   74c3c     H2  680   1.400   1.235   1.197  0.1222  1.2549  0.2199
   74c3c     H3  681   1.075   1.351   1.363  0.6854 -0.4188  0.3333
   74c3c     H4  682   1.240   1.389   1.376 -0.5680 -0.9567  1.0899
   74c3c     H5  683   1.177   1.286   1.001  0.1445  0.2237  0.6291
   74c3c     H6  684   1.306   1.391   1.019  0.6998 -1.2496 -0.3844
   74c3c     H7  685   1.061   1.416   1.150  1.7851  0.8687 -1.9197
   74c3c     H8  686   1.195   1.522   1.189 -1.8766  1.5237 -2.1367
   74c3c     H9  687   1.116   1.022   1.192  1.0341  0.6072 -1.5876
   74c3c    H10  688   1.016   1.114   1.305 -0.0378 -2.2461 -0.0504
   74c3c    H11  689   1.037   1.163   1.148 -0.2935  1.7231  0.7208
   74c3c    H12  690   1.212   1.083   1.455  1.4956 -1.8009 -0.1853
   74c3c    H13  691   1.332   1.039   1.339  0.8455  1.6188 -2.6874
   74c3c     C7  692   1.391   1.181   1.477 -0.9113 -0.0995 -0.6380
   74c3c    H14  693   1.348   1.270   1.522  0.4900  0.7471 -0.9816
   74c3c    H15  694   1.483   1.209   1.427 -1.1214  1.1336 -0.3485
   74c3c     C8  695   1.434   1.082   1.589 -0.0466  0.2659 -0.4463
   74c3c    H16  696   1.532   1.108   1.628  0.0089 -1.3372  0.5645
   74c3c    H17  697   1.440   0.977   1.558 -0.3247 -0.1539  0.8663
   74c3c    H18  698   1.352   1.074   1.661  0.7815 -0.4207  0.4344
   75c3c      N  699   1.916   0.620   2.511 -0.4762  0.3343 -0.7415
   75c3c     C1  700   1.830   0.603   2.396 -0.6672 -0.0608 -0.1308
   75c3c     C2  701   1.951   0.760   2.506 -0.3683 -0.2026 -0.1076
   75c3c     C3  702   1.741   0.723   2.396 -0.0955 -0.2441  0.4268
   75c3c     C4  703   1.819   0.839   2.467  0.1109  0.9017  0.2092
   75c3c     C5  704   1.855   0.589   2.641  0.3983  0.5974 -0.0347
   75c3c     C6  705   2.042   0.534   2.499 -0.0964 -0.6000 -0.3477
   75c3c     H1  706   1.788   0.503   2.407  1.0516 -0.5848  1.9583
   75c3c     H2  707   1.898   0.593   2.311  2.1551 -1.6745  2.2137
   75c3c     H3  708   1.992   0.802   2.598 -0.5802 -1.2503  0.4782
   75c3c     H4  709   2.017   0.768   2.420 -2.6628 -1.1241 -1.9931
   75c3c     H5  710   1.639   0.712   2.433 -1.7151  0.8343 -3.4614
   75c3c     H6  711   1.716   0.758   2.296  0.3238 -2.8598 -0.6231
   75c3c     H7  712   1.780   0.876   2.562  2.2516  0.2228  1.3980
   75c3c     H8  713   1.858   0.925   2.411  0.1856  1.4350  1.0624
   75c3c     H9  714   1.819   0.486   2.638  2.7841 -0.2433 -1.0418
   75c3c    H10  715   1.916   0.589   2.731  1.0601 -2.6981 -0.4137
   75c3c    H11  716   1.775   0.654   2.676  0.6553  0.0128  1.7302
   75c3c    H12  717   2.094   0.559   2.592  0.4019  1.4885 -1.1602
   75c3c    H13  718   2.025   0.427   2.511  0.9594 -0.7269  0.1254
   75c3c     C7  719   2.141   0.546   2.385  0.4257  1.1110  0.0323
   75c3c    H14  720   2.103   0.589   2.292  0.5323  2.6586  0.6887
   75c3c    H15  721   2.162   0.448   2.344  0.7311  1.5204 -0.8160
   75c3c     C8  722   2.271   0.615   2.410 -0.4082 -0.1723 -0.2780
   75c3c    H16  723   2.332   0.631   2.321  0.3082  1.3386  0.4853
   75c3c    H17  724   2.337   0.561   2.478 -1.2150 -1.0348 -0.1650
   75c3c    H18  725   2.265   0.718   2.443  3.5891  0.5593 -1.5294
   76c3c      N  726   1.877   1.310   3.217 -0.4600 -0.8547  0.2329
   76c3c     C1  727   1.951   1.189   3.218  0.5177  0.0228 -0.3635
   76c3c     C2  728   1.967   1.405   3.146  0.4254 -0.1247  0.0063
   76c3c     C3  729   2.020   1.178   3.083  0.7920  0.3824 -0.6394
   76c3c     C4  730   2.013   1.322   3.023  0.6900 -0.0370  0.1699
   76c3c     C5  731   1.759   1.285   3.133  0.1208 -0.3064  0.4537
   76c3c     C6  732   1.829   1.369   3.347  0.5892 -0.2272 -0.8926
   76c3c     H1  733   1.906   1.098   3.258 -0.7894  0.7875 -0.0951
   76c3c     H2  734   2.032   1.191   3.292 -0.1534  1.0887  0.3535
   76c3c     H3  735   1.905   1.488   3.110  0.7890 -0.4033 -1.2872
   76c3c     H4  736   2.059   1.437   3.196  0.3135 -0.0790  0.1856
   76c3c     H5  737   1.981   1.100   3.018 -2.2092  1.5432 -0.2952
   76c3c     H6  738   2.126   1.156   3.095  0.3710 -0.7345  1.1981
   76c3c     H7  739   1.940   1.329   2.942  2.0230  2.3645 -0.8797
   76c3c     H8  740   2.105   1.359   2.978  0.1203 -0.2117 -1.1469
   76c3c     H9  741   1.712   1.196   3.176  1.7273 -1.5214 -0.2393
   76c3c    H10  742   1.695   1.372   3.144  1.2195  0.6516 -0.7408
   76c3c    H11  743   1.759   1.264   3.026 -0.0918 -0.4686  0.4840
   76c3c    H12  744   1.779   1.464   3.327  0.0775 -0.4879 -0.8614
   76c3c    H13  745   1.745   1.306   3.376  0.8243 -0.3240 -0.4256
   76c3c     C7  746   1.947   1.388   3.446 -0.1837  0.0572  0.8052
   76c3c    H14  747   1.997   1.481   3.420  0.0743 -0.8090 -1.9953
   76c3c    H15  748   2.022   1.310   3.455 -1.3786 -1.1216  0.7286
   76c3c     C8  749   1.895   1.426   3.578 -0.5326 -1.0091  0.1139
   76c3c    H16  750   1.837   1.349   3.628 -2.2382  0.7670  0.9379
   76c3c    H17  751   1.839   1.519   3.584  0.7327 -0.3223  1.9202
   76c3c    H18  752   1.977   1.447   3.647 -0.1395  1.2264 -0.9656
   77c3c      N  753   2.329   1.481   2.210  0.6517 -0.0615 -0.9334
   77c3c     C1  754   2.233   1.368   2.201  0.6126  0.0430 -0.1405
   77c3c     C2  755   2.292   1.558   2.089 -0.2644 -0.2540 -0.2501
   77c3c     C3  756   2.098   1.423   2.143 -0.2333 -0.1511 -0.0381
   77c3c     C4  757   2.141   1.550   2.079  1.1469 -0.8066  0.1007
   77c3c     C5  758   2.311   1.563   2.327 -0.0317 -0.1087 -0.3815
   77c3c     C6  759   2.469   1.438   2.216  0.1211 -0.0403 -0.3566
   77c3c     H1  760   2.229   1.320   2.299 -1.0063  0.2238 -0.1072
   77c3c     H2  761   2.257   1.286   2.134  0.2727 -0.3133  0.1722
   77c3c     H3  762   2.331   1.659   2.080 -1.4709 -0.0159 -3.4739
   77c3c     H4  763   2.321   1.495   2.005  1.7123 -2.1212  1.7522
   77c3c     H5  764   2.016   1.440   2.213  0.0991 -0.3233  0.3967
   77c3c     H6  765   2.053   1.352   2.073  1.0782  0.8190 -1.9233
   77c3c     H7  766   2.092   1.636   2.124  1.3131 -0.5439 -0.2186
   77c3c     H8  767   2.126   1.575   1.974  0.1204  1.5914  0.7818
   77c3c     H9  768   2.305   1.507   2.420  2.9299  1.3683  0.7707
   77c3c    H10  769   2.381   1.643   2.354  0.2305 -0.1722 -0.8694
   77c3c    H11  770   2.218   1.620   2.316 -0.1045 -0.2929 -0.7262
   77c3c    H12  771   2.537   1.521   2.233  0.4473 -0.4050  0.1588
   77c3c    H13  772   2.481   1.370   2.301  0.7155 -0.9657 -1.1676
   77c3c     C7  773   2.534   1.362   2.090 -0.0198  0.0261 -0.3094
   77c3c    H14  774   2.515   1.423   2.002 -1.5004  1.5165  1.0246
   77c3c    H15  775   2.476   1.272   2.069 -1.3667  0.6367  0.7661
   77c3c     C8  776   2.679   1.326   2.128 -0.6874  0.5605  0.2151
   77c3c    H16  777   2.724   1.273   2.044 -3.2156 -2.3237  0.6070
   77c3c    H17  778   2.687   1.281   2.227  1.6429  0.3184 -0.0571
   77c3c    H18  779   2.740   1.415   2.138  0.4488 -0.3692  1.8508
   78c3c      N  780   2.689   0.479   3.160 -0.2948  0.5484  0.5396
   78c3c     C1  781   2.706   0.461   3.013 -0.1347 -0.1443 -0.0495
   78c3c     C2  782   2.744   0.613   3.189 -0.2516 -0.3633  0.7965
   78c3c     C3  783   2.672   0.598   2.962  0.7143  0.2521 -0.3879
   78c3c     C4  784   2.699   0.701   3.075 -0.0512  0.4775  0.3548
   78c3c     C5  785   2.547   0.464   3.184  0.3454 -0.1412  0.6003
   78c3c     C6  786   2.759   0.366   3.230  0.0513  0.4428  0.0683
   78c3c     H1  787   2.653   0.376   2.970 -0.8750  1.6864 -2.8486
   78c3c     H2  788   2.811   0.451   2.990  0.3989  1.4421  1.5284
   78c3c     H3  789   2.721   0.653   3.287 -0.0470 -0.0991  0.7384
   78c3c     H4  790   2.851   0.615   3.169 -0.5377  0.2086 -0.8105
   78c3c     H5  791   2.568   0.590   2.930  1.2495 -2.4600 -1.6164
   78c3c     H6  792   2.727   0.621   2.870  0.1191 -1.8473 -1.3051
   78c3c     H7  793   2.604   0.750   3.095 -1.1637 -0.9815 -1.1941
   78c3c     H8  794   2.776   0.775   3.053  1.7248 -1.0427  1.3176
   78c3c     H9  795   2.509   0.373   3.136  2.6112 -1.2631  0.8809
   78c3c    H10  796   2.527   0.470   3.291 -1.7681  0.5408  0.2072
   78c3c    H11  797   2.481   0.544   3.151 -0.1477 -0.6789  0.2648
   78c3c    H12  798   2.738   0.377   3.337 -0.4464 -0.1090  0.0294
   78c3c    H13  799   2.707   0.272   3.213  3.0131 -1.0122 -1.2319
   78c3c     C7  800   2.906   0.335   3.200 -0.1299 -0.0881  0.3033
   78c3c    H14  801   2.969   0.424   3.205 -0.3079 -0.0559  2.1270
   78c3c    H15  802   2.920   0.301   3.097  0.0948 -1.2071  0.6931
   78c3c     C8  803   2.953   0.228   3.300  0.0292 -0.4033  0.1860
   78c3c    H16  804   3.062   0.221   3.304  0.2548  3.0628  1.7688
   78c3c    H17  805   2.927   0.126   3.272 -0.6214 -0.0866 -0.3571
   78c3c    H18  806   2.930   0.250   3.404 -3.7285 -0.8243 -0.5070
   79c3c      N  807   0.941   0.273   2.785  0.3945 -0.2558  0.4823
   79c3c     C1  808   0.996   0.137   2.792  0.4186  0.6013 -0.5473
   79c3c     C2  809   0.833   0.270   2.883 -0.3638  0.6736 -0.2190
   79c3c     C3  810   1.006   0.090   2.935  0.2932  0.1787  0.3475
   79c3c     C4  811   0.884   0.169   2.996 -0.1888  0.5507  0.7850
   79c3c     C5  812   1.048   0.367   2.818 -0.1765  0.3216  0.0443
   79c3c     C6  813   0.883   0.294   2.652  0.6343 -0.4078  0.9556
   79c3c     H1  814   1.082   0.126   2.727  0.4628 -0.5693 -0.3104
   79c3c     H2  815   0.922   0.075   2.741  0.0851  2.0025 -1.7865
   79c3c     H3  816   0.822   0.366   2.934 -0.7758  0.0829  0.8204
   79c3c     H4  817   0.731   0.254   2.847 -0.0677 -0.4789 -0.5565
   79c3c     H5  818   1.094   0.119   2.991  0.5516 -0.4241  0.2612
   79c3c     H6  819   0.998  -0.018   2.949 -0.7660  0.3340  1.0344
   79c3c     H7  820   0.911   0.221   3.088 -1.5134  0.0943  1.4585
   79c3c     H8  821   0.806   0.098   3.025 -0.1075 -0.4580 -1.3467
   79c3c     H9  822   1.135   0.360   2.753 -0.1414 -0.7759  0.1939
   79c3c    H10  823   1.018   0.472   2.812 -0.4650  0.1834 -1.0687
   79c3c    H11  824   1.084   0.344   2.919 -2.0379  0.6862  0.8152
   79c3c    H12  825   0.848   0.396   2.637  1.8819 -0.0824  0.0989
   79c3c    H13  826   0.967   0.287   2.582  0.8171  0.9280  1.0405
   79c3c     C7  827   0.774   0.198   2.593 -0.1697 -0.7425  0.4838
   79c3c    H14  828   0.678   0.188   2.643  0.6063  0.1787  2.1634
   79c3c    H15  829   0.824   0.106   2.562  2.8985  0.3531  2.0448
   79c3c     C8  830   0.726   0.265   2.466  0.2866  0.3618  0.2141
   79c3c    H16  831   0.801   0.302   2.397 -1.1466  0.7204 -1.1651
   79c3c    H17  832   0.656   0.346   2.485  0.5262  0.6055  0.0604
   79c3c    H18  833   0.672   0.178   2.428  2.5291 -0.6501 -0.7873
   80c3c      N  834   3.105   1.879   0.800 -0.4669  0.0841  0.2388
   80c3c     C1  835   3.154   1.797   0.687 -0.0538  0.2281 -0.1080
   80c3c     C2  836   3.225   1.926   0.874  0.1891  0.4907  0.4519
   80c3c     C3  837   3.280   1.732   0.733 -0.7485 -0.6544 -0.3792
   80c3c     C4  838   3.327   1.807   0.854  0.3641 -0.1450  0.4463
   80c3c     C5  839   3.034   1.995   0.746  0.0762 -0.1111 -0.3403
   80c3c     C6  840   3.014   1.817   0.897  0.3485  0.6497 -0.5718
   80c3c     H1  841   3.170   1.864   0.602  0.2000  0.7086  0.3140
   80c3c     H2  842   3.075   1.730   0.655  1.4484 -1.5568 -0.1690
   80c3c     H3  843   3.274   2.012   0.829  1.4401 -0.0678  0.7091
   80c3c     H4  844   3.216   1.956   0.978 -2.2703 -1.2830  0.7832
   80c3c     H5  845   3.349   1.735   0.649  0.3591  1.5875  0.5630
   80c3c     H6  846   3.269   1.627   0.758  0.4741 -0.8636 -0.6921
   80c3c     H7  847   3.432   1.834   0.840  0.6837 -0.5914  1.8339
   80c3c     H8  848   3.335   1.737   0.938 -0.0942 -0.6078  0.1078
   80c3c     H9  849   2.932   1.978   0.712 -0.6573  1.0326  1.2368
   80c3c    H10  850   3.036   2.081   0.812 -0.0198 -1.5323  1.5590
   80c3c    H11  851   3.076   2.043   0.658 -1.1259 -0.3490 -1.0585
   80c3c    H12  852   2.994   1.876   0.986  0.9896  0.8068 -0.5341
   80c3c    H13  853   2.916   1.815   0.848  0.8042  3.1659 -1.6433
   80c3c     C7  854   3.044   1.667   0.938 -0.0390  0.0671 -0.5475
   80c3c    H14  855   3.149   1.654   0.966  0.0499  1.8365  0.0663
   80c3c    H15  856   3.019   1.594   0.861  0.9302 -0.0175 -0.7925
   80c3c     C8  857   2.964   1.616   1.061 -0.2489 -0.2873  0.0241
   80c3c    H16  858   2.858   1.602   1.038 -1.3644  0.1203  4.3971
   80c3c    H17  859   2.975   1.691   1.139 -1.7439 -2.4913  2.4421
   80c3c    H18  860   3.002   1.528   1.114  0.7091 -1.2418 -2.1948
   81c3c      N  861   0.919   0.413   0.707 -0.2764 -0.7424  0.1749
   81c3c     C1  862   0.787   0.369   0.675  0.2836 -0.2708  0.1530
   81c3c     C2  863   1.004   0.334   0.615 -0.2231 -0.2943  0.2576
   81c3c     C3  864   0.788   0.364   0.518 -0.7708  0.1195 -0.5866
   81c3c     C4  865   0.933   0.348   0.475 -0.2614 -0.0518  0.1872
   81c3c     C5  866   0.929   0.555   0.690  0.3123 -0.9014 -0.2542
   81c3c     C6  867   0.961   0.378   0.846 -0.9663 -0.3517  0.2395
   81c3c     H1  868   0.712   0.429   0.726  0.7271  1.2930 -0.9652
   81c3c     H2  869   0.776   0.267   0.710 -1.6390 -0.1736 -0.1101
   81c3c     H3  870   1.107   0.368   0.606 -0.5490  0.7903  0.6100
   81c3c     H4  871   1.010   0.226   0.631  1.0031  0.0677  2.3642
   81c3c     H5  872   0.748   0.458   0.481 -0.0755  1.1735  1.2594
   81c3c     H6  873   0.722   0.284   0.485  2.1942 -2.9513  0.5374
   81c3c     H7  874   0.968   0.441   0.430 -2.4611  0.4589 -0.5263
   81c3c     H8  875   0.957   0.259   0.417  0.0499  0.4524 -0.4738
   81c3c     H9  876   0.874   0.614   0.764 -0.2819 -0.5733 -0.9573
   81c3c    H10  877   1.032   0.574   0.722  0.2762 -1.2930  0.0982
   81c3c    H11  878   0.924   0.601   0.592  1.5762 -1.8760 -0.7804
   81c3c    H12  879   1.066   0.405   0.855 -0.7888 -0.0581 -2.2790
   81c3c    H13  880   0.907   0.453   0.903  0.4021 -0.9573  2.3998
   81c3c     C7  881   0.936   0.244   0.915  0.2416  0.4093  0.0454
   81c3c    H14  882   0.987   0.163   0.863 -0.1364 -0.1141  0.4723
   81c3c    H15  883   0.830   0.216   0.916  0.7995 -1.8288  1.1229
   81c3c     C8  884   0.976   0.254   1.060 -0.2520 -0.6811  0.2651
   81c3c    H16  885   0.906   0.326   1.100 -2.1461 -0.7734 -2.7760
   81c3c    H17  886   1.084   0.270   1.066 -0.5401  0.7828  1.8192
   81c3c    H18  887   0.950   0.165   1.117 -1.3901 -0.4870  0.0493
   82c3c      N  888   0.057   0.528   1.084 -0.0869  0.3524  0.0359
   82c3c     C1  889   0.131   0.654   1.080 -0.4178  0.1588 -0.5191
   82c3c     C2  890   0.063   0.489   1.228 -0.0005 -0.6958 -0.1369
   82c3c     C3  891   0.090   0.718   1.208 -0.2880  0.0132 -0.0169
   82c3c     C4  892   0.045   0.617   1.308  0.0439  0.0673 -0.5380
   82c3c     C5  893  -0.077   0.550   1.032  0.4312  0.2874  0.0212
   82c3c     C6  894   0.119   0.429   0.992 -0.3276  0.4301  0.8905
   82c3c     H1  895   0.101   0.721   1.000  0.7799  0.8428 -0.4086
   82c3c     H2  896   0.240   0.651   1.082 -0.4375  0.1500  1.8524
   82c3c     H3  897  -0.024   0.428   1.254  0.8519 -1.2439  1.4977
   82c3c     H4  898   0.151   0.433   1.258 -0.7666 -2.0644 -0.4243
   82c3c     H5  899   0.004   0.782   1.190 -1.0172 -1.2450 -1.0550
   82c3c     H6  900   0.166   0.787   1.246 -0.0905 -0.5270  0.5790
   82c3c     H7  901  -0.060   0.635   1.330  0.1025  1.5527 -1.4244
   82c3c     H8  902   0.106   0.614   1.399 -0.7528 -1.4243 -0.0390
   82c3c     H9  903  -0.070   0.582   0.928  0.2143 -1.1798 -0.4621
   82c3c    H10  904  -0.134   0.457   1.022 -0.3889  1.0320 -2.7258
   82c3c    H11  905  -0.133   0.624   1.089  0.2100 -1.1318  1.6800
   82c3c    H12  906   0.063   0.338   1.016 -0.2702 -0.3162 -1.6576
   82c3c    H13  907   0.085   0.443   0.890  0.6360 -1.6058  0.2659
   82c3c     C7  908   0.271   0.407   1.005  0.2750 -0.4380  0.6199
   82c3c    H14  909   0.305   0.406   1.109 -0.2405  1.1970  0.8253
   82c3c    H15  910   0.308   0.490   0.945  1.3895 -1.0024  0.5215
   82c3c     C8  911   0.325   0.275   0.948  0.1354 -0.9137 -0.5225
   82c3c    H16  912   0.297   0.260   0.844 -3.6231 -0.0829  0.3166
   82c3c    H17  913   0.276   0.196   1.006 -0.3326  1.5774  2.6093
   82c3c    H18  914   0.434   0.270   0.961  0.3238  2.0160 -0.7939
   83c3c      N  915   3.029   0.340   1.800 -0.1990  0.1324 -0.4407
   83c3c     C1  916   3.147   0.279   1.745  0.3191 -0.5037  0.3091
   83c3c     C2  917   2.921   0.295   1.714  0.3440  0.0347 -0.2506
   83c3c     C3  918   3.103   0.142   1.693 -0.0357  0.5447  0.5723
   83c3c     C4  919   2.964   0.165   1.640  0.1947 -0.4100  0.9480
   83c3c     C5  920   3.006   0.276   1.934 -0.5448  0.0021 -0.5731
   83c3c     C6  921   3.041   0.490   1.810  0.2214  0.1994 -0.0555
   83c3c     H1  922   3.235   0.272   1.810  1.0313 -0.6967 -0.6651
   83c3c     H2  923   3.179   0.345   1.664 -1.3413  0.2081  0.2084
   83c3c     H3  924   2.830   0.280   1.771  0.6002 -0.5272  0.0184
   83c3c     H4  925   2.901   0.365   1.633 -3.9426  0.9065  1.4775
   83c3c     H5  926   3.096   0.069   1.774  2.2081  0.9935  1.1969
   83c3c     H6  927   3.174   0.101   1.621 -1.7279  1.4682 -1.6758
   83c3c     H7  928   2.894   0.082   1.654  0.9775 -1.1666  0.4746
   83c3c     H8  929   2.982   0.180   1.534  0.4773 -1.2289  0.8703
   83c3c     H9  930   3.092   0.285   2.000 -2.0484 -0.4014  1.4777
   83c3c    H10  931   2.927   0.321   1.994  0.5398  0.8831  0.1967
   83c3c    H11  932   2.971   0.173   1.931 -0.4696  0.0165 -2.2689
   83c3c    H12  933   2.954   0.512   1.872  1.3222  0.6683  1.3600
   83c3c    H13  934   3.129   0.506   1.873 -0.0410  0.1380  0.3295
   83c3c     C7  935   3.040   0.569   1.676  0.3422  0.1636 -0.6293
   83c3c    H14  936   2.945   0.559   1.623  0.8834  1.7357 -1.9292
   83c3c    H15  937   3.126   0.540   1.615  2.1641 -1.3939  2.5286
   83c3c     C8  938   3.043   0.726   1.690  0.2365 -0.5159 -0.1997
   83c3c    H16  939   3.141   0.754   1.729  0.0383  0.4441 -0.3810
   83c3c    H17  940   2.954   0.772   1.734 -0.1224 -0.5209 -0.9129
   83c3c    H18  941   3.053   0.767   1.590  0.2451  1.2292  0.4918
   84c3c      N  942   1.268   0.898   3.101  0.1975  0.1858  0.0521
   84c3c     C1  943   1.194   0.991   3.014  0.2649  0.1803 -0.3276
   84c3c     C2  944   1.163   0.813   3.159  1.0194 -0.5034  0.4323
   84c3c     C3  945   1.079   0.907   2.952 -0.8694  0.0586  0.3348
   84c3c     C4  946   1.057   0.794   3.054 -0.1846 -0.3568 -0.3292
   84c3c     C5  947   1.356   0.811   3.030 -0.4674 -0.0577  0.3711
   84c3c     C6  948   1.340   0.970   3.205  0.9204  0.3135  1.1847
   84c3c     H1  949   1.266   1.046   2.954 -0.2544 -1.7894 -2.8306
   84c3c     H2  950   1.119   1.054   3.062 -1.5772 -2.0313 -0.1809
   84c3c     H3  951   1.213   0.733   3.214  0.8864  0.9117  2.6918
   84c3c     H4  952   1.123   0.872   3.242  1.2140  1.6022 -0.9480
   84c3c     H5  953   1.116   0.856   2.863  0.1563  1.6789 -0.2065
   84c3c     H6  954   0.994   0.969   2.924 -1.0983 -0.1673  0.5350
   84c3c     H7  955   1.060   0.694   3.011  0.7948 -0.8145  0.7613
   84c3c     H8  956   0.959   0.801   3.101 -0.2157 -2.1619 -0.0749
   84c3c     H9  957   1.432   0.865   2.973 -0.0488  0.2207  1.1867
   84c3c    H10  958   1.401   0.734   3.093  0.3408  0.5389  0.5316
   84c3c    H11  959   1.299   0.757   2.954 -0.7475  1.7731 -0.7600
   84c3c    H12  960   1.380   0.904   3.282 -0.0380 -1.1847  0.4251
   84c3c    H13  961   1.427   1.016   3.158  1.2150 -1.6973 -0.2667
   84c3c     C7  962   1.271   1.090   3.282  0.2888  0.2035  0.1670
   84c3c    H14  963   1.172   1.065   3.319  0.2435 -0.7202 -0.5692
   84c3c    H15  964   1.247   1.173   3.216  0.1860 -0.4974 -0.6738
   84c3c     C8  965   1.357   1.143   3.396 -0.5299  0.1326  0.0869
   84c3c    H16  966   1.320   1.234   3.443  0.9547  0.6270  0.3152
   84c3c    H17  967   1.455   1.164   3.354 -0.3560 -0.7238  0.0633
   84c3c    H18  968   1.364   1.065   3.471 -0.5120  1.2130  1.2266
   85c3c      N  969   0.370   1.032   2.362  0.0183 -0.6988  0.3941
   85c3c     C1  970   0.484   0.945   2.378  0.3445  0.0912  0.2426
   85c3c     C2  971   0.273   0.938   2.302  0.5098  0.5542 -0.0622
   85c3c     C3  972   0.432   0.807   2.422 -0.3848  0.3160 -0.1164
   85c3c     C4  973   0.291   0.801   2.372  0.0494 -0.6610  0.3228
   85c3c     C5  974   0.316   1.075   2.492 -0.3054 -0.2018  0.4226
   85c3c     C6  975   0.383   1.154   2.272 -0.0298 -0.0426  0.3450
   85c3c     H1  976   0.567   0.985   2.436  1.6399  0.2264 -1.6446
   85c3c     H2  977   0.528   0.925   2.280 -0.3607 -1.1569  0.1632
   85c3c     H3  978   0.168   0.963   2.316  0.1458 -0.4014 -0.9959
   85c3c     H4  979   0.274   0.917   2.195 -2.5352  0.4736 -0.1079
   85c3c     H5  980   0.427   0.804   2.531 -1.3340 -1.8141 -0.2020
   85c3c     H6  981   0.491   0.721   2.391  0.3275  1.2606 -1.3673
   85c3c     H7  982   0.222   0.785   2.455 -1.0962 -1.3311 -0.7371
   85c3c     H8  983   0.274   0.722   2.299  0.3801 -1.4465  1.0772
   85c3c     H9  984   0.388   1.142   2.538 -0.9074  0.3341  0.5822
   85c3c    H10  985   0.221   1.127   2.481 -1.3383 -2.2006 -0.3877
   85c3c    H11  986   0.294   0.996   2.564 -0.5618 -1.0642 -0.5877
   85c3c    H12  987   0.281   1.185   2.248 -0.3676 -1.8105 -0.6272
   85c3c    H13  988   0.421   1.241   2.325 -0.7718 -0.8160  2.1931
   85c3c     C7  989   0.471   1.136   2.143  0.0874 -0.2000  0.3194
   85c3c    H14  990   0.438   1.043   2.095  0.2647  1.3623 -2.9647
   85c3c    H15  991   0.575   1.123   2.170  0.6646 -1.6601 -2.3795
   85c3c     C8  992   0.461   1.263   2.057  0.0646  0.2888 -0.2827
   85c3c    H16  993   0.505   1.235   1.962 -0.5495  0.0577 -0.4996
   85c3c    H17  994   0.494   1.357   2.101  0.5888 -0.1944  0.3708
   85c3c    H18  995   0.357   1.289   2.039  0.2412  0.8776 -0.4743
   86c3c      N  996   2.433   1.482   1.250  0.0849  0.1655  0.6410
   86c3c     C1  997   2.389   1.345   1.281  0.0868  1.4765  0.1912
   86c3c     C2  998   2.454   1.481   1.104 -0.7781 -0.9611  0.5358
   86c3c     C3  999   2.333   1.283   1.150 -0.8571  1.0096 -0.4474
   86c3c     C4 1000   2.354   1.386   1.042 -0.4806 -0.0325 -0.0990
   86c3c     C5 1001   2.317   1.567   1.271 -0.3728 -0.5206  0.2194
   86c3c     C6 1002   2.543   1.540   1.331 -0.3879  0.1718  0.1848
   86c3c     H1 1003   2.310   1.347   1.357 -0.1282 -2.3175  0.1662
   86c3c     H2 1004   2.470   1.284   1.320  0.2065  0.7952 -1.0985
   86c3c     H3 1005   2.446   1.574   1.048  0.4151  1.0217  3.5191
   86c3c     H4 1006   2.551   1.433   1.087 -1.3318 -1.6518 -0.7054
   86c3c     H5 1007   2.231   1.245   1.143 -0.2949 -0.3821 -1.1888
   86c3c     H6 1008   2.403   1.201   1.133  1.1473  2.0551  2.2972
   86c3c     H7 1009   2.263   1.440   1.020 -0.0260  0.0334 -1.8889
   86c3c     H8 1010   2.390   1.345   0.947 -1.5836 -1.3990  0.0553
   86c3c     H9 1011   2.293   1.574   1.377 -2.9730  1.3338 -0.4308
   86c3c    H10 1012   2.335   1.669   1.237  1.9812 -1.0816 -0.2684
   86c3c    H11 1013   2.227   1.531   1.222 -0.6028 -0.5777  0.6749
   86c3c    H12 1014   2.554   1.648   1.316 -0.8509 -0.1516 -2.9595
   86c3c    H13 1015   2.521   1.535   1.437  0.7745  0.6476  0.4570
   86c3c     C7 1016   2.693   1.479   1.315  0.2238  0.2691  0.9418
   86c3c    H14 1017   2.727   1.488   1.212 -0.8752 -0.8099  0.4655
   86c3c    H15 1018   2.695   1.370   1.326 -0.0238  0.0878 -0.6297
   86c3c     C8 1019   2.807   1.540   1.402 -1.1964  0.4153  0.6358
   86c3c    H16 1020   2.777   1.571   1.502 -0.0511  1.1131  0.7659
   86c3c    H17 1021   2.830   1.634   1.352 -1.5196 -0.0453 -0.4004
   86c3c    H18 1022   2.899   1.482   1.401 -1.2630  0.3029 -1.5856
   87c3c      N 1023   2.468   0.163   0.914 -0.0357  0.0060  0.0611
   87c3c     C1 1024   2.478   0.255   0.798 -0.1639  0.6835 -0.0979
   87c3c     C2 1025   2.612   0.128   0.941 -0.3054 -0.3100  0.0324
   87c3c     C3 1026   2.609   0.332   0.817  0.1147  0.5086 -0.7083
   87c3c     C4 1027   2.693   0.259   0.922 -0.0007 -0.5534  0.2837
   87c3c     C5 1028   2.418   0.240   1.028 -0.1551 -0.3059 -0.1662
   87c3c     C6 1029   2.377   0.045   0.894  0.1635 -0.1412  0.1170
   87c3c     H1 1030   2.398   0.328   0.789 -0.3865  0.4820  0.2591
   87c3c     H2 1031   2.500   0.209   0.702 -1.4739  0.3976 -0.2646
   87c3c     H3 1032   2.634   0.088   1.040  2.6210 -0.2572 -0.5447
   87c3c     H4 1033   2.646   0.060   0.862 -0.2605 -1.1959  0.8014
   87c3c     H5 1034   2.593   0.436   0.844 -1.5969  0.3210 -0.9239
   87c3c     H6 1035   2.663   0.333   0.722  0.2152  0.3163 -0.6522
   87c3c     H7 1036   2.685   0.330   1.004 -0.0981  3.6134 -3.1282
   87c3c     H8 1037   2.793   0.253   0.878 -0.2670 -1.4772 -0.2013
   87c3c     H9 1038   2.420   0.173   1.114  0.8139  0.3213  0.3123
   87c3c    H10 1039   2.469   0.336   1.040 -2.7371  1.1945 -0.6373
   87c3c    H11 1040   2.312   0.263   1.014  0.0988 -0.4236 -2.3023
   87c3c    H12 1041   2.345  -0.000   0.988  0.4477  2.3582  1.4728
   87c3c    H13 1042   2.286   0.084   0.848  0.7170  1.4742  0.3586
   87c3c     C7 1043   2.436  -0.058   0.799 -0.6846  0.5411 -0.6827
   87c3c    H14 1044   2.513  -0.110   0.855 -0.0378 -0.1937 -2.2271
   87c3c    H15 1045   2.483  -0.015   0.711  1.9527 -0.0572  0.3910
   87c3c     C8 1046   2.335  -0.174   0.752  0.1362  0.0706 -0.0807
   87c3c    H16 1047   2.316  -0.167   0.645  2.3125 -1.0538 -0.5802
   87c3c    H17 1048   2.239  -0.173   0.803  0.1337  1.2218 -0.0989
   87c3c    H18 1049   2.382  -0.272   0.761 -0.2965  0.1578  4.2507
   88c3c      N 1050   3.139   1.095   0.621  0.0425  0.2760  0.0683
   88c3c     C1 1051   2.994   1.059   0.613 -0.4672  0.0528 -0.3595
   88c3c     C2 1052   3.166   1.132   0.477 -0.8769  0.1026  0.2077
   88c3c     C3 1053   2.922   1.157   0.510  0.0695 -0.0436 -0.1663
   88c3c     C4 1054   3.041   1.206   0.424  0.2919  0.7149 -0.3404
   88c3c     C5 1055   3.159   1.217   0.699  0.8523  0.1920 -0.4625
   88c3c     C6 1056   3.225   0.991   0.684  0.1176  0.2058  0.2502
   88c3c     H1 1057   2.950   1.084   0.709  0.2271 -1.8719  0.4832
   88c3c     H2 1058   2.979   0.956   0.580 -2.4604 -0.0461  0.8173
   88c3c     H3 1059   3.255   1.191   0.458 -1.7623  1.3051 -0.2943
   88c3c     H4 1060   3.180   1.043   0.416  0.3555 -0.1637  0.8663
   88c3c     H5 1061   2.872   1.239   0.562  1.0578 -0.4153  1.4020
   88c3c     H6 1062   2.853   1.102   0.446 -1.2741  2.6608 -1.1047
   88c3c     H7 1063   3.039   1.314   0.435  2.8188  0.8658 -1.1730
   88c3c     H8 1064   3.033   1.179   0.319 -0.3174 -0.0615 -0.1039
   88c3c     H9 1065   3.135   1.199   0.804  0.7192 -1.0789 -0.7106
   88c3c    H10 1066   3.260   1.259   0.704  0.3767  1.1010  2.3869
   88c3c    H11 1067   3.086   1.293   0.671 -1.5218 -0.8580  2.5269
   88c3c    H12 1068   3.318   1.038   0.715 -0.2842  0.4888  1.0384
   88c3c    H13 1069   3.189   0.978   0.786 -1.4962  2.0502 -0.0471
   88c3c     C7 1070   3.249   0.864   0.600 -0.4131 -0.2747 -0.1655
   88c3c    H14 1071   3.325   0.873   0.523 -0.6768  0.6779 -0.3190
   88c3c    H15 1072   3.153   0.838   0.555 -1.0977  0.8927  0.6065
   88c3c     C8 1073   3.287   0.741   0.683 -0.6698 -0.6370  0.1823
   88c3c    H16 1074   3.241   0.740   0.782  0.3226 -0.7599  0.6476
   88c3c    H17 1075   3.395   0.738   0.698 -0.9828 -1.3168  2.3624
   88c3c    H18 1076   3.261   0.642   0.647  2.2352 -1.4386  0.1676
   89c3c      N 1077   1.833   2.817   0.809 -0.0979  0.2648  0.2143
   89c3c     C1 1078   1.962   2.872   0.845  0.9935  0.1836 -0.3483
   89c3c     C2 1079   1.786   2.767   0.940 -0.3485 -0.2015 -0.1162
   89c3c     C3 1080   1.954   2.939   0.989  0.3262 -0.2945  0.3952
   89c3c     C4 1081   1.845   2.852   1.049  0.0363  0.0206 -0.1784
   89c3c     C5 1082   1.747   2.930   0.769  0.0892 -1.0857 -0.3661
   89c3c     C6 1083   1.831   2.715   0.701 -0.0978 -0.1846 -0.0219
   89c3c     H1 1084   2.004   2.937   0.769  1.0681  0.2067 -0.2868
   89c3c     H2 1085   2.032   2.790   0.864 -0.2762 -1.0908 -1.0134
   89c3c     H3 1086   1.677   2.759   0.950 -0.5920  0.8373 -1.6637
   89c3c     H4 1087   1.827   2.667   0.955 -0.4214 -0.0497  1.1532
   89c3c     H5 1088   1.935   3.045   0.979 -0.8041 -0.6301 -1.1679
   89c3c     H6 1089   2.056   2.941   1.027  0.2213 -0.8835  0.7299
   89c3c     H7 1090   1.766   2.915   1.092  1.1582  1.2050  0.1727
   89c3c     H8 1091   1.897   2.781   1.112 -0.3506 -2.1893 -2.2744
   89c3c     H9 1092   1.780   2.974   0.675 -0.2715 -0.7664 -0.3444
   89c3c    H10 1093   1.642   2.903   0.758  0.4353 -2.1744 -1.0330
   89c3c    H11 1094   1.734   3.004   0.848  0.9216 -1.7675  0.4161
   89c3c    H12 1095   1.728   2.682   0.688 -0.4651  1.3508 -1.1340
   89c3c    H13 1096   1.850   2.768   0.608  0.4305  0.6843  0.5675
   89c3c     C7 1097   1.930   2.609   0.709  0.4472  0.0125  0.0533
   89c3c    H14 1098   1.955   2.587   0.813  0.0071 -2.5264 -0.3345
   89c3c    H15 1099   2.024   2.639   0.664 -0.6505 -1.2066 -3.2734
   89c3c     C8 1100   1.866   2.487   0.642 -0.3486  0.0588  0.1467
   89c3c    H16 1101   1.787   2.438   0.698  0.6568 -0.0863  1.4530
   89c3c    H17 1102   1.939   2.408   0.626 -1.7248 -1.0107 -0.9311
   89c3c    H18 1103   1.824   2.506   0.543 -0.6398  1.8005  0.5805
   90c3c      N 1104   2.883   1.718   3.039  0.1119 -0.0624  0.0346
   90c3c     C1 1105   2.822   1.580   3.032 -0.7824  0.0888  0.2518
   90c3c     C2 1106   2.828   1.788   2.923  0.3602  0.1823  0.0052
   90c3c     C3 1107   2.679   1.600   2.971  0.0663 -0.5514 -0.2993
   90c3c     C4 1108   2.677   1.740   2.907 -0.0296 -0.2397 -0.1356
   90c3c     C5 1109   2.834   1.788   3.155 -0.5357 -0.3815  0.0197
   90c3c     C6 1110   3.028   1.713   3.055 -0.0675  0.1881 -0.8505
   90c3c     H1 1111   2.837   1.516   3.119  0.3083  0.4528  0.3362
   90c3c     H2 1112   2.886   1.541   2.953 -0.5949 -1.3354  1.0994
   90c3c     H3 1113   2.834   1.896   2.934  0.3313  0.0154  1.7546
   90c3c     H4 1114   2.875   1.768   2.826 -1.3034 -2.6915 -0.2686
   90c3c     H5 1115   2.604   1.603   3.050  0.5454  0.3929  0.1166
   90c3c     H6 1116   2.657   1.521   2.898  1.0047  0.1993 -1.4140
   90c3c     H7 1117   2.617   1.808   2.968  1.7254  1.4748 -0.2638
   90c3c     H8 1118   2.641   1.748   2.805 -0.1997  1.7137  0.0521
   90c3c     H9 1119   2.877   1.742   3.244  1.5450  2.0565  0.3197
   90c3c    H10 1120   2.866   1.892   3.156  1.2466 -0.9262  0.2836
   90c3c    H11 1121   2.726   1.781   3.169 -0.5578 -0.2161 -0.0691
   90c3c    H12 1122   3.069   1.811   3.076  1.4143 -1.1661  2.9252
   90c3c    H13 1123   3.049   1.654   3.144  0.9084  2.7603  0.6697
   90c3c     C7 1124   3.119   1.659   2.930  0.3796 -0.4586 -1.1079
   90c3c    H14 1125   3.078   1.713   2.844 -0.5390 -1.2100 -1.1461
   90c3c    H15 1126   3.104   1.552   2.915  1.5485 -0.9077  0.7364
   90c3c     C8 1127   3.270   1.683   2.952  0.0394  0.0141 -0.3846
   90c3c    H16 1128   3.302   1.629   3.041 -0.8672  1.3404  0.7748
   90c3c    H17 1129   3.277   1.791   2.969 -4.1011 -0.1011  2.9262
   90c3c    H18 1130   3.325   1.642   2.867  0.0614 -1.9028  0.5480
   91c3c      N 1131   1.035   2.483   2.770  0.7135  0.3579 -0.1945
   91c3c     C1 1132   0.979   2.423   2.654  0.3147 -0.5324  0.2001
   91c3c     C2 1133   1.090   2.607   2.710 -0.7353 -0.4573 -0.7058
   91c3c     C3 1134   0.913   2.541   2.563  0.2774  0.2548  0.4633
   91c3c     C4 1135   0.988   2.668   2.608 -0.5399  0.7945  0.2369
   91c3c     C5 1136   0.926   2.509   2.857 -0.8155 -0.3645 -0.0953
   91c3c     C6 1137   1.136   2.402   2.838  0.1775 -0.8225 -0.4119
   91c3c     H1 1138   0.898   2.354   2.679  0.7603 -1.0322  0.2715
   91c3c     H2 1139   1.052   2.369   2.593  0.5507 -0.3570  0.3313
   91c3c     H3 1140   1.120   2.693   2.769  1.5655 -0.4113 -1.8909
   91c3c     H4 1141   1.181   2.594   2.652  0.2277 -0.5782  0.7974
   91c3c     H5 1142   0.806   2.547   2.583  0.1452 -0.5178  0.0100
   91c3c     H6 1143   0.926   2.521   2.457 -0.1315 -0.7737  0.6077
   91c3c     H7 1144   0.915   2.735   2.654 -1.5174  0.1002 -0.2937
   91c3c     H8 1145   1.047   2.707   2.526  1.0556 -0.8497  0.5598
   91c3c     H9 1146   0.877   2.417   2.890 -0.6262 -0.5286 -0.2721
   91c3c    H10 1147   0.942   2.547   2.958 -0.2642 -0.7786 -0.0218
   91c3c    H11 1148   0.850   2.572   2.810 -1.9659 -0.0693  2.0616
   91c3c    H12 1149   1.163   2.448   2.933 -2.0026 -1.8953  0.7730
   91c3c    H13 1150   1.082   2.316   2.878 -1.5132  1.0901  1.5217
   91c3c     C7 1151   1.264   2.362   2.761  0.3448 -0.3486 -0.6560
   91c3c    H14 1152   1.333   2.445   2.776 -1.4835  1.4182 -1.7239
   91c3c    H15 1153   1.255   2.329   2.657 -1.4398  0.6793 -0.8639
   91c3c     C8 1154   1.340   2.249   2.835  0.3398 -0.0792 -0.1657
   91c3c    H16 1155   1.369   2.263   2.939 -0.0423  0.0492 -0.0772
   91c3c    H17 1156   1.429   2.225   2.777  2.3212  0.7810  2.4385
   91c3c    H18 1157   1.270   2.166   2.843  0.4725  0.0349  2.9993
   92c3c      N 1158   0.771   1.771   0.946  0.3767  0.5090  0.3332
   92c3c     C1 1159   0.689   1.725   1.053  0.3786 -0.5875 -0.5785
   92c3c     C2 1160   0.676   1.834   0.844  0.3015  0.8203 -0.0207
   92c3c     C3 1161   0.564   1.819   1.057 -0.1753 -0.4910  0.3947
   92c3c     C4 1162   0.563   1.891   0.928 -0.3828  0.5095  0.1454
   92c3c     C5 1163   0.845   1.885   1.003 -0.1184  0.4896 -0.5293
   92c3c     C6 1164   0.861   1.673   0.892  0.7671  0.3050  0.9252
   92c3c     H1 1165   0.731   1.714   1.154  0.6611 -0.9876 -0.7404
   92c3c     H2 1166   0.645   1.632   1.019  0.6541 -1.3753  1.1661
   92c3c     H3 1167   0.722   1.919   0.795 -0.3943  0.7784 -0.7661
   92c3c     H4 1168   0.638   1.761   0.773  2.6362  1.2144 -1.7398
   92c3c     H5 1169   0.571   1.891   1.138 -0.6104  0.6862 -0.6082
   92c3c     H6 1170   0.473   1.762   1.076  0.3596 -1.2702  0.6611
   92c3c     H7 1171   0.570   2.000   0.935 -1.3589  0.5618  0.3374
   92c3c     H8 1172   0.471   1.877   0.873 -0.0565 -3.3110  0.4518
   92c3c     H9 1173   0.783   1.970   1.031 -1.1514  0.2945 -2.2105
   92c3c    H10 1174   0.904   1.858   1.091  1.3498 -0.3757 -1.7584
   92c3c    H11 1175   0.920   1.925   0.935  1.5635 -1.9663 -0.2123
   92c3c    H12 1176   0.932   1.721   0.825 -0.7069 -0.2393 -1.0773
   92c3c    H13 1177   0.905   1.617   0.974 -1.0816 -2.0940  0.3489
   92c3c     C7 1178   0.802   1.560   0.808 -0.2709  0.5401  1.0685
   92c3c    H14 1179   0.738   1.600   0.729  1.0448 -0.6509 -0.6469
   92c3c    H15 1180   0.742   1.495   0.872 -1.4297  1.9140  1.4043
   92c3c     C8 1181   0.922   1.477   0.751  0.0634  0.3780  0.1452
   92c3c    H16 1182   0.890   1.397   0.683 -0.9313 -0.8494  2.0195
   92c3c    H17 1183   0.970   1.419   0.829  0.9183  0.6538 -0.1658
   92c3c    H18 1184   0.999   1.536   0.701  1.6779 -0.8956  1.0725
   93c3c      N 1185   1.694   0.024   2.831  0.4946  0.5290  0.6122
   93c3c     C1 1186   1.579   0.116   2.822  0.0410  0.4033  0.1819
   93c3c     C2 1187   1.715   0.022   2.971 -0.0938  0.3296 -0.8176
   93c3c     C3 1188   1.488   0.096   2.939  0.1693  0.4116  1.0447
   93c3c     C4 1189   1.581   0.033   3.040 -0.4017  0.1122  0.5582
   93c3c     C5 1190   1.649  -0.111   2.781 -0.6928  0.5351 -0.4815
   93c3c     C6 1191   1.824   0.054   2.767  0.2586 -0.1913 -0.2456
   93c3c     H1 1192   1.532   0.098   2.725  3.0531  0.7098 -1.3850
   93c3c     H2 1193   1.609   0.220   2.828 -2.2186  1.1807 -1.4506
   93c3c     H3 1194   1.766  -0.063   3.015 -1.2464  0.0097 -0.0707
   93c3c     H4 1195   1.771   0.112   2.996 -1.8984  0.6373  2.4243
   93c3c     H5 1196   1.399   0.039   2.913 -0.8696  2.6668 -0.4167
   93c3c     H6 1197   1.452   0.191   2.976  0.3152  0.0290  2.1861
   93c3c     H7 1198   1.542  -0.069   3.047  1.3163 -0.5900  0.2423
   93c3c     H8 1199   1.572   0.081   3.137  0.2137 -2.1707  1.7727
   93c3c     H9 1200   1.621  -0.109   2.675 -0.5184  1.3534 -0.5154
   93c3c    H10 1201   1.731  -0.184   2.783 -0.2955  0.9491 -1.1398
   93c3c    H11 1202   1.566  -0.152   2.837  0.2638  0.6339  1.0257
   93c3c    H12 1203   1.904  -0.014   2.797  1.3643  2.4593  3.1612
   93c3c    H13 1204   1.822   0.038   2.659 -3.6594  0.1687 -0.2715
   93c3c     C7 1205   1.883   0.197   2.782  0.1045  0.3173 -0.0190
   93c3c    H14 1206   1.879   0.245   2.879  2.2162  1.8187 -0.6547
   93c3c    H15 1207   1.816   0.255   2.718  0.1383  0.5973  0.2001
   93c3c     C8 1208   2.025   0.197   2.726  0.2244 -0.8328 -0.5564
   93c3c    H16 1209   2.055   0.297   2.695  1.2149 -0.4056  1.6698
   93c3c    H17 1210   2.029   0.141   2.633 -0.7651  1.3228 -1.9258
   93c3c    H18 1211   2.098   0.150   2.792 -0.3179 -0.5310  0.2689
   94c3c      N 1212   0.729   0.980   0.600 -0.2153  0.1460 -1.0247
   94c3c     C1 1213   0.613   1.015   0.511  0.1968 -0.0054 -0.9100
   94c3c     C2 1214   0.762   1.105   0.673 -0.4197  0.5869  0.1993
   94c3c     C3 1215   0.528   1.109   0.595 -0.7842  0.6712  0.2803
   94c3c     C4 1216   0.626   1.164   0.704 -0.6147 -0.2977  1.1498
   94c3c     C5 1217   0.693   0.875   0.695 -0.4832  0.5016 -0.3969
   94c3c     C6 1218   0.851   0.939   0.522  0.1661 -0.2335  0.2171
   94c3c     H1 1219   0.550   0.930   0.488  0.4932 -0.2195 -0.9337
   94c3c     H2 1220   0.644   1.072   0.423  2.8273  0.9534  0.5624
   94c3c     H3 1221   0.811   1.077   0.766  0.3699 -1.7400 -0.8941
   94c3c     H4 1222   0.820   1.171   0.609 -1.2536  0.9389 -0.2005
   94c3c     H5 1223   0.441   1.061   0.641 -0.3748  0.6238  1.0150
   94c3c     H6 1224   0.484   1.191   0.538  1.6544  1.6653 -0.2183
   94c3c     H7 1225   0.612   1.125   0.805  2.1227 -1.0682  1.2756
   94c3c     H8 1226   0.633   1.273   0.707 -1.5950 -0.1775 -0.4633
   94c3c     H9 1227   0.693   0.775   0.652 -0.8486  0.5941 -0.6120
   94c3c    H10 1228   0.768   0.866   0.774 -1.4255  1.7971  0.6670
   94c3c    H11 1229   0.598   0.881   0.748 -0.9551  0.9071 -1.2806
   94c3c    H12 1230   0.932   0.927   0.595 -0.5172 -2.3958  0.6509
   94c3c    H13 1231   0.829   0.838   0.486 -0.0263 -0.2392  0.3518
   94c3c     C7 1232   0.897   1.033   0.409  0.0350 -0.2951  0.1725
   94c3c    H14 1233   0.898   1.139   0.431 -0.9651 -0.1540 -0.4109
   94c3c    H15 1234   0.825   1.021   0.327  0.8385 -1.5805 -0.3746
   94c3c     C8 1235   1.040   0.999   0.362 -0.0109  0.3328  0.5198
   94c3c    H16 1236   1.045   0.897   0.325 -0.0479 -0.1180  1.7324
   94c3c    H17 1237   1.109   0.999   0.446 -0.7906 -2.7397  1.1962
   94c3c    H18 1238   1.071   1.060   0.276 -1.0535 -1.9156 -1.5068
   95c3c      N 1239   1.156   2.088   0.274  0.7504  0.0774  0.2535
   95c3c     C1 1240   1.149   2.055   0.129 -0.4956  0.6932  0.1463
   95c3c     C2 1241   1.299   2.064   0.303  0.4639  0.7746  0.5437
   95c3c     C3 1242   1.267   2.131   0.074 -0.2347 -0.2719 -0.0625
   95c3c     C4 1243   1.371   2.138   0.193  0.4076  0.6832 -0.7507
   95c3c     C5 1244   1.117   2.228   0.307 -0.3988  0.1996 -0.1586
   95c3c     C6 1245   1.063   2.001   0.348 -0.3452 -0.0624 -0.0064
   95c3c     H1 1246   1.053   2.091   0.092 -1.4743 -2.8046 -0.8745
   95c3c     H2 1247   1.156   1.949   0.102  0.9148  0.8547 -0.1486
   95c3c     H3 1248   1.331   2.086   0.405 -0.0962  0.6358  0.7487
   95c3c     H4 1249   1.322   1.959   0.284 -0.1351  0.9818 -1.3637
   95c3c     H5 1250   1.223   2.230   0.059  0.9636  0.2924  0.0092
   95c3c     H6 1251   1.308   2.105  -0.023 -1.5283 -0.3193 -0.6032
   95c3c     H7 1252   1.399   2.240   0.220 -1.1268  0.2996  2.5835
   95c3c     H8 1253   1.457   2.084   0.154  1.2561 -0.0493  2.0448
   95c3c     H9 1254   1.010   2.242   0.294 -0.4569 -0.5264 -0.4879
   95c3c    H10 1255   1.146   2.241   0.411  1.1829 -2.7720 -0.1601
   95c3c    H11 1256   1.168   2.307   0.252  0.6373  1.7876  2.9336
   95c3c    H12 1257   1.088   2.020   0.453  1.2304 -5.7678  0.7865
   95c3c    H13 1258   0.958   2.027   0.330 -0.1272  2.1732  1.6832
   95c3c     C7 1259   1.068   1.849   0.331 -0.0986 -0.1300 -0.5930
   95c3c    H14 1260   1.169   1.819   0.360  0.5185 -1.3207 -3.7945
   95c3c    H15 1261   1.056   1.812   0.229 -0.2028  2.8657 -1.7251
   95c3c     C8 1262   0.953   1.782   0.418  0.6706  0.5506  0.0834
   95c3c    H16 1263   0.856   1.821   0.385 -0.7144 -1.8360  1.1691
   95c3c    H17 1264   0.970   1.779   0.525 -0.7841 -1.3575  0.2819
   95c3c    H18 1265   0.954   1.677   0.386 -2.3157 -0.4523  3.0425
   96c3c      N 1266   3.171   1.188   3.154 -0.6394  0.2355  0.3194
   96c3c     C1 1267   3.148   1.095   3.037  0.2294  0.2024  0.5303
   96c3c     C2 1268   3.081   1.299   3.131  0.4309 -0.0768 -0.0747
   96c3c     C3 1269   2.999   1.088   3.029 -0.8275  0.6246 -0.2220
   96c3c     C4 1270   2.955   1.223   3.096  0.5446  0.3639 -0.3855
   96c3c     C5 1271   3.157   1.128   3.285 -1.1800  0.3002 -0.0866
   96c3c     C6 1272   3.314   1.249   3.151  0.0004  0.5396  0.3901
   96c3c     H1 1273   3.198   1.000   3.056  0.7594 -0.3566 -3.2052
   96c3c     H2 1274   3.178   1.129   2.938  0.4919  2.2237  1.2694
   96c3c     H3 1275   3.074   1.373   3.210 -1.9341  0.4464 -0.7276
   96c3c     H4 1276   3.089   1.352   3.036 -1.6355  0.0077 -0.2219
   96c3c     H5 1277   2.960   1.004   3.085 -1.7538  0.4278 -1.1423
   96c3c     H6 1278   2.964   1.084   2.926  1.8004  1.1780 -1.1740
   96c3c     H7 1279   2.906   1.203   3.191  1.1176  0.6507 -0.0231
   96c3c     H8 1280   2.884   1.284   3.042 -1.0315 -0.4161  0.7786
   96c3c     H9 1281   3.212   1.034   3.295  0.1275  1.2579  2.0980
   96c3c    H10 1282   3.180   1.199   3.363 -0.0325 -1.4637  1.2186
   96c3c    H11 1283   3.054   1.094   3.293 -0.8101 -1.0288 -0.6684
   96c3c    H12 1284   3.323   1.333   3.220 -1.0314  1.2680 -0.3465
   96c3c    H13 1285   3.388   1.178   3.187 -0.0693  0.7532  0.9478
   96c3c     C7 1286   3.365   1.310   3.016  0.1749  0.0507 -0.0845
   96c3c    H14 1287   3.300   1.380   2.963 -0.0172  0.6281  0.8976
   96c3c    H15 1288   3.377   1.235   2.939  2.1553 -0.0808  0.3437
   96c3c     C8 1289   3.496   1.381   3.038  0.1259 -0.0378 -0.1886
   96c3c    H16 1290   3.481   1.478   3.086 -1.9218  1.2087 -3.1776
   96c3c    H17 1291   3.529   1.409   2.938 -0.9878  2.2300  0.0514
   96c3c    H18 1292   3.574   1.321   3.085 -0.3804  0.1578  0.9263
   97c3c      N 1293   2.535   1.104   2.794 -0.9433 -0.5732 -0.1349
   97c3c     C1 1294   2.623   1.072   2.680  0.1424 -0.4919 -0.4682
   97c3c     C2 1295   2.414   1.025   2.769 -1.1371 -0.0429 -0.2351
   97c3c     C3 1296   2.609   0.918   2.678 -0.2457  0.2719  0.5344
   97c3c     C4 1297   2.466   0.885   2.723  0.6855 -0.3649  0.0743
   97c3c     C5 1298   2.602   1.076   2.926 -0.6309  0.4809 -0.1009
   97c3c     C6 1299   2.490   1.247   2.813  0.1639 -0.5146  0.6865
   97c3c     H1 1300   2.723   1.113   2.697  0.5154 -0.1447 -3.1765
   97c3c     H2 1301   2.581   1.101   2.583 -1.0181  2.2086  0.8026
   97c3c     H3 1302   2.332   1.013   2.839 -0.5784 -0.3410  0.3775
   97c3c     H4 1303   2.360   1.061   2.681 -3.1112  0.5450  1.1832
   97c3c     H5 1304   2.684   0.875   2.744  0.1576  0.5101  0.2317
   97c3c     H6 1305   2.637   0.866   2.587 -0.3965  0.3836  0.4240
   97c3c     H7 1306   2.450   0.817   2.806 -1.0836 -0.4498 -0.3143
   97c3c     H8 1307   2.403   0.852   2.640  0.3324 -1.0586  0.6070
   97c3c     H9 1308   2.694   1.133   2.932 -0.8635  0.9890 -1.2270
   97c3c    H10 1309   2.555   1.111   3.018  2.4662  0.2512  1.6442
   97c3c    H11 1310   2.619   0.971   2.947  1.4244  0.2912 -2.5596
   97c3c    H12 1311   2.415   1.235   2.891  0.3753 -0.5625  0.8846
   97c3c    H13 1312   2.568   1.317   2.842 -1.8237  1.8569  0.4704
   97c3c     C7 1313   2.421   1.322   2.698  0.4198 -0.0670  0.5949
   97c3c    H14 1314   2.343   1.260   2.654  0.6898  1.1115 -1.5766
   97c3c    H15 1315   2.498   1.349   2.626  1.0515  0.5266  1.4833
   97c3c     C8 1316   2.374   1.460   2.745  0.8197  0.0032 -0.1637
   97c3c    H16 1317   2.304   1.508   2.676 -0.6718 -0.6202  0.8840
   97c3c    H17 1318   2.452   1.532   2.768 -0.2955  1.6483 -1.3952
   97c3c    H18 1319   2.326   1.449   2.843  0.6991 -3.7175 -0.5981
   98c3c      N 1320   1.677   1.130   0.702 -0.4616  0.2457 -0.8830
   98c3c     C1 1321   1.742   1.246   0.756  0.0615  0.4409 -0.1150
   98c3c     C2 1322   1.761   1.101   0.585  0.2123  0.1903  0.7688
   98c3c     C3 1323   1.892   1.222   0.742 -0.3430 -0.2145 -0.5068
   98c3c     C4 1324   1.907   1.159   0.607  0.1516 -0.3809 -0.5434
   98c3c     C5 1325   1.690   1.013   0.788  0.1920 -0.1547 -0.3490
   98c3c     C6 1326   1.533   1.160   0.672 -0.5455  0.7689 -0.5581
   98c3c     H1 1327   1.709   1.253   0.860  0.8923  0.1811  0.1693
   98c3c     H2 1328   1.727   1.334   0.694 -0.5701 -1.5808 -2.9133
   98c3c     H3 1329   1.755   0.995   0.560 -1.8126  0.3176  0.6486
   98c3c     H4 1330   1.725   1.152   0.496 -0.6981 -0.1478  0.9406
   98c3c     H5 1331   1.930   1.151   0.816 -1.2319  2.1123  2.2743
   98c3c     H6 1332   1.950   1.315   0.731  0.1334 -0.5794 -1.1653
   98c3c     H7 1333   1.979   1.081   0.582  0.6790  0.9284 -3.3296
   98c3c     H8 1334   1.911   1.241   0.535 -0.5239 -0.8676 -1.1524
   98c3c     H9 1335   1.651   1.029   0.888  0.3261 -2.0946  0.0416
   98c3c    H10 1336   1.631   0.933   0.744 -0.1024  0.0758 -0.3667
   98c3c    H11 1337   1.792   0.975   0.797  0.1177 -0.7349 -1.7551
   98c3c    H12 1338   1.474   1.074   0.642  0.8926 -0.4783  0.1313
   98c3c    H13 1339   1.495   1.189   0.770 -0.2016 -1.1096  0.1394
   98c3c     C7 1340   1.489   1.270   0.565  0.0948  0.4310 -0.8775
   98c3c    H14 1341   1.509   1.248   0.460  0.8187 -0.2492 -0.6057
   98c3c    H15 1342   1.536   1.366   0.587 -1.4710  1.3386 -1.4197
   98c3c     C8 1343   1.345   1.321   0.579 -0.2247 -0.2265 -0.0935
   98c3c    H16 1344   1.282   1.236   0.554  2.3059 -2.0920 -0.4066
   98c3c    H17 1345   1.325   1.392   0.498 -0.0888 -0.0039  0.0662
   98c3c    H18 1346   1.316   1.355   0.678 -2.0386 -0.3672 -0.5569
   99c3c      N 1347   1.759   2.711   1.966  0.2593 -0.2614 -0.1563
   99c3c     C1 1348   1.799   2.600   1.883 -0.9218  0.1494 -0.1020
   99c3c     C2 1349   1.718   2.649   2.091 -0.2041  0.5345 -0.3922
   99c3c     C3 1350   1.704   2.484   1.924 -0.0805  0.5061  0.0931
   99c3c     C4 1351   1.633   2.524   2.052  0.8694  0.1791 -0.1084
   99c3c     C5 1352   1.877   2.789   2.002 -0.4093 -0.1223 -0.4500
   99c3c     C6 1353   1.665   2.809   1.906  0.2892 -1.1954 -0.0678
   99c3c     H1 1354   1.901   2.572   1.907 -1.3652 -1.2158  0.2157
   99c3c     H2 1355   1.803   2.639   1.781 -2.0991  0.8794  0.1153
   99c3c     H3 1356   1.799   2.597   2.141 -0.8475 -1.7202 -1.6351
   99c3c     H4 1357   1.674   2.719   2.162 -0.8477  1.7248 -1.9317
   99c3c     H5 1358   1.763   2.395   1.948  0.2770  0.8459  0.4863
   99c3c     H6 1359   1.628   2.457   1.851 -0.6763  0.5934  0.6782
   99c3c     H7 1360   1.644   2.442   2.123  1.6305  2.0527  2.0225
   99c3c     H8 1361   1.527   2.545   2.043  1.0067  0.2136 -1.7656
   99c3c     H9 1362   1.921   2.825   1.908 -0.0677 -1.2335 -0.7280
   99c3c    H10 1363   1.848   2.878   2.056 -0.9823 -0.5204 -0.1006
   99c3c    H11 1364   1.954   2.733   2.055  1.4499  3.0212  0.3092
   99c3c    H12 1365   1.635   2.881   1.983  1.1085  3.2064 -3.6335
   99c3c    H13 1366   1.716   2.872   1.834  0.6513 -1.4609 -0.0433
   99c3c     C7 1367   1.535   2.751   1.846  0.1848 -0.4244 -0.4382
   99c3c    H14 1368   1.480   2.704   1.927 -0.1412 -0.1265 -0.4818
   99c3c    H15 1369   1.556   2.684   1.763 -0.5575 -3.0440  1.4446
   99c3c     C8 1370   1.450   2.868   1.793 -0.2711 -0.5863 -0.2361
   99c3c    H16 1371   1.355   2.836   1.751  0.4740 -0.1889 -2.2715
   99c3c    H17 1372   1.500   2.922   1.713  1.6751 -2.0738 -0.0866
   99c3c    H18 1373   1.414   2.937   1.868 -0.9570 -0.5919 -0.5630
  100c3c      N 1374   0.641   3.163   0.267  0.4593  0.3096  0.6000
  100c3c     C1 1375   0.582   3.030   0.266 -1.1280  0.3423  0.2239
  100c3c     C2 1376   0.769   3.148   0.330  0.2774 -0.4053  0.3942
  100c3c     C3 1377   0.702   2.943   0.240  0.9744  0.1486 -0.5200
  100c3c     C4 1378   0.826   3.021   0.271 -0.6564  0.1799 -0.7178
  100c3c     C5 1379   0.657   3.208   0.125  0.5259 -0.2577  0.1739
  100c3c     C6 1380   0.556   3.264   0.340 -0.6557 -0.1504  0.6814
  100c3c     H1 1381   0.508   2.995   0.195 -0.7439 -0.9072  0.4211
  100c3c     H2 1382   0.542   2.991   0.360  0.2477 -0.3598  0.5288
  100c3c     H3 1383   0.832   3.236   0.327  0.5401 -0.6581 -3.2702
  100c3c     H4 1384   0.765   3.125   0.437  2.0218  0.1612  0.5878
  100c3c     H5 1385   0.704   2.927   0.132 -1.0906 -1.6503 -0.3373
  100c3c     H6 1386   0.711   2.845   0.288  1.7112 -0.2087 -1.3654
  100c3c     H7 1387   0.874   3.035   0.174  0.2413 -2.6969 -0.7357
  100c3c     H8 1388   0.881   2.967   0.348 -1.4060 -0.3581 -0.5564
  100c3c     H9 1389   0.567   3.201   0.063  0.6104  1.5407 -0.2010
  100c3c    H10 1390   0.664   3.317   0.122  0.8614 -0.3063 -0.7194
  100c3c    H11 1391   0.739   3.175   0.063 -0.8325  0.8082 -2.2440
  100c3c    H12 1392   0.610   3.358   0.344  1.2806 -1.2058 -0.0997
  100c3c    H13 1393   0.468   3.287   0.280  0.7690  1.0789 -0.9539
  100c3c     C7 1394   0.519   3.228   0.488 -0.3653  0.0053  0.8515
  100c3c    H14 1395   0.612   3.232   0.544 -0.2595 -0.1815  0.6908
  100c3c    H15 1396   0.476   3.128   0.495 -1.3613  0.4688  1.4911
  100c3c     C8 1397   0.421   3.332   0.540 -0.1759 -0.2511  0.5033
  100c3c    H16 1398   0.322   3.338   0.496 -1.1347 -0.1565  2.5861
  100c3c    H17 1399   0.452   3.436   0.534 -0.9058 -0.0326  0.4991
  100c3c    H18 1400   0.409   3.331   0.649 -0.9523  0.8807  0.4358
  101fsi     F1 1401   1.819   2.849   1.368  0.0365  0.0071 -0.2370
  101fsi     S1 1402   1.918   2.869   1.491 -0.0542  0.0961  0.1848
  101fsi      N 1403   1.823   2.934   1.596 -0.1213 -0.1760  0.0607
  101fsi     O1 1404   1.955   2.733   1.524  0.1106  0.4318 -0.0997
  101fsi     O2 1405   2.025   2.954   1.436  0.4958 -0.6023  0.3033
  101fsi     S2 1406   1.825   3.073   1.661 -0.2469 -0.0097 -0.0560
  101fsi     O3 1407   1.699   3.113   1.714 -0.1547  0.0281 -0.1276
  101fsi     O4 1408   1.892   3.172   1.582 -0.9265  0.4959 -0.5583
  101fsi     F2 1409   1.919   3.053   1.785  0.2541 -0.2350 -0.0384
  102fsi     F1 1410   1.482   0.392   2.417  0.2421 -0.2714 -0.2833
  102fsi     S1 1411   1.357   0.361   2.503 -0.5401  0.6848 -0.0396
  102fsi      N 1412   1.344   0.484   2.595 -0.0031  0.2348  0.0382
  102fsi     O1 1413   1.257   0.346   2.409  0.1256  0.0039 -0.2268
  102fsi     O2 1414   1.397   0.243   2.573  0.7350  0.1639 -0.3569
  102fsi     S2 1415   1.442   0.538   2.700 -0.0245  0.0513 -0.2419
  102fsi     O3 1416   1.441   0.680   2.721  0.6288 -0.5253  0.3003
  102fsi     O4 1417   1.572   0.477   2.702  0.4106 -0.0802 -0.2205
  102fsi     F2 1418   1.377   0.477   2.830 -0.1416 -0.4178 -0.6515
  103fsi     F1 1419   0.991   0.799   1.616  0.1317 -0.0664  0.3623
  103fsi     S1 1420   0.905   0.901   1.519  0.0816  0.1526  0.0154
  103fsi      N 1421   0.758   0.855   1.565 -0.5210  0.6419  0.2272
  103fsi     O1 1422   0.949   1.032   1.553 -0.3562 -0.1207 -0.2033
  103fsi     O2 1423   0.935   0.856   1.386  0.3543  0.0137  0.6966
  103fsi     S2 1424   0.642   0.933   1.636  0.0822 -0.5689  0.2720
  103fsi     O3 1425   0.691   1.060   1.683  0.4822 -0.3870 -0.3285
  103fsi     O4 1426   0.567   0.851   1.727  0.2447  0.2782 -0.1629
  103fsi     F2 1427   0.548   0.973   1.520  0.2656  0.0186 -0.2129
  104fsi     F1 1428   0.293   1.984   0.459 -0.0679 -0.1869 -0.6364
  104fsi     S1 1429   0.302   2.095   0.566  0.2944  0.0970 -0.1285
  104fsi      N 1430   0.214   2.206   0.493 -0.0327 -0.5234 -0.3881
  104fsi     O1 1431   0.238   2.032   0.678 -0.0596  0.4546  0.1788
  104fsi     O2 1432   0.445   2.119   0.577  0.1591  0.5409 -0.1891
  104fsi     S2 1433   0.062   2.239   0.496 -0.0097 -0.3376 -0.1497
  104fsi     O3 1434   0.029   2.340   0.396  0.7851 -0.6721 -0.5836
  104fsi     O4 1435  -0.002   2.243   0.623  0.3574 -0.4322 -0.2478
  104fsi     F2 1436   0.004   2.108   0.425  0.5716  0.4280  0.6172
  105fsi     F1 1437   3.066   2.040   2.865 -0.8319  0.3291 -0.0842
  105fsi     S1 1438   3.034   2.167   2.967 -0.0110  0.0842 -0.2100
  105fsi      N 1439   3.175   2.190   3.037 -0.2222 -0.2782  0.3332
  105fsi     O1 1440   2.998   2.270   2.871  0.4345 -0.1951  0.1009
  105fsi     O2 1441   2.932   2.118   3.050 -0.0004 -0.5734 -0.1904
  105fsi     S2 1442   3.207   2.211   3.189 -0.2538 -0.4667 -0.1517
  105fsi     O3 1443   3.103   2.281   3.260  0.4037  0.4068  0.2567
  105fsi     O4 1444   3.340   2.252   3.227 -0.3809  0.2543 -0.4882
  105fsi     F2 1445   3.197   2.063   3.253 -0.2130  0.1996 -0.1018
  106fsi     F1 1446   0.699   2.165   0.099 -0.0104  0.2465 -0.3416
  106fsi     S1 1447   0.640   2.051   0.002  0.0054 -0.1107 -0.3099
  106fsi      N 1448   0.577   2.130  -0.121 -0.2072 -0.4339  0.5396
  106fsi     O1 1449   0.754   1.971  -0.035 -0.4167  0.1443 -0.1830
  106fsi     O2 1450   0.535   1.992   0.081 -0.0618  0.2827 -0.0466
  106fsi     S2 1451   0.430   2.131  -0.174 -0.2077 -0.0184  0.2298
  106fsi     O3 1452   0.404   2.258  -0.236  0.3395 -0.5749 -0.3068
  106fsi     O4 1453   0.333   2.073  -0.085 -0.2339  0.3816  0.0829
  106fsi     F2 1454   0.436   2.028  -0.302  0.0720 -0.1013  0.4247
  107fsi     F1 1455   1.638   3.221   0.781  0.6796  0.5360  0.1284
  107fsi     S1 1456   1.533   3.202   0.905 -0.1184  0.2444  0.0089
  107fsi      N 1457   1.482   3.354   0.905  0.1137  0.0584  0.3413
  107fsi     O1 1458   1.436   3.106   0.862  0.4659  0.4853  0.0374
  107fsi     O2 1459   1.614   3.165   1.016  0.4397  1.1315  0.1639
  107fsi     S2 1460   1.354   3.405   0.840 -0.1232 -0.3600 -0.2947
  107fsi     O3 1461   1.305   3.527   0.895  0.0750 -0.0722  0.5407
  107fsi     O4 1462   1.253   3.307   0.796  0.4135 -0.3634  0.0929
  107fsi     F2 1463   1.422   3.449   0.710 -0.2066  0.3249  0.8799
  108fsi     F1 1464   1.359   2.505   3.053 -0.0788  0.0148 -0.1176
  108fsi     S1 1465   1.497   2.525   3.134 -0.0532  0.0511  0.0968
  108fsi      N 1466   1.470   2.659   3.221  0.0542  0.0572  0.0220
  108fsi     O1 1467   1.516   2.403   3.201  0.4777  0.4800 -0.1913
  108fsi     O2 1468   1.587   2.560   3.030 -0.2096  0.0604  0.4138
  108fsi     S2 1469   1.416   2.666   3.366  0.0831  0.0310 -0.0403
  108fsi     O3 1470   1.374   2.542   3.426 -0.3771  0.2359  0.2932
  108fsi     O4 1471   1.328   2.776   3.384 -0.0461 -0.4725  0.0882
  108fsi     F2 1472   1.551   2.716   3.446 -0.0020 -0.2666 -0.1269
  109fsi     F1 1473   2.650   0.391   2.098 -0.4737  0.3512 -0.5707
  109fsi     S1 1474   2.667   0.507   1.997 -0.5644  0.2848 -0.0433
  109fsi      N 1475   2.531   0.580   2.019 -0.0475  0.4655 -0.1130
  109fsi     O1 1476   2.781   0.579   2.049  0.4070  0.0187 -0.6056
  109fsi     O2 1477   2.687   0.448   1.866 -0.3476 -0.2811  0.4153
  109fsi     S2 1478   2.414   0.615   1.918 -0.1388 -0.3054  0.2488
  109fsi     O3 1479   2.410   0.529   1.805 -0.0714 -0.2333 -0.9165
  109fsi     O4 1480   2.397   0.757   1.901 -0.1455 -0.3383  0.1807
  109fsi     F2 1481   2.280   0.579   2.002 -0.4954 -0.0789 -0.1761
  110fsi     F1 1482   2.869   2.346   1.961  0.4143 -0.1369  0.4126
  110fsi     S1 1483   2.739   2.428   2.015  0.0212 -0.3324 -0.1169
  110fsi      N 1484   2.734   2.547   1.909  0.3714  0.2837  0.3501
  110fsi     O1 1485   2.630   2.332   2.003  0.1605 -0.5316  0.6087
  110fsi     O2 1486   2.777   2.482   2.145  0.0352 -0.5412  0.2774
  110fsi     S2 1487   2.696   2.542   1.756 -0.1684 -0.7784 -0.3293
  110fsi     O3 1488   2.625   2.659   1.708 -0.2775  0.2782  0.4551
  110fsi     O4 1489   2.656   2.406   1.719  0.1037 -0.1296 -0.1311
  110fsi     F2 1490   2.825   2.567   1.683 -0.0380  0.1939 -0.0843
  111fsi     F1 1491   0.977   2.781   0.707 -0.5980  0.7047 -0.2041
  111fsi     S1 1492   1.052   2.896   0.623  0.3106 -0.1218 -0.5978
  111fsi      N 1493   0.958   3.016   0.616 -0.1017 -0.0190 -0.3575
  111fsi     O1 1494   1.169   2.919   0.701 -0.5025 -0.1475  0.4203
  111fsi     O2 1495   1.077   2.830   0.500  0.2171  0.0528  0.1624
  111fsi     S2 1496   0.918   3.122   0.723  0.3967  0.0734 -0.0429
  111fsi     O3 1497   0.872   3.242   0.656 -0.0871 -0.4662 -0.2978
  111fsi     O4 1498   0.997   3.133   0.841 -0.4644 -0.0555 -0.1136
  111fsi     F2 1499   0.786   3.058   0.786 -0.0824  0.2187 -0.0842
  112fsi     F1 1500   2.479   1.668   0.118  0.0128  0.0931  0.1898
  112fsi     S1 1501   2.556   1.644   0.252 -0.0934 -0.2379 -0.5959
  112fsi      N 1502   2.707   1.620   0.200  0.4256 -0.2056 -0.6055
  112fsi     O1 1503   2.528   1.763   0.329  0.1493  0.8404 -0.2078
  112fsi     O2 1504   2.493   1.523   0.304 -0.0234 -0.3080  0.6419
  112fsi     S2 1505   2.811   1.507   0.217  0.1659 -0.3213 -0.5273
  112fsi     O3 1506   2.906   1.491   0.109  0.2017  0.8014 -0.1614
  112fsi     O4 1507   2.754   1.383   0.268 -0.6114  0.4373  0.0396
  112fsi     F2 1508   2.897   1.565   0.340  0.1274 -0.2385  0.0712
  113fsi     F1 1509   2.690   0.031   3.133  0.1229  0.0719 -0.4216
  113fsi     S1 1510   2.729  -0.124   3.107  0.4596 -0.0774  0.0668
  113fsi      N 1511   2.871  -0.141   3.168  1.1157  0.7257  0.1264
  113fsi     O1 1512   2.623  -0.198   3.168 -0.1439 -0.9835 -0.3744
  113fsi     O2 1513   2.734  -0.128   2.965  0.5195  0.2516  0.3690
  113fsi     S2 1514   2.909  -0.204   3.307  0.1319  0.0494 -0.1693
  113fsi     O3 1515   3.000  -0.313   3.299 -0.0081  0.3749  0.5363
  113fsi     O4 1516   2.807  -0.214   3.409  0.3334  0.2442  0.3192
  113fsi     F2 1517   2.994  -0.087   3.369 -0.0178 -0.0217  0.1985
  114fsi     F1 1518   2.150   0.901   0.616 -0.0345  0.0728  0.1636
  114fsi     S1 1519   2.290   0.921   0.547  0.2534 -0.4414  0.0568
  114fsi      N 1520   2.290   1.065   0.492  0.2114 -0.2943 -0.2043
  114fsi     O1 1521   2.383   0.892   0.654  1.1838  0.3391  0.5062
  114fsi     O2 1522   2.288   0.822   0.446 -0.6253  0.3573  0.0858
  114fsi     S2 1523   2.337   1.202   0.557 -0.1768  0.3396 -0.4839
  114fsi     O3 1524   2.337   1.298   0.452 -1.0097 -0.0636  0.0796
  114fsi     O4 1525   2.445   1.203   0.652 -0.0673 -0.0931  0.1626
  114fsi     F2 1526   2.224   1.239   0.646 -0.0915 -0.8812  0.3920
  115fsi     F1 1527   1.929   3.237   0.463  0.1010  0.2455 -0.0786
  115fsi     S1 1528   2.045   3.139   0.506 -0.1938  0.2233  0.1137
  115fsi      N 1529   2.170   3.184   0.414 -0.7346 -0.5575  0.1916
  115fsi     O1 1530   2.057   3.177   0.644  0.4800  0.0513 -0.0610
  115fsi     O2 1531   1.998   3.009   0.476 -0.2462  0.1766  0.1359
  115fsi     S2 1532   2.278   3.295   0.432 -0.2553 -0.4168  0.0497
  115fsi     O3 1533   2.412   3.242   0.423 -0.0992 -0.4389 -0.3266
  115fsi     O4 1534   2.254   3.384   0.546 -0.3430 -0.0054  0.1360
  115fsi     F2 1535   2.250   3.384   0.305  0.1324 -0.1846  0.0621
  116fsi     F1 1536   2.905   1.715   2.206  0.3044 -0.2565  0.2690
  116fsi     S1 1537   2.911   1.615   2.324  0.2528 -0.0630 -0.2006
  116fsi      N 1538   2.760   1.605   2.366 -0.2865  0.2933  0.2684
  116fsi     O1 1539   2.961   1.491   2.261 -0.0750  0.0346  0.4442
  116fsi     O2 1540   2.998   1.673   2.416  0.0679 -0.1325  0.2650
  116fsi     S2 1541   2.678   1.687   2.470 -0.4810  0.6827  0.0714
  116fsi     O3 1542   2.756   1.777   2.554  0.0517 -0.7142  0.2246
  116fsi     O4 1543   2.582   1.602   2.532  0.0595 -0.2519  0.4500
  116fsi     F2 1544   2.587   1.789   2.385 -0.2341  0.4182  0.3816
  117fsi     F1 1545   2.788   3.122   2.078 -0.2977  0.2495  0.4294
  117fsi     S1 1546   2.710   3.253   2.083 -0.7101 -0.1055 -0.3638
  117fsi      N 1547   2.709   3.297   1.932  0.6879  0.3149  0.0898
  117fsi     O1 1548   2.579   3.216   2.135 -0.0968 -0.2089 -0.0270
  117fsi     O2 1549   2.797   3.335   2.167 -0.4140  0.0326  0.3676
  117fsi     S2 1550   2.599   3.281   1.820 -0.0642  0.0924  0.0382
  117fsi     O3 1551   2.597   3.405   1.755 -0.1901  0.2846 -0.3226
  117fsi     O4 1552   2.477   3.214   1.851 -0.4375  0.0050  0.0584
  117fsi     F2 1553   2.671   3.184   1.718  0.1769 -0.4441  0.0590
  118fsi     F1 1554   1.887   0.039   1.942 -0.3514 -0.0481  0.0863
  118fsi     S1 1555   1.868  -0.029   2.079  0.2109 -0.3373 -0.2888
  118fsi      N 1556   1.807   0.087   2.170  0.3567 -0.3497 -0.5041
  118fsi     O1 1557   1.767  -0.124   2.055  0.4295 -0.0839 -0.1525
  118fsi     O2 1558   2.003  -0.073   2.112  0.5023  0.3723  0.1726
  118fsi     S2 1559   1.858   0.158   2.305 -0.5724  0.3405 -0.2975
  118fsi     O3 1560   1.968   0.089   2.371  0.1840  0.4004  0.0130
  118fsi     O4 1561   1.748   0.198   2.391 -0.4118  0.1982 -0.4428
  118fsi     F2 1562   1.917   0.290   2.253 -0.0201 -0.2685 -0.4656
  119fsi     F1 1563   2.362   3.154   3.149 -0.1237 -0.3689 -0.1048
  119fsi     S1 1564   2.307   3.231   3.279 -0.2609  0.0635 -0.0224
  119fsi      N 1565   2.249   3.365   3.225  0.1900  0.1415 -0.2666
  119fsi     O1 1566   2.212   3.138   3.323  0.7572 -0.2388  0.4285
  119fsi     O2 1567   2.422   3.250   3.368 -0.0030  0.1155  0.4541
  119fsi     S2 1568   2.103   3.389   3.175  0.0343  0.1394 -0.3353
  119fsi     O3 1569   2.024   3.273   3.144 -0.7009  0.2482  0.4153
  119fsi     O4 1570   2.096   3.495   3.075  0.2212 -0.8088 -0.2248
  119fsi     F2 1571   2.023   3.448   3.294  0.0565  0.3087  0.4407
  120fsi     F1 1572   3.023   2.522   3.100  0.2500 -0.2141 -0.6177
  120fsi     S1 1573   2.899   2.559   3.192  0.2730  0.2835  0.2830
  120fsi      N 1574   2.846   2.689   3.130  0.0174 -0.4318  0.3794
  120fsi     O1 1575   2.809   2.450   3.182 -0.0781 -0.0660  0.6306
  120fsi     O2 1576   2.954   2.591   3.320 -0.5636 -0.1414  0.0294
  120fsi     S2 1577   2.810   2.725   2.981 -0.2482  0.1034  0.1835
  120fsi     O3 1578   2.826   2.616   2.889  0.4514 -0.2805  0.3797
  120fsi     O4 1579   2.860   2.856   2.946  0.0056 -0.0117 -0.5354
  120fsi     F2 1580   2.657   2.749   2.987 -0.5017 -0.3363  0.3476
  121fsi     F1 1581   2.849   0.765   0.476  0.0366 -0.0265 -0.4066
  121fsi     S1 1582   2.710   0.761   0.541 -0.1504 -0.0200  0.1681
  121fsi      N 1583   2.611   0.747   0.421  0.7905 -0.5727  0.0559
  121fsi     O1 1584   2.704   0.645   0.628  0.0207  0.0874 -0.4503
  121fsi     O2 1585   2.701   0.887   0.610 -0.5611  0.2811 -0.2086
  121fsi     S2 1586   2.572   0.620   0.344 -0.0515  0.2335 -0.1122
  121fsi     O3 1587   2.690   0.535   0.323 -0.1700  0.0835  0.0567
  121fsi     O4 1588   2.492   0.661   0.228  0.1481 -0.3715 -0.1239
  121fsi     F2 1589   2.480   0.543   0.438 -0.4167  0.1240 -0.0573
  122fsi     F1 1590   2.813   0.226   2.752  0.0326 -0.2824  0.1973
  122fsi     S1 1591   2.886   0.116   2.670  0.1122 -0.1174  0.0282
  122fsi      N 1592   3.019   0.196   2.647 -0.1943 -0.4210 -0.0009
  122fsi     O1 1593   2.900   0.009   2.763 -0.0613 -0.4056 -0.0540
  122fsi     O2 1594   2.805   0.105   2.549  0.7932  0.2669 -0.2624
  122fsi     S2 1595   3.127   0.242   2.749  0.2454  0.0889 -0.2991
  122fsi     O3 1596   3.099   0.223   2.889  0.4989 -0.3955 -0.0558
  122fsi     O4 1597   3.169   0.377   2.713 -0.3085  0.3497 -0.1605
  122fsi     F2 1598   3.251   0.152   2.717  0.3994  0.3900 -0.3815
  123fsi     F1 1599   1.491   0.420   0.577  0.8163 -0.2550 -0.4006
  123fsi     S1 1600   1.437   0.423   0.428  0.0518  0.0655  0.3626
  123fsi      N 1601   1.456   0.573   0.385 -0.1907 -0.0829 -0.6470
  123fsi     O1 1602   1.529   0.344   0.347  1.2675 -0.0279  0.0306
  123fsi     O2 1603   1.305   0.370   0.434 -0.3382 -0.7854 -0.2180
  123fsi     S2 1604   1.356   0.694   0.384 -0.7321  0.2170 -0.1948
  123fsi     O3 1605   1.232   0.658   0.449  0.3843 -0.6923  0.1737
  123fsi     O4 1606   1.345   0.759   0.254  0.0915  0.3252  0.3389
  123fsi     F2 1607   1.430   0.802   0.470 -0.0150 -0.0376  0.1144
  124fsi     F1 1608   0.036   0.968   2.675 -0.4797  0.0771  0.0940
  124fsi     S1 1609   0.071   0.832   2.744 -0.2961 -0.0320 -0.0167
  124fsi      N 1610  -0.047   0.809   2.844 -0.4074  0.8461 -0.1990
  124fsi     O1 1611   0.065   0.739   2.631 -0.6126 -1.0432  0.4444
  124fsi     O2 1612   0.198   0.850   2.811  0.5106 -0.2785 -0.5324
  124fsi     S2 1613  -0.193   0.754   2.832 -0.1206  0.2672  0.3751
  124fsi     O3 1614  -0.213   0.698   2.701 -0.0217  0.3682  0.1345
  124fsi     O4 1615  -0.298   0.831   2.883 -0.0640 -0.0772  0.0328
  124fsi     F2 1616  -0.201   0.624   2.923 -0.9005  0.1684  0.0609
  125fsi     F1 1617   2.646   1.856   0.863  0.5974 -0.7879  0.3267
  125fsi     S1 1618   2.609   2.006   0.844 -0.1423  0.1866  0.7602
  125fsi      N 1619   2.495   2.033   0.947 -0.1570 -0.0763  0.1330
  125fsi     O1 1620   2.722   2.086   0.872 -0.5765 -0.0730 -0.3294
  125fsi     O2 1621   2.560   2.019   0.711 -0.7250 -0.1589 -0.6204
  125fsi     S2 1622   2.507   2.029   1.107  0.2997  0.4315 -0.2810
  125fsi     O3 1623   2.640   1.997   1.160 -0.2719  0.5074  0.5570
  125fsi     O4 1624   2.392   1.970   1.168  0.0535 -0.2484 -0.0735
  125fsi     F2 1625   2.489   2.177   1.146 -0.1099 -0.3220 -0.4442
  126fsi     F1 1626   0.427   0.290   0.280  0.1564  0.0548 -0.4822
  126fsi     S1 1627   0.456   0.433   0.250 -0.1496 -0.1238 -0.0265
  126fsi      N 1628   0.491   0.487   0.391 -0.0213 -0.6221 -0.5634
  126fsi     O1 1629   0.577   0.426   0.174 -0.5553  0.3766  0.5110
  126fsi     O2 1630   0.336   0.483   0.191 -0.1542  0.4051  0.8390
  126fsi     S2 1631   0.401   0.572   0.497 -0.1032  0.2190  0.3504
  126fsi     O3 1632   0.303   0.660   0.442 -0.6664  0.2377 -0.0756
  126fsi     O4 1633   0.474   0.623   0.605  0.1827 -0.3806  0.1696
  126fsi     F2 1634   0.316   0.454   0.562  0.3155 -0.2948  0.2410
  127fsi     F1 1635   2.259   1.359   1.736 -0.5977  0.5708 -0.3122
  127fsi     S1 1636   2.358   1.248   1.682  0.2159 -0.0394  0.0407
  127fsi      N 1637   2.281   1.184   1.560  0.4855  0.0400 -0.8228
  127fsi     O1 1638   2.479   1.313   1.646  0.2591  0.0122  0.1355
  127fsi     O2 1639   2.365   1.163   1.801  0.1666  0.0948 -0.2607
  127fsi     S2 1640   2.174   1.068   1.560  0.2795 -0.1633  0.0453
  127fsi     O3 1641   2.193   0.968   1.662 -0.0783 -0.2802  0.0772
  127fsi     O4 1642   2.145   1.022   1.429  0.0297  0.3805 -0.1244
  127fsi     F2 1643   2.040   1.142   1.600  0.6960 -0.2598  0.1810
  128fsi     F1 1644   0.941   0.419   1.985 -0.0154  0.0899 -0.2163
  128fsi     S1 1645   0.873   0.453   2.128  0.6362 -0.3677  0.2936
  128fsi      N 1646   0.855   0.608   2.114  0.5758  0.2559  0.4432
  128fsi     O1 1647   0.755   0.372   2.117 -0.4100 -0.0063  0.2460
  128fsi     O2 1648   0.977   0.419   2.221 -0.1525  0.0256  0.5632
  128fsi     S2 1649   0.730   0.696   2.147  0.1697  0.0151  0.3191
  128fsi     O3 1650   0.627   0.626   2.214 -0.2892 -0.3509  0.1092
  128fsi     O4 1651   0.692   0.788   2.039  0.1840  0.3414 -0.9608
  128fsi     F2 1652   0.781   0.795   2.254 -0.0361 -0.2776  0.0950
  129fsi     F1 1653   0.736   0.879   0.011 -0.2295 -0.0257 -0.9296
  129fsi     S1 1654   0.637   0.805   0.116  0.0704 -0.3394  0.2784
  129fsi      N 1655   0.514   0.748   0.031 -0.6963  0.1762 -0.4351
  129fsi     O1 1656   0.719   0.698   0.164  0.0811  0.0956  0.3201
  129fsi     O2 1657   0.601   0.908   0.211  0.2292 -0.0772  0.2673
  129fsi     S2 1658   0.366   0.798   0.017 -0.1259  0.2531 -0.1891
  129fsi     O3 1659   0.272   0.772   0.127  0.0330  0.3067  0.0208
  129fsi     O4 1660   0.312   0.766  -0.112 -0.4353  0.4191  0.4024
  129fsi     F2 1661   0.383   0.954  -0.003 -0.3082 -0.0889  0.3020
  130fsi     F1 1662   0.454   2.605   0.442 -0.0146 -0.0889  0.0334
  130fsi     S1 1663   0.400   2.563   0.579 -0.1252 -0.2440 -0.2836
  130fsi      N 1664   0.463   2.666   0.683  0.9781  0.7200  0.0878
  130fsi     O1 1665   0.255   2.571   0.576 -0.7584  0.7626  0.0848
  130fsi     O2 1666   0.457   2.432   0.589 -0.7162 -0.7105  0.6433
  130fsi     S2 1667   0.393   2.792   0.743  0.2101  0.1065  0.1182
  130fsi     O3 1668   0.349   2.760   0.875  0.2060 -0.1152 -0.5539
  130fsi     O4 1669   0.311   2.876   0.663 -0.4011  0.1168 -0.5483
  130fsi     F2 1670   0.521   2.876   0.770 -0.2996  0.1032  0.0545
  131fsi     F1 1671   0.053   2.610   1.467 -0.1156 -0.0739  0.0890
  131fsi     S1 1672  -0.078   2.654   1.406 -0.0546  0.0654 -0.1536
  131fsi      N 1673  -0.039   2.667   1.258 -0.5588  0.0102 -0.2956
  131fsi     O1 1674  -0.156   2.533   1.426  0.2409 -0.0745  0.3062
  131fsi     O2 1675  -0.121   2.772   1.472  0.7249 -0.8798 -0.0754
  131fsi     S2 1676  -0.025   2.788   1.164  0.1083 -0.3792  0.2767
  131fsi     O3 1677  -0.052   2.917   1.223 -0.4257 -0.0676 -0.2799
  131fsi     O4 1678  -0.090   2.764   1.034 -0.0321  0.0419 -0.0392
  131fsi     F2 1679   0.132   2.786   1.133 -0.5046  0.2226  0.4930
  132fsi     F1 1680   1.361   1.187   2.547 -0.3766 -0.5824  0.0425
  132fsi     S1 1681   1.496   1.126   2.613 -0.4750 -0.1191  0.2030
  132fsi      N 1682   1.565   1.260   2.662  0.0389  0.6058  0.6859
  132fsi     O1 1683   1.436   1.039   2.709  0.0897 -0.0155 -0.1882
  132fsi     O2 1684   1.563   1.069   2.497  0.3577  0.5453 -0.0420
  132fsi     S2 1685   1.557   1.322   2.806  0.1200  0.4510 -0.2923
  132fsi     O3 1686   1.676   1.400   2.826 -0.0493 -0.3945  0.7451
  132fsi     O4 1687   1.519   1.231   2.913 -0.3217  0.6363 -0.4947
  132fsi     F2 1688   1.442   1.423   2.786  0.0657 -0.0557 -0.5238
  133fsi     F1 1689   1.652   2.963   2.237 -0.1750 -0.5133  0.1626
  133fsi     S1 1690   1.676   2.976   2.393  0.2891  0.2512  0.2370
  133fsi      N 1691   1.797   2.881   2.411  0.3610 -0.3805  0.0121
  133fsi     O1 1692   1.705   3.117   2.413 -0.2586 -0.5615 -0.6514
  133fsi     O2 1693   1.556   2.934   2.462  1.0000  0.1616 -0.3559
  133fsi     S2 1694   1.947   2.912   2.445 -0.2322 -0.2208 -0.0897
  133fsi     O3 1695   1.997   3.038   2.406 -0.0873  0.1103 -0.2863
  133fsi     O4 1696   2.030   2.798   2.433 -0.2689  0.2092  0.1116
  133fsi     F2 1697   1.945   2.931   2.602 -0.0845 -0.1798 -0.2408
  134fsi     F1 1698   2.032   0.204   1.693  0.4192  0.0672  0.2688
  134fsi     S1 1699   2.179   0.159   1.672 -0.0464  0.3104  0.1023
  134fsi      N 1700   2.173   0.105   1.523  0.5665  0.1824  0.1792
  134fsi     O1 1701   2.260   0.277   1.685 -0.7727  0.4575  0.3910
  134fsi     O2 1702   2.195   0.058   1.779 -0.6195 -0.0570  0.0433
  134fsi     S2 1703   2.174   0.182   1.390 -0.6267 -0.0271 -0.3515
  134fsi     O3 1704   2.146   0.323   1.407 -0.4294  0.0819  0.3641
  134fsi     O4 1705   2.103   0.104   1.292 -0.4073  0.5784  0.1124
  134fsi     F2 1706   2.323   0.172   1.336 -0.2125  0.4372 -0.5103
  135fsi     F1 1707   1.664   0.749   1.016  0.5292 -0.8829  0.4693
  135fsi     S1 1708   1.815   0.723   1.008  0.2265  0.5604  0.1187
  135fsi      N 1709   1.846   0.634   1.138  0.3077  0.0096  0.1268
  135fsi     O1 1710   1.832   0.656   0.883  0.1297  0.0884 -0.7233
  135fsi     O2 1711   1.876   0.854   1.007  0.9267 -0.5931 -0.2762
  135fsi     S2 1712   1.965   0.635   1.248  0.1591 -0.6279  0.2153
  135fsi     O3 1713   1.915   0.588   1.379  0.2589 -0.0571  0.6527
  135fsi     O4 1714   2.048   0.749   1.240  0.2272  0.2500 -0.0022
  135fsi     F2 1715   2.056   0.519   1.198 -0.2999 -0.2147 -0.2137
  136fsi     F1 1716   1.315   0.645   1.057 -0.2005 -0.5488  0.3519
  136fsi     S1 1717   1.226   0.755   1.121  0.2846  0.0892  0.1280
  136fsi      N 1718   1.254   0.872   1.021  0.1063  0.2423 -0.5546
  136fsi     O1 1719   1.095   0.691   1.115 -0.0639 -0.2103  0.1377
  136fsi     O2 1720   1.285   0.776   1.252  0.4326 -0.3274  0.1281
  136fsi     S2 1721   1.171   0.919   0.898  0.5808 -0.1422  0.3664
  136fsi     O3 1722   1.243   1.021   0.824 -0.0503 -0.5203  0.5859
  136fsi     O4 1723   1.034   0.943   0.920  0.1365 -0.2252  0.4195
  136fsi     F2 1724   1.169   0.792   0.797  0.0096 -0.1112  0.1141
  137fsi     F1 1725   3.234   2.851   2.610  0.2136  0.4064  0.4238
  137fsi     S1 1726   3.101   2.831   2.688  0.1896  0.0096 -0.2211
  137fsi      N 1727   2.996   2.789   2.577  0.0565  0.4154 -0.6641
  137fsi     O1 1728   3.121   2.731   2.790  0.6939  0.1659  0.5211
  137fsi     O2 1729   3.061   2.960   2.738 -0.2563  0.0755  0.0857
  137fsi     S2 1730   2.957   2.649   2.534 -0.2658 -0.0041  0.1702
  137fsi     O3 1731   3.032   2.541   2.589 -0.8777  0.6913 -0.4997
  137fsi     O4 1732   2.924   2.638   2.397  0.2246 -0.0067  1.2750
  137fsi     F2 1733   2.815   2.629   2.612 -0.3809  0.1147 -0.0834
  138fsi     F1 1734   0.005   2.731   3.245 -0.1676  0.3436  0.2756
  138fsi     S1 1735   0.111   2.654   3.326 -0.1831  0.0114 -0.0856
  138fsi      N 1736   0.190   2.775   3.389 -0.3099  0.0687 -0.0537
  138fsi     O1 1737   0.040   2.566   3.411  1.0617  0.6870  0.0556
  138fsi     O2 1738   0.186   2.593   3.221 -1.3929 -0.4591  0.0112
  138fsi     S2 1739   0.170   2.849   3.526 -0.0118  0.2021  0.3995
  138fsi     O3 1740   0.086   2.781   3.620  0.5090  0.2144  0.0439
  138fsi     O4 1741   0.165   2.992   3.513 -0.0830  0.0951  0.1903
  138fsi     F2 1742   0.312   2.831   3.596 -0.2904  0.4288 -0.0438
  139fsi     F1 1743   0.362   2.765   2.683  0.5403 -0.4015  0.0318
  139fsi     S1 1744   0.296   2.723   2.818  0.3485 -0.2016  0.2579
  139fsi      N 1745   0.183   2.627   2.765 -0.5621  0.1518 -0.4632
  139fsi     O1 1746   0.402   2.657   2.886  0.0226 -0.6663  0.1870
  139fsi     O2 1747   0.248   2.844   2.878 -0.3184  0.6837  0.4310
  139fsi     S2 1748   0.128   2.490   2.830  0.3533  0.1787 -0.2568
  139fsi     O3 1749  -0.009   2.452   2.803  0.1204 -0.5960  0.3821
  139fsi     O4 1750   0.173   2.471   2.968 -0.6397 -1.0636  0.1176
  139fsi     F2 1751   0.211   2.391   2.747 -0.0183 -0.0987  0.3183
  140fsi     F1 1752   1.315   2.762   2.896 -0.3510  0.1979 -0.3927
  140fsi     S1 1753   1.388   2.842   2.787  0.1008 -0.2561  0.4793
  140fsi      N 1754   1.311   2.977   2.776  0.1227  0.0227 -0.8981
  140fsi     O1 1755   1.518   2.856   2.851 -0.4262 -0.0319 -0.5672
  140fsi     O2 1756   1.378   2.746   2.680  0.4931 -0.7520 -0.3085
  140fsi     S2 1757   1.195   3.017   2.675  0.2285  0.0751 -0.4603
  140fsi     O3 1758   1.188   2.926   2.564 -0.3282 -0.1676 -0.1115
  140fsi     O4 1759   1.202   3.159   2.644  0.0762  0.2662  0.3112
  140fsi     F2 1760   1.070   2.994   2.759  0.3565  0.1027 -0.1867
  141fsi     F1 1761   2.327   0.613   2.765  0.1082 -0.1815 -0.6235
  141fsi     S1 1762   2.205   0.641   2.871 -0.1608  0.1278 -0.2016
  141fsi      N 1763   2.285   0.678   3.009 -0.0657  0.6735 -0.1374
  141fsi     O1 1764   2.144   0.762   2.817 -0.0477  0.2316  0.7691
  141fsi     O2 1765   2.125   0.521   2.871  0.0805  0.0041  0.1579
  141fsi     S2 1766   2.262   0.785   3.123 -0.0764 -0.3211  0.3141
  141fsi     O3 1767   2.317   0.734   3.244  0.0901 -1.0742 -0.5372
  141fsi     O4 1768   2.130   0.835   3.139  0.3749 -0.1154  0.2143
  141fsi     F2 1769   2.343   0.909   3.080 -0.3197  0.0185  0.1298
  142fsi     F1 1770   2.199   0.304   2.099 -0.0130  0.1243  0.4346
  142fsi     S1 1771   2.315   0.201   2.105  0.1285 -0.3425  0.0980
  142fsi      N 1772   2.397   0.233   2.234 -0.0406  0.1176  0.4363
  142fsi     O1 1773   2.250   0.076   2.107  0.2707 -0.0963  0.2762
  142fsi     O2 1774   2.395   0.232   1.990  0.2390 -0.1270  0.3693
  142fsi     S2 1775   2.378   0.175   2.374  0.3684 -0.1888 -0.4913
  142fsi     O3 1776   2.503   0.139   2.439  0.3112 -0.1529  0.1101
  142fsi     O4 1777   2.269   0.075   2.379  0.5302 -0.6007  0.0372
  142fsi     F2 1778   2.318   0.300   2.456  0.2096 -0.6130 -0.0644
  143fsi     F1 1779   0.134   0.755   1.601  0.2340 -0.1249  0.2365
  143fsi     S1 1780   0.132   0.910   1.589 -0.4826  0.0468  0.4705
  143fsi      N 1781   0.122   0.952   1.744 -0.1156 -1.1076 -0.3568
  143fsi     O1 1782   0.257   0.933   1.526 -0.1889  0.0788  0.6029
  143fsi     O2 1783   0.012   0.938   1.511 -0.0440 -0.1999  0.0880
  143fsi     S2 1784   0.200   1.062   1.825  0.3692  0.3371  0.1230
  143fsi     O3 1785   0.333   1.084   1.781 -0.0390  0.2744  0.1493
  143fsi     O4 1786   0.169   1.039   1.964 -0.1935 -0.2542  0.3592
  143fsi     F2 1787   0.121   1.190   1.784 -0.0866  0.2263 -0.4212
  144fsi     F1 1788   0.253   1.398   0.813 -0.2922  0.3891 -0.4307
  144fsi     S1 1789   0.241   1.345   0.959 -0.0510  0.2262 -0.1919
  144fsi      N 1790   0.312   1.201   0.948  0.0606  0.0276  0.2958
  144fsi     O1 1791   0.322   1.436   1.036  0.3121 -0.0724  0.1864
  144fsi     O2 1792   0.097   1.347   0.974 -0.5691 -0.5134 -0.1705
  144fsi     S2 1793   0.236   1.060   0.957  0.1411 -0.0519  0.0645
  144fsi     O3 1794   0.279   0.969   0.856  0.2666 -0.3114 -0.3843
  144fsi     O4 1795   0.095   1.070   0.979  0.4112 -0.1567  0.0243
  144fsi     F2 1796   0.284   1.001   1.093  0.4407  0.2859  0.1517
  145fsi     F1 1797   0.855   0.704   2.509 -0.1389 -0.5667  0.4874
  145fsi     S1 1798   1.013   0.700   2.528 -0.3033  0.4007  0.6011
  145fsi      N 1799   1.054   0.835   2.463  0.1855 -0.3410 -0.0709
  145fsi     O1 1800   1.027   0.701   2.675 -0.2990  0.7004 -0.1468
  145fsi     O2 1801   1.053   0.583   2.460  0.7346  0.3984 -0.1989
  145fsi     S2 1802   1.185   0.859   2.377  0.0656  0.5190 -0.2128
  145fsi     O3 1803   1.176   0.989   2.310  0.5199 -0.4002 -0.7389
  145fsi     O4 1804   1.232   0.742   2.304  0.5092 -0.3140  0.3294
  145fsi     F2 1805   1.294   0.876   2.489 -0.3403 -0.2092 -0.1644
  146fsi     F1 1806   2.319   1.784   2.649 -0.1618  0.0168  0.1858
  146fsi     S1 1807   2.319   1.869   2.777 -0.1278 -0.1361 -0.0068
  146fsi      N 1808   2.318   1.767   2.891 -0.2314 -0.2401  0.0412
  146fsi     O1 1809   2.446   1.935   2.770  0.1745  0.0235  0.2731
  146fsi     O2 1810   2.198   1.947   2.764  0.4469  0.0755 -0.4066
  146fsi     S2 1811   2.195   1.734   2.987 -0.3655 -0.1870  0.3353
  146fsi     O3 1812   2.127   1.616   2.949 -0.1754  0.4877  0.7328
  146fsi     O4 1813   2.116   1.842   3.042  0.3067  0.3479  0.5406
  146fsi     F2 1814   2.268   1.679   3.109  0.3018  0.0286  0.0052
  147fsi     F1 1815   2.737   3.064   1.448 -0.2506  0.4682 -0.2916
  147fsi     S1 1816   2.852   2.957   1.475 -0.0593  0.1019  0.4763
  147fsi      N 1817   2.937   3.029   1.586 -0.8824 -0.7168  0.7198
  147fsi     O1 1818   2.776   2.844   1.517  0.7605 -0.0395  0.2393
  147fsi     O2 1819   2.919   2.948   1.347  0.1356 -0.7141  0.9796
  147fsi     S2 1820   2.943   3.002   1.744 -0.1984 -0.0442 -0.1072
  147fsi     O3 1821   2.834   2.919   1.796  0.4334  0.3133  0.7722
  147fsi     O4 1822   2.971   3.117   1.821 -0.0397  0.2573 -0.2206
  147fsi     F2 1823   3.067   2.909   1.759  0.4234  0.3407 -0.0472
  148fsi     F1 1824   0.751   0.789   2.839  0.3886 -0.2642 -0.7100
  148fsi     S1 1825   0.640   0.700   2.916  0.2767  0.9187  0.3528
  148fsi      N 1826   0.623   0.569   2.820 -0.6230  0.1471 -0.1105
  148fsi     O1 1827   0.705   0.669   3.040 -0.3970 -0.6634  0.0575
  148fsi     O2 1828   0.523   0.779   2.912 -0.6766  0.3332 -0.2337
  148fsi     S2 1829   0.514   0.528   2.720 -0.5453  0.0887 -0.1843
  148fsi     O3 1830   0.399   0.616   2.717 -0.8421 -0.3463 -0.5777
  148fsi     O4 1831   0.489   0.389   2.720 -0.1945 -0.1365  0.5728
  148fsi     F2 1832   0.586   0.551   2.576 -0.2575 -0.3327 -0.1025
  149fsi     F1 1833   1.178   2.814   2.274 -0.3790 -0.2180  0.3778
  149fsi     S1 1834   1.285   2.733   2.195  0.2503 -0.5739  0.0822
  149fsi      N 1835   1.226   2.590   2.225 -0.3802 -0.6566 -0.0397
  149fsi     O1 1836   1.259   2.795   2.064  0.5071  0.4164 -0.0214
  149fsi     O2 1837   1.410   2.762   2.259  0.6591  0.2548 -0.1611
  149fsi     S2 1838   1.278   2.474   2.315  0.3422  0.0367 -0.2495
  149fsi     O3 1839   1.331   2.525   2.435  0.4353  0.4741 -0.8107
  149fsi     O4 1840   1.357   2.374   2.244  0.2298 -0.5065  0.5685
  149fsi     F2 1841   1.150   2.390   2.349  0.7143 -0.1747  0.1058
  150fsi     F1 1842   0.788   1.087   2.021  0.1118 -0.3381  0.0587
  150fsi     S1 1843   0.923   1.040   1.952 -0.1769 -0.0436 -0.0449
  150fsi      N 1844   0.947   1.171   1.871 -0.1263 -0.5746 -0.0515
  150fsi     O1 1845   1.009   1.026   2.063 -0.3173  0.7746  0.0838
  150fsi     O2 1846   0.898   0.927   1.875 -0.1492  0.3454 -0.1090
  150fsi     S2 1847   1.082   1.255   1.843  0.4858 -0.3242  0.5342
  150fsi     O3 1848   1.092   1.285   1.701  0.7571  0.8938 -0.0369
  150fsi     O4 1849   1.193   1.196   1.906 -0.3133  0.7305 -0.4536
  150fsi     F2 1850   1.062   1.395   1.908 -0.2937  0.3130 -0.0951
  151fsi     F1 1851   0.013   1.474   2.576  0.0680 -0.0064 -0.1749
  151fsi     S1 1852  -0.056   1.329   2.586  0.0199 -0.4269  0.0285
  151fsi      N 1853  -0.201   1.367   2.556 -0.5323 -0.2588 -0.4922
  151fsi     O1 1854   0.008   1.262   2.479  0.0118  0.4349 -0.3767
  151fsi     O2 1855  -0.023   1.289   2.721  0.0322 -0.6423  0.3444
  151fsi     S2 1856  -0.325   1.370   2.650  0.0065  0.3139  0.6064
  151fsi     O3 1857  -0.316   1.309   2.782 -0.4240  0.0884  0.0181
  151fsi     O4 1858  -0.447   1.340   2.580 -0.4540  0.0969 -0.4847
  151fsi     F2 1859  -0.338   1.515   2.691 -0.2559  0.4997 -0.5828
  152fsi     F1 1860   1.254   0.802   1.789  0.1994  0.0527  0.5269
  152fsi     S1 1861   1.252   0.765   1.948 -0.1836 -0.1778 -0.5118
  152fsi      N 1862   1.368   0.660   1.952 -0.2738  0.0823 -0.0443
  152fsi     O1 1863   1.288   0.887   2.014  0.2616  0.2988 -0.2837
  152fsi     O2 1864   1.116   0.716   1.964  0.1548 -0.2036 -0.0710
  152fsi     S2 1865   1.376   0.518   2.014  0.1873 -0.3133  0.1787
  152fsi     O3 1866   1.277   0.505   2.115 -0.1970  0.2035  0.1537
  152fsi     O4 1867   1.511   0.474   2.047  0.2005  0.3317 -0.0260
  152fsi     F2 1868   1.340   0.420   1.888 -0.2889 -0.0441 -0.1444
  153fsi     F1 1869   1.758   1.026   2.159  0.1520 -0.0801 -0.1808
  153fsi     S1 1870   1.753   1.182   2.153 -0.2701  0.2154 -0.0478
  153fsi      N 1871   1.602   1.211   2.120  0.0976  0.6700 -0.0646
  153fsi     O1 1872   1.794   1.225   2.286 -0.3599  1.0233  0.8262
  153fsi     O2 1873   1.848   1.216   2.043 -0.4506 -0.6406  0.1841
  153fsi     S2 1874   1.488   1.278   2.202 -0.1024 -0.0710  0.5814
  153fsi     O3 1875   1.528   1.320   2.329  0.0753  0.0330 -0.2199
  153fsi     O4 1876   1.369   1.201   2.197 -0.2393  0.0122 -0.6150
  153fsi     F2 1877   1.458   1.409   2.123 -0.0432  0.1454 -0.0883
  154fsi     F1 1878   0.680   2.476   3.247  0.7316 -0.0495 -0.1478
  154fsi     S1 1879   0.545   2.537   3.301  0.2820  0.0781  0.1467
  154fsi      N 1880   0.451   2.411   3.312 -0.7564  0.1587 -0.3298
  154fsi     O1 1881   0.579   2.604   3.421  0.2698 -0.1195 -0.4140
  154fsi     O2 1882   0.501   2.619   3.194 -0.1034 -0.2411 -0.3310
  154fsi     S2 1883   0.414   2.333   3.444 -0.0500  0.0460 -0.0157
  154fsi     O3 1884   0.524   2.327   3.539 -0.1954  0.1634  0.1090
  154fsi     O4 1885   0.349   2.206   3.429  0.0564  0.1113 -0.0057
  154fsi     F2 1886   0.308   2.427   3.516  0.0993  0.1217 -0.3660
  155fsi     F1 1887   3.085   2.716   0.771  0.2226  0.5292  0.1827
  155fsi     S1 1888   3.042   2.608   0.670  0.4879  0.1348  0.0237
  155fsi      N 1889   2.973   2.697   0.565  0.3429 -0.3042 -0.1457
  155fsi     O1 1890   3.170   2.557   0.630  0.6292  0.4883  0.0145
  155fsi     O2 1891   2.949   2.531   0.751  0.4900 -0.1774  0.1447
  155fsi     S2 1892   2.968   2.678   0.410 -0.4853  0.2582 -0.0072
  155fsi     O3 1893   3.053   2.576   0.356  0.2361  0.4730 -0.7594
  155fsi     O4 1894   2.953   2.800   0.335 -0.1666 -0.4987 -0.2579
  155fsi     F2 1895   2.829   2.618   0.395 -0.5717  0.5353 -0.0787
  156fsi     F1 1896   0.318   1.946   1.323  0.5279  0.3241 -0.0694
  156fsi     S1 1897   0.199   1.900   1.217  0.3479  0.6840 -0.1033
  156fsi      N 1898   0.083   2.003   1.249  0.0469 -0.7114 -0.3063
  156fsi     O1 1899   0.258   1.938   1.091  0.2944 -0.0814 -0.5163
  156fsi     O2 1900   0.177   1.760   1.248  0.0968 -1.0226  0.6405
  156fsi     S2 1901  -0.062   1.977   1.310 -0.2058 -0.2646 -0.3660
  156fsi     O3 1902  -0.104   1.846   1.340 -0.5272 -0.1704  0.0239
  156fsi     O4 1903  -0.153   2.076   1.256 -0.6484 -0.2317 -0.4290
  156fsi     F2 1904  -0.047   2.041   1.457  0.0946  0.6438 -0.2327
  157fsi     F1 1905   0.850   2.642   0.223  0.1970 -0.4776 -0.3086
  157fsi     S1 1906   0.974   2.652   0.122 -0.3278 -0.0810 -0.1234
  157fsi      N 1907   0.904   2.665  -0.017  0.2555  0.2548  0.3067
  157fsi     O1 1908   1.038   2.775   0.163  0.1095  0.0763  0.2192
  157fsi     O2 1909   1.052   2.530   0.142  0.3036 -0.1534  0.0775
  157fsi     S2 1910   0.869   2.778  -0.120  0.5572  0.1859  0.1402
  157fsi     O3 1911   0.862   2.909  -0.057  0.1668  0.2047  0.5329
  157fsi     O4 1912   0.769   2.742  -0.216  0.8113  0.5080 -0.3627
  157fsi     F2 1913   1.003   2.779  -0.198 -0.0112 -0.0489  0.4760
  158fsi     F1 1914   0.165   0.440   2.320 -0.4291  0.4313 -0.4040
  158fsi     S1 1915   0.282   0.346   2.376 -0.3481  0.2443 -0.2658
  158fsi      N 1916   0.260   0.221   2.283 -0.2510 -0.4953  0.0133
  158fsi     O1 1917   0.408   0.416   2.346 -0.2188 -0.0882 -0.0067
  158fsi     O2 1918   0.250   0.313   2.513  0.1042  0.5862 -0.3394
  158fsi     S2 1919   0.349   0.159   2.171  0.1083  0.1755 -0.1420
  158fsi     O3 1920   0.460   0.242   2.131  0.4470  0.0426  0.1724
  158fsi     O4 1921   0.269   0.095   2.074 -0.2868  0.6082 -0.0700
  158fsi     F2 1922   0.419   0.036   2.239  0.0031  0.1719 -0.2011
  159fsi     F1 1923   2.977   0.214   0.635  0.2841 -0.1031  0.6397
  159fsi     S1 1924   3.058   0.337   0.654  0.1340 -0.1384  0.1866
  159fsi      N 1925   3.155   0.348   0.532  0.5435  0.3865 -0.3034
  159fsi     O1 1926   2.962   0.448   0.660 -0.0323 -0.4660  0.8565
  159fsi     O2 1927   3.122   0.304   0.776  0.2258 -0.1123 -0.9760
  159fsi     S2 1928   3.159   0.439   0.404 -0.1889 -0.0314 -0.1875
  159fsi     O3 1929   3.284   0.514   0.394  0.0428 -0.6822 -0.3791
  159fsi     O4 1930   3.041   0.515   0.369  0.0661  0.6228 -0.3023
  159fsi     F2 1931   3.165   0.333   0.278 -0.4405 -0.1290 -0.0414
  160fsi     F1 1932   2.229   2.032   0.587  0.2516  0.1016 -0.1118
  160fsi     S1 1933   2.203   2.020   0.430  0.1076 -0.0617 -0.6207
  160fsi      N 1934   2.156   1.871   0.418 -0.1406 -0.5692  0.4828
  160fsi     O1 1935   2.097   2.115   0.398  0.5899  0.5432  0.0826
  160fsi     O2 1936   2.338   2.045   0.384 -0.4472  0.6469 -0.3700
  160fsi     S2 1937   2.139   1.803   0.277 -0.2510 -0.0682  0.1228
  160fsi     O3 1938   2.202   1.673   0.279  0.2598 -0.1534 -0.2479
  160fsi     O4 1939   2.164   1.886   0.162  0.3287  0.3110  0.0159
  160fsi     F2 1940   1.986   1.758   0.277 -0.4941 -0.1706  0.1676
  161fsi     F1 1941   1.066   0.604   1.429 -0.4634  0.1789 -0.5135
  161fsi     S1 1942   1.048   0.461   1.498 -0.0495 -0.0760 -0.1800
  161fsi      N 1943   0.976   0.491   1.633  0.3878  0.2466 -0.4581
  161fsi     O1 1944   0.964   0.388   1.409 -0.6657 -0.3165 -0.1055
  161fsi     O2 1945   1.184   0.412   1.521 -0.4604  0.0115 -0.2605
  161fsi     S2 1946   0.824   0.511   1.664 -0.3935  0.0895 -0.2979
  161fsi     O3 1947   0.741   0.542   1.549  0.4009 -0.4081 -0.5185
  161fsi     O4 1948   0.806   0.593   1.780  0.0242  0.1605 -0.0845
  161fsi     F2 1949   0.771   0.374   1.714  0.3188  0.3642 -0.5784
  162fsi     F1 1950   1.447   1.718   0.271  0.5257 -0.5709 -0.3118
  162fsi     S1 1951   1.597   1.776   0.278  0.2956  0.0999 -0.1436
  162fsi      N 1952   1.668   1.724   0.159 -0.5238 -0.1575  0.7405
  162fsi     O1 1953   1.589   1.921   0.274  0.4224  0.2078  0.1365
  162fsi     O2 1954   1.640   1.719   0.405  0.0549  0.0115  0.0349
  162fsi     S2 1955   1.649   1.768   0.006  0.1932 -0.0141 -0.2376
  162fsi     O3 1956   1.531   1.850  -0.015  0.2210 -0.3307 -0.2463
  162fsi     O4 1957   1.684   1.658  -0.088  0.1588  0.5353  0.3502
  162fsi     F2 1958   1.753   1.872  -0.016  0.1833 -0.2857 -0.0367
  163fsi     F1 1959   2.927   2.282   0.498 -0.1902 -0.4759  0.0115
  163fsi     S1 1960   2.887   2.223   0.362 -0.1048  0.2713  0.4025
  163fsi      N 1961   2.946   2.077   0.367 -0.0779 -0.3307 -0.7958
  163fsi     O1 1962   2.743   2.223   0.363 -0.3974  0.2234  0.2787
  163fsi     O2 1963   2.954   2.310   0.272 -0.1493  0.9999  0.9369
  163fsi     S2 1964   2.886   1.939   0.410  0.2493 -0.1856 -0.4512
  163fsi     O3 1965   2.773   1.958   0.498  0.3121 -0.0932  0.4003
  163fsi     O4 1966   2.977   1.838   0.433 -0.0854 -0.2353  0.4089
  163fsi     F2 1967   2.820   1.904   0.275  0.7525 -0.3709 -0.7056
  164fsi     F1 1968   3.161   1.798   0.119 -0.3830  0.2766  0.6391
  164fsi     S1 1969   3.308   1.753   0.151  0.2851  0.1066 -0.2337
  164fsi      N 1970   3.298   1.690   0.294 -0.7110 -0.8308 -0.0123
  164fsi     O1 1971   3.345   1.661   0.048 -0.3170 -0.0387 -0.3363
  164fsi     O2 1972   3.383   1.874   0.148 -0.2342 -0.2958 -1.0258
  164fsi     S2 1973   3.274   1.541   0.326 -0.1071  0.1025 -0.1232
  164fsi     O3 1974   3.221   1.449   0.227 -0.7302 -1.3486 -0.4158
  164fsi     O4 1975   3.220   1.528   0.464  0.3850  0.5808 -0.4598
  164fsi     F2 1976   3.422   1.503   0.346 -0.4010  0.2479 -0.3239
  165fsi     F1 1977   2.073   2.077   1.715 -0.4060  0.5138 -0.4897
  165fsi     S1 1978   2.127   2.228   1.708  0.3986  0.0359  0.2266
  165fsi      N 1979   2.250   2.202   1.606 -0.1666 -0.4082 -0.3487
  165fsi     O1 1980   2.018   2.301   1.644  0.0591  0.4290  0.1768
  165fsi     O2 1981   2.164   2.256   1.844 -0.2670 -0.3031  0.3349
  165fsi     S2 1982   2.286   2.270   1.468 -0.7434 -0.2700  0.0181
  165fsi     O3 1983   2.426   2.293   1.457 -0.0552  0.2231  0.2347
  165fsi     O4 1984   2.199   2.377   1.425 -0.3686  0.1923 -0.1453
  165fsi     F2 1985   2.270   2.156   1.358 -0.0652 -0.1721 -0.0675
  166fsi     F1 1986   2.974   1.203   1.928  0.2884  0.0363  0.0125
  166fsi     S1 1987   2.986   1.069   1.840 -0.0822 -0.4538  0.0823
  166fsi      N 1988   2.833   1.010   1.822  0.2137 -0.3844 -0.9748
  166fsi     O1 1989   3.042   1.126   1.720 -0.0993  0.5136 -0.2933
  166fsi     O2 1990   3.072   0.990   1.923  0.7551 -0.2849  0.3835
  166fsi     S2 1991   2.739   0.935   1.919 -0.0396  0.2251 -0.1750
  166fsi     O3 1992   2.605   0.987   1.913  0.2157 -0.3451  0.4026
  166fsi     O4 1993   2.784   0.892   2.047  0.1390  0.2273  0.0685
  166fsi     F2 1994   2.717   0.794   1.847 -0.8694 -0.2886  0.4695
  167fsi     F1 1995   1.028   0.515   0.201  0.0832  0.2415  0.3384
  167fsi     S1 1996   1.002   0.453   0.057  0.0755  0.0494 -0.3554
  167fsi      N 1997   1.130   0.489  -0.025  0.0424  0.3960 -0.8294
  167fsi     O1 1998   0.981   0.311   0.099  0.0667  0.3545  0.0039
  167fsi     O2 1999   0.881   0.520   0.018 -0.3405 -0.1494  0.0615
  167fsi     S2 2000   1.246   0.397  -0.062  0.3290 -0.0677 -0.0519
  167fsi     O3 2001   1.336   0.463  -0.157  0.8051  0.2226  0.7069
  167fsi     O4 2002   1.217   0.260  -0.089 -0.4694  0.2540 -0.2751
  167fsi     F2 2003   1.323   0.387   0.076  0.1382  0.4213  0.3361
  168fsi     F1 2004   1.034   2.896   1.187 -0.0377  0.5743 -0.2124
  168fsi     S1 2005   1.185   2.910   1.215  0.0191 -0.0515 -0.2385
  168fsi      N 2006   1.203   3.046   1.300  0.1617  0.1052 -0.2322
  168fsi     O1 2007   1.205   2.791   1.294 -0.5914  0.2364  0.5930
  168fsi     O2 2008   1.243   2.908   1.079 -0.0091 -0.1310  0.1167
  168fsi     S2 2009   1.198   3.196   1.246  0.0756 -0.1743 -0.1500
  168fsi     O3 2010   1.210   3.211   1.105  0.2238  0.2699  0.3210
  168fsi     O4 2011   1.291   3.277   1.322 -0.7339 -0.5900 -0.9820
  168fsi     F2 2012   1.047   3.243   1.287 -0.2322  0.0546  0.3286
  169fsi     F1 2013   2.843   0.759   1.082 -0.2172 -0.5301  0.5438
  169fsi     S1 2014   2.917   0.889   1.037  0.6877  0.0150 -0.1735
  169fsi      N 2015   2.817   0.998   1.073 -0.1054  1.3721  0.7468
  169fsi     O1 2016   3.023   0.886   1.130 -0.1397 -0.3887  0.1868
  169fsi     O2 2017   2.936   0.875   0.898 -0.0823  0.7877  0.1647
  169fsi     S2 2018   2.738   1.106   0.990  0.2622  0.1043 -0.6266
  169fsi     O3 2019   2.659   1.194   1.074 -0.1943 -0.2411  0.0888
  169fsi     O4 2020   2.683   1.050   0.871 -0.1399 -0.2423 -0.3691
  169fsi     F2 2021   2.853   1.195   0.939  0.2864 -0.5657 -0.1519
  170fsi     F1 2022   2.911   0.681   0.186 -0.5372  0.0715 -0.2344
  170fsi     S1 2023   2.995   0.805   0.146 -0.0481  0.0584  0.0342
  170fsi      N 2024   3.067   0.755   0.017  0.7307 -0.0570 -0.0145
  170fsi     O1 2025   2.900   0.913   0.115  0.5750  0.0146  0.6807
  170fsi     O2 2026   3.076   0.822   0.261  0.0938  0.5486  0.4391
  170fsi     S2 2027   3.210   0.689  -0.004 -0.0249  0.0589  0.0581
  170fsi     O3 2028   3.236   0.647  -0.141  0.0954 -0.2520 -0.1986
  170fsi     O4 2029   3.267   0.609   0.100  0.0645 -0.1923 -0.1772
  170fsi     F2 2030   3.289   0.820   0.008 -0.6735  0.0800  0.6484
  171fsi     F1 2031   2.137   0.997   0.891 -0.8164  0.2725  0.9782
  171fsi     S1 2032   2.257   0.944   0.978  0.5375  0.3608  0.1394
  171fsi      N 2033   2.251   0.786   0.951 -0.1915 -0.3252  0.0281
  171fsi     O1 2034   2.378   1.008   0.932  0.1255  0.1626  0.3859
  171fsi     O2 2035   2.213   0.965   1.116  0.2167 -0.4159 -0.1618
  171fsi     S2 2036   2.363   0.673   0.940  0.3400 -0.0640 -0.1536
  171fsi     O3 2037   2.495   0.725   0.911 -0.1939  0.4911 -0.9629
  171fsi     O4 2038   2.318   0.562   0.857 -0.7662  0.5120 -0.5424
  171fsi     F2 2039   2.375   0.615   1.082 -0.4543  0.5859 -0.1636
  172fsi     F1 2040   2.283   2.834   1.476 -0.0038  0.5664 -0.2825
  172fsi     S1 2041   2.380   2.952   1.507  0.0018  0.3249  0.3335
  172fsi      N 2042   2.457   2.980   1.374  0.3568  0.4061  0.4622
  172fsi     O1 2043   2.285   3.052   1.553 -0.5449  0.4307  0.5114
  172fsi     O2 2044   2.472   2.905   1.608 -0.0384  0.0492 -0.1092
  172fsi     S2 2045   2.406   3.051   1.242 -0.1756  0.4001  0.2017
  172fsi     O3 2046   2.271   3.103   1.255 -0.1490 -0.1745  0.2383
  172fsi     O4 2047   2.451   2.996   1.118  0.2143 -0.4389  0.1638
  172fsi     F2 2048   2.483   3.189   1.242  0.0023 -0.1158  0.4525
  173fsi     F1 2049   0.440   0.246   3.203  0.3115 -0.4357 -0.2437
  173fsi     S1 2050   0.504   0.324   3.082 -0.1141 -0.1411 -0.4351
  173fsi      N 2051   0.393   0.438   3.056 -0.5625  0.4657 -0.1425
  173fsi     O1 2052   0.630   0.381   3.131  0.4274  0.2415 -0.3376
  173fsi     O2 2053   0.518   0.223   2.984 -0.8679  0.1125  0.1060
  173fsi     S2 2054   0.248   0.412   2.994 -0.3219 -0.0599  0.0060
  173fsi     O3 2055   0.232   0.282   2.930  0.2065  0.0394 -0.2880
  173fsi     O4 2056   0.194   0.521   2.923  0.1638  0.3027 -0.5451
  173fsi     F2 2057   0.166   0.395   3.123  0.0231 -0.2025 -0.1604
  174fsi     F1 2058   0.213   3.025   1.349  0.6061 -0.1995 -0.4521
  174fsi     S1 2059   0.165   3.145   1.432 -0.0510 -0.0254  0.0735
  174fsi      N 2060   0.134   3.253   1.317 -0.4873  0.0710  0.0847
  174fsi     O1 2061   0.058   3.093   1.515 -0.5869  0.6354  0.1026
  174fsi     O2 2062   0.285   3.188   1.508  0.0321 -0.2974  0.0631
  174fsi     S2 2063   0.006   3.325   1.275  0.3014 -0.3224  0.1680
  174fsi     O3 2064  -0.117   3.258   1.319  0.0762 -0.6396  0.3988
  174fsi     O4 2065   0.013   3.378   1.140 -0.4178 -0.0903  0.3036
  174fsi     F2 2066   0.015   3.450   1.366  0.3089 -0.0970  0.4188
  175fsi     F1 2067   2.664   1.102   0.097 -0.1356  0.0557 -0.4769
  175fsi     S1 2068   2.554   1.081   0.213  0.0035 -0.2588 -0.1370
  175fsi      N 2069   2.468   1.214   0.204  0.5494  0.4926  0.0987
  175fsi     O1 2070   2.487   0.959   0.176 -0.2722  0.1257 -0.1283
  175fsi     O2 2071   2.626   1.082   0.335  0.5116 -0.2510  0.2976
  175fsi     S2 2072   2.341   1.241   0.114 -0.2309  0.0634  0.1374
  175fsi     O3 2073   2.340   1.188  -0.022  0.0337  0.3165 -0.4215
  175fsi     O4 2074   2.296   1.374   0.135  0.2947  0.4291  0.4469
  175fsi     F2 2075   2.238   1.150   0.194  0.4256  0.2586  0.0171
  176fsi     F1 2076   2.255   2.403   1.137  0.6638 -0.2693 -0.0894
  176fsi     S1 2077   2.148   2.487   1.052  0.0688  0.2932  0.0729
  176fsi      N 2078   2.045   2.519   1.167 -0.7806 -0.3110 -0.2711
  176fsi     O1 2079   2.222   2.600   1.002  0.4553  0.2746  0.4434
  176fsi     O2 2080   2.103   2.389   0.955  0.8148 -0.1821  0.2389
  176fsi     S2 2081   1.920   2.446   1.219  0.0078 -0.2193 -0.0175
  176fsi     O3 2082   1.911   2.468   1.360  0.4603 -0.2451  0.3149
  176fsi     O4 2083   1.898   2.315   1.161  0.2219 -0.4198  0.1372
  176fsi     F2 2084   1.797   2.528   1.171 -0.6402 -0.5581  0.4483
  177fsi     F1 2085   2.280   2.734   1.868 -0.1272 -0.3175 -0.5836
  177fsi     S1 2086   2.235   2.587   1.847  0.0131 -0.4975 -0.3857
  177fsi      N 2087   2.174   2.561   1.988  0.5255  0.1764 -0.5277
  177fsi     O1 2088   2.145   2.588   1.732  0.2477  0.3545 -0.1313
  177fsi     O2 2089   2.360   2.527   1.823  0.2132  0.1006  0.2135
  177fsi     S2 2090   2.238   2.479   2.114  0.1642  0.1401  0.4548
  177fsi     O3 2091   2.263   2.565   2.229 -0.6174 -0.3745 -0.1776
  177fsi     O4 2092   2.345   2.389   2.080 -0.3691  0.0164 -0.5636
  177fsi     F2 2093   2.116   2.385   2.151 -0.1919 -0.0855 -0.4388
  178fsi     F1 2094   1.903   2.283   2.499 -0.3135 -0.3910 -0.4345
  178fsi     S1 2095   1.882   2.437   2.464  0.2384  0.0784  0.4197
  178fsi      N 2096   1.850   2.505   2.605  0.1407 -0.0981 -0.6555
  178fsi     O1 2097   2.007   2.488   2.417 -0.0616 -0.0286 -0.1048
  178fsi     O2 2098   1.770   2.429   2.370  0.1120  0.0277  0.7092
  178fsi     S2 2099   1.731   2.591   2.659  0.0211 -0.0479 -0.0970
  178fsi     O3 2100   1.649   2.648   2.557  0.7907  0.0081 -0.2010
  178fsi     O4 2101   1.763   2.679   2.767 -0.1879 -0.1851  1.1706
  178fsi     F2 2102   1.637   2.484   2.728  0.3941 -0.0764 -0.8397
  179fsi     F1 2103   0.094   0.435   1.975 -0.2879  0.2566 -0.8357
  179fsi     S1 2104   0.194   0.559   1.966 -0.1288 -0.2111  0.0816
  179fsi      N 2105   0.264   0.527   1.827 -0.0717 -0.9914  0.0626
  179fsi     O1 2106   0.110   0.679   1.960  0.2980 -0.4605 -0.0058
  179fsi     O2 2107   0.282   0.543   2.079  0.0919 -0.6653 -0.0187
  179fsi     S2 2108   0.405   0.477   1.790 -0.1808 -0.0872  0.3810
  179fsi     O3 2109   0.504   0.493   1.894  0.2211 -0.4536 -0.4703
  179fsi     O4 2110   0.445   0.519   1.659 -0.5960  0.2514  0.3249
  179fsi     F2 2111   0.388   0.320   1.768  0.0276  0.0231 -0.2753
  180fsi     F1 2112   0.310   3.050   2.689 -0.6584 -0.6333 -0.1772
  180fsi     S1 2113   0.420   3.164   2.718 -0.0459 -0.3777  0.3259
  180fsi      N 2114   0.478   3.141   2.861  0.0647 -0.7575  0.7702
  180fsi     O1 2115   0.514   3.157   2.612 -0.2597 -0.2807 -0.0926
  180fsi     O2 2116   0.333   3.282   2.716 -0.4696 -0.3109  0.4046
  180fsi     S2 2117   0.576   3.042   2.927  0.0903  0.0697  0.1241
  180fsi     O3 2118   0.610   2.934   2.838 -0.4317  0.0333  0.4206
  180fsi     O4 2119   0.543   3.004   3.063  0.5058 -0.2368 -0.1617
  180fsi     F2 2120   0.717   3.122   2.938  0.5874 -0.2630  0.2880
  181fsi     F1 2121   1.566   2.777   0.482  0.2111  0.2283 -0.2445
  181fsi     S1 2122   1.460   2.695   0.558  0.3584 -0.1610 -0.0127
  181fsi      N 2123   1.528   2.551   0.568 -0.3943  0.7730  0.0540
  181fsi     O1 2124   1.459   2.758   0.687 -0.1854 -0.0218 -0.1791
  181fsi     O2 2125   1.346   2.709   0.471  0.0036  0.1433 -0.3095
  181fsi     S2 2126   1.454   2.412   0.563  0.1297 -0.1054  0.0553
  181fsi     O3 2127   1.500   2.309   0.468 -0.3807  0.0532 -0.3064
  181fsi     O4 2128   1.311   2.420   0.586 -0.2745  0.1524 -0.2148
  181fsi     F2 2129   1.506   2.353   0.698  0.1517  0.1768 -0.5085
  182fsi     F1 2130   2.682   1.555   0.803  0.5012  0.2694  0.6087
  182fsi     S1 2131   2.625   1.557   0.653  0.2873  0.1539  0.0480
  182fsi      N 2132   2.468   1.529   0.669 -0.8005 -0.3549 -0.1485
  182fsi     O1 2133   2.660   1.692   0.614  0.6560 -0.0583  0.2011
  182fsi     O2 2134   2.683   1.446   0.584  0.0691 -0.1159  0.3976
  182fsi     S2 2135   2.354   1.633   0.659  0.0831  0.2692 -0.2156
  182fsi     O3 2136   2.243   1.584   0.574  0.5158 -0.4007  0.1871
  182fsi     O4 2137   2.397   1.775   0.645 -0.5657 -0.0354  0.7895
  182fsi     F2 2138   2.279   1.633   0.797  0.2108  0.4953 -0.6597
  183fsi     F1 2139   2.428   2.778   0.078 -0.4294 -0.1636  0.4687
  183fsi     S1 2140   2.521   2.808   0.198  0.2762 -0.4253 -0.3205
  183fsi      N 2141   2.449   2.740   0.314  0.6812 -0.0854 -0.0382
  183fsi     O1 2142   2.646   2.744   0.168  0.0988  0.6159  0.4570
  183fsi     O2 2143   2.521   2.954   0.218  0.3993  0.5272  0.4874
  183fsi     S2 2144   2.306   2.774   0.363 -0.3157 -0.0456 -0.2573
  183fsi     O3 2145   2.240   2.653   0.410  0.1031  0.4141 -0.6232
  183fsi     O4 2146   2.233   2.857   0.273 -0.6630 -0.5325 -0.1439
  183fsi     F2 2147   2.333   2.866   0.496 -0.3556  0.2623 -0.3001
  184fsi     F1 2148   3.154   0.761   2.389  0.4471  0.1387 -0.0518
  184fsi     S1 2149   3.099   0.851   2.274 -0.3559 -0.0881 -0.0469
  184fsi      N 2150   3.040   0.974   2.351  0.8922  0.1772 -0.9126
  184fsi     O1 2151   3.219   0.874   2.198 -0.6750 -0.1380  0.2714
  184fsi     O2 2152   3.008   0.757   2.213  0.4038 -0.7470  0.0770
  184fsi     S2 2153   2.894   0.981   2.409  0.2147 -0.3827 -0.0603
  184fsi     O3 2154   2.809   0.875   2.380  0.3207 -0.7289  0.1686
  184fsi     O4 2155   2.835   1.110   2.376  0.2080 -0.3082 -0.3296
  184fsi     F2 2156   2.916   0.986   2.564 -0.5226  0.4443 -0.9709
  185fsi     F1 2157   2.301   1.973   1.983  0.1668  0.4605  0.5019
  185fsi     S1 2158   2.450   1.988   1.988 -0.5677  0.1568  0.3489
  185fsi      N 2159   2.505   1.870   1.901  0.1458 -0.3737 -0.4623
  185fsi     O1 2160   2.473   2.114   1.917  0.3798  0.0022  0.4206
  185fsi     O2 2161   2.483   1.987   2.130 -0.2790 -0.3384 -0.1470
  185fsi     S2 2162   2.606   1.751   1.941  0.0609 -0.2277  0.1061
  185fsi     O3 2163   2.592   1.705   2.080  1.0926 -0.1588  0.1431
  185fsi     O4 2164   2.739   1.770   1.888  0.1229 -0.0748  0.3085
  185fsi     F2 2165   2.553   1.621   1.862 -0.3042 -0.0891 -0.2522
  186fsi     F1 2166   1.654   3.051   0.260  0.0411  0.6201  0.1098
  186fsi     S1 2167   1.749   3.124   0.157 -0.0149 -0.1473  0.4349
  186fsi      N 2168   1.727   3.019   0.037  0.0043  0.2794  0.3408
  186fsi     O1 2169   1.688   3.253   0.132 -0.1435 -0.4160  0.0105
  186fsi     O2 2170   1.874   3.122   0.228 -0.0624 -0.2386  0.4969
  186fsi     S2 2171   1.826   2.925  -0.023 -0.2677  0.5009  0.2571
  186fsi     O3 2172   1.965   2.966  -0.007 -0.9283  0.4973  0.5707
  186fsi     O4 2173   1.788   2.883  -0.156 -0.0834 -0.0840 -0.2268
  186fsi     F2 2174   1.808   2.798   0.062 -0.2142 -0.1791  0.3974
  187fsi     F1 2175   0.569   1.092   1.129 -0.1159  0.5703  0.4793
  187fsi     S1 2176   0.720   1.144   1.144  0.1465  0.1885 -0.0119
  187fsi      N 2177   0.723   1.197   1.290  0.4145 -0.3125  0.0903
  187fsi     O1 2178   0.802   1.023   1.138  0.5242 -0.1438 -0.4796
  187fsi     O2 2179   0.734   1.241   1.039 -0.0226 -0.2380  0.8813
  187fsi     S2 2180   0.730   1.347   1.345  0.1129 -0.2263 -0.4399
  187fsi     O3 2181   0.776   1.443   1.254  0.2885  0.3774  0.4165
  187fsi     O4 2182   0.776   1.340   1.484  0.7805  0.1584  0.4269
  187fsi     F2 2183   0.580   1.381   1.355  0.1781 -0.2202 -0.3283
  188fsi     F1 2184   1.852   1.514   1.340 -0.1645 -0.3032  0.2955
  188fsi     S1 2185   1.914   1.452   1.207  0.3481  0.4132  0.3615
  188fsi      N 2186   1.797   1.351   1.175  0.3771 -0.0895 -0.2272
  188fsi     O1 2187   1.926   1.562   1.113  0.0315  0.0520  0.3499
  188fsi     O2 2188   2.030   1.385   1.256  0.1034  0.1868 -0.5015
  188fsi     S2 2189   1.774   1.201   1.200  0.2405 -0.4964 -0.2860
  188fsi     O3 2190   1.893   1.121   1.197 -0.3748 -0.0812 -0.3591
  188fsi     O4 2191   1.657   1.147   1.139  0.0319 -0.6547 -0.2764
  188fsi     F2 2192   1.736   1.198   1.350  0.3549 -0.1366  0.2547
  189fsi     F1 2193   2.160   2.728   3.079 -0.0936 -0.4055  0.3553
  189fsi     S1 2194   2.082   2.596   3.040 -0.5375 -0.4670  0.2418
  189fsi      N 2195   2.112   2.593   2.880 -0.3956  0.0655  0.0399
  189fsi     O1 2196   2.138   2.486   3.117  0.4827 -0.3624 -0.0059
  189fsi     O2 2197   1.944   2.632   3.058  0.3634  0.1583 -0.2050
  189fsi     S2 2198   2.211   2.513   2.791 -0.2449  0.4032  0.1943
  189fsi     O3 2199   2.332   2.469   2.859 -0.3076 -0.2251 -0.3523
  189fsi     O4 2200   2.224   2.553   2.658  0.1723 -0.0676 -0.1367
  189fsi     F2 2201   2.126   2.382   2.777 -0.1895  0.5603 -0.2570
  190fsi     F1 2202   2.758   0.558   2.564  0.2207 -0.3214 -0.3199
  190fsi     S1 2203   2.757   0.512   2.414  0.4561  0.0741  0.5329
  190fsi      N 2204   2.908   0.535   2.368 -0.4494 -0.6554  0.9048
  190fsi     O1 2205   2.711   0.380   2.421 -0.0905  0.4702 -0.1261
  190fsi     O2 2206   2.673   0.613   2.355  0.5469 -0.7304  0.1130
  190fsi     S2 2207   3.020   0.434   2.329 -0.0708  0.1351  0.0882
  190fsi     O3 2208   2.984   0.295   2.311 -0.3326  0.1542 -0.5341
  190fsi     O4 2209   3.140   0.465   2.397  0.0714  0.3866 -0.3199
  190fsi     F2 2210   3.055   0.473   2.181 -0.1282  0.5218  0.2604
  191fsi     F1 2211   2.569   3.058   2.409  0.4478  0.3508 -0.2764
  191fsi     S1 2212   2.652   2.969   2.501 -0.4442 -0.5234  0.4603
  191fsi      N 2213   2.554   2.867   2.566 -0.2153 -0.0535 -0.1451
  191fsi     O1 2214   2.751   2.925   2.413  0.4805 -0.0179  0.1781
  191fsi     O2 2215   2.698   3.061   2.600 -0.5200 -0.7553  0.4194
  191fsi     S2 2216   2.514   2.719   2.518  0.4481 -0.1381 -0.0795
  191fsi     O3 2217   2.615   2.655   2.443 -0.1397 -0.1815 -0.2844
  191fsi     O4 2218   2.379   2.718   2.475 -0.4029 -0.2591  0.5530
  191fsi     F2 2219   2.524   2.637   2.648  0.1325  0.0861  0.5279
  192fsi     F1 2220   0.795   2.554   0.572  0.2067  0.1119 -0.3830
  192fsi     S1 2221   0.887   2.439   0.518  0.1750  0.1554 -0.1524
  192fsi      N 2222   0.931   2.366   0.650  0.2441  0.2311 -0.5163
  192fsi     O1 2223   0.805   2.360   0.431  0.1237 -0.2994  0.0894
  192fsi     O2 2224   0.996   2.512   0.457  0.0293  0.1962 -0.0935
  192fsi     S2 2225   0.870   2.247   0.726  0.0852  0.1728  0.0243
  192fsi     O3 2226   0.728   2.246   0.715  0.4232  0.3182 -0.4960
  192fsi     O4 2227   0.925   2.227   0.861  0.1337 -0.1576  0.1978
  192fsi     F2 2228   0.922   2.123   0.646  0.2556 -0.4204 -0.3202
  193fsi     F1 2229   2.465   0.848   2.243 -0.1633  0.0773 -0.3693
  193fsi     S1 2230   2.398   0.992   2.262 -0.2594  0.1447  0.0747
  193fsi      N 2231   2.314   1.002   2.133  0.1765  0.1998  0.2441
  193fsi     O1 2232   2.332   0.984   2.387  0.1674 -0.0633  0.0022
  193fsi     O2 2233   2.513   1.076   2.249  0.0903 -0.1549  0.6274
  193fsi     S2 2234   2.171   0.933   2.113  0.2867  0.0645 -0.3174
  193fsi     O3 2235   2.138   0.823   2.197 -0.2919 -0.1210 -0.1330
  193fsi     O4 2236   2.146   0.916   1.977 -0.4253  0.1852 -0.2749
  193fsi     F2 2237   2.063   1.047   2.155 -0.6522 -0.0883  0.0717
  194fsi     F1 2238   1.413   2.044   0.658  0.1334 -0.3888  0.1686
  194fsi     S1 2239   1.363   1.994   0.798 -0.1902 -0.0417  0.1037
  194fsi      N 2240   1.396   1.839   0.794  0.5142 -0.4968  0.7740
  194fsi     O1 2241   1.433   2.063   0.898  0.1245 -0.2647 -0.7326
  194fsi     O2 2242   1.219   2.019   0.776  0.0794  0.2261  0.1530
  194fsi     S2 2243   1.290   1.725   0.795 -0.3850 -0.2901  0.1978
  194fsi     O3 2244   1.171   1.738   0.871  0.4358 -0.1788 -0.1188
  194fsi     O4 2245   1.353   1.598   0.820  0.5193  0.3928  0.1290
  194fsi     F2 2246   1.247   1.706   0.647 -0.1895  0.8024 -0.6536
  195fsi     F1 2247   1.979   0.862   0.389  0.0929  0.0632 -0.1260
  195fsi     S1 2248   1.992   0.945   0.257 -0.2864 -0.1467 -0.4807
  195fsi      N 2249   1.870   0.886   0.188  0.1726 -0.6330  0.2340
  195fsi     O1 2250   1.982   1.081   0.306  0.2227 -0.1825 -0.6205
  195fsi     O2 2251   2.117   0.901   0.204  0.3324  0.3143 -0.1598
  195fsi     S2 2252   1.718   0.929   0.174  0.4104 -0.0425  0.0716
  195fsi     O3 2253   1.665   0.932   0.043 -0.8108 -0.1852 -0.1710
  195fsi     O4 2254   1.678   1.043   0.248  0.2306 -0.3376 -0.2091
  195fsi     F2 2255   1.638   0.815   0.247 -0.0237 -0.1815  0.1712
  196fsi     F1 2256   2.580   0.230   1.406 -0.0892  0.3579  0.4087
  196fsi     S1 2257   2.631   0.370   1.415 -0.1116 -0.4871 -0.0230
  196fsi      N 2258   2.782   0.340   1.421  0.3726 -0.3624  0.5206
  196fsi     O1 2259   2.580   0.424   1.292 -0.3120  0.2888 -0.5363
  196fsi     O2 2260   2.578   0.414   1.543  0.2737  0.5872 -0.6377
  196fsi     S2 2261   2.897   0.371   1.312  0.1820 -0.2092  0.0697
  196fsi     O3 2262   3.020   0.399   1.378  0.0491  0.0327  0.3148
  196fsi     O4 2263   2.857   0.454   1.200 -0.8233  0.4295  0.2414
  196fsi     F2 2264   2.925   0.232   1.249 -0.6030  0.0534  0.3760
  197fsi     F1 2265   2.902   3.129   0.473  0.2967  0.4020 -0.9236
  197fsi     S1 2266   2.768   3.168   0.544  0.0740  0.2389 -0.1556
  197fsi      N 2267   2.764   3.328   0.533 -0.2852  1.3268  0.3486
  197fsi     O1 2268   2.666   3.096   0.464 -0.3666  0.2988  0.1711
  197fsi     O2 2269   2.792   3.127   0.677  0.5219  0.0756 -0.3032
  197fsi     S2 2270   2.742   3.417   0.403 -0.0175  0.0753  0.4846
  197fsi     O3 2271   2.700   3.349   0.284 -0.1330  0.2844  0.1903
  197fsi     O4 2272   2.842   3.519   0.394  0.4580  0.7396  0.1421
  197fsi     F2 2273   2.608   3.496   0.441 -0.6101 -0.4442 -0.5657
  198fsi     F1 2274   1.975   1.485   2.712  0.3573  0.5772  0.0773
  198fsi     S1 2275   1.995   1.438   2.564  0.0640  0.0191 -0.3203
  198fsi      N 2276   2.065   1.301   2.591 -0.3099  0.3487  0.2963
  198fsi     O1 2277   1.857   1.438   2.515  0.4096  0.4116 -0.5321
  198fsi     O2 2278   2.081   1.538   2.514 -0.4855  0.2131  0.0808
  198fsi     S2 2279   2.013   1.150   2.592 -0.2656  0.0884  0.4296
  198fsi     O3 2280   1.873   1.139   2.576 -0.2998  0.2119  0.1476
  198fsi     O4 2281   2.076   1.081   2.699  0.6079 -0.7568 -0.2611
  198fsi     F2 2282   2.070   1.086   2.461 -0.1791 -0.5790  0.1335
  199fsi     F1 2283   0.436   0.816   1.253  0.5210  0.1643 -0.7095
  199fsi     S1 2284   0.547   0.702   1.277 -0.0000 -0.3963 -0.0681
  199fsi      N 2285   0.545   0.612   1.159 -0.0174 -0.6635 -0.5973
  199fsi     O1 2286   0.668   0.782   1.287 -0.3871 -0.6329 -0.1757
  199fsi     O2 2287   0.499   0.633   1.397  0.1333  0.2363  0.0091
  199fsi     S2 2288   0.636   0.612   1.030  0.0485  0.2301  0.7129
  199fsi     O3 2289   0.631   0.482   0.966 -0.2653  0.4785 -0.5204
  199fsi     O4 2290   0.771   0.665   1.042 -0.1124  0.2734 -0.2569
  199fsi     F2 2291   0.555   0.704   0.928  0.2891 -0.0235 -0.1402
  200fsi     F1 2292   2.511   2.681   2.053 -0.6497 -0.1576  0.3053
  200fsi     S1 2293   2.552   2.832   2.081 -0.3354 -0.1650  0.3413
  200fsi      N 2294   2.448   2.875   2.191 -0.4453 -0.3459 -0.0998
  200fsi     O1 2295   2.685   2.814   2.137 -0.2125 -0.2045 -0.5020
  200fsi     O2 2296   2.548   2.890   1.945  1.0622 -0.5833 -0.2998
  200fsi     S2 2297   2.309   2.943   2.177  0.3086 -0.1663 -0.2700
  200fsi     O3 2298   2.284   3.002   2.050 -0.3148 -0.2907  0.0975
  200fsi     O4 2299   2.269   3.012   2.297  0.0579  0.2110  0.1019
  200fsi     F2 2300   2.209   2.823   2.180 -0.2290  0.1197  0.0689
   3.24840   3.24840   3.24840
