simbox
 2300
    1Li      Li    1   2.248   2.441   2.488
    2Li      Li    2   0.559   2.569   3.087
    3Li      Li    3   1.955   1.084   0.895
    4Li      Li    4   2.046   0.719   0.477
    5Li      Li    5   2.279   0.471   2.682
    6Li      Li    6   1.061   0.741   1.250
    7Li      Li    7   1.527   2.672   0.032
    8Li      Li    8   1.846   2.986   0.337
    9Li      Li    9   0.918   2.439   2.547
   10Li      Li   10   3.167   2.496   2.389
   11Li      Li   11   2.372   1.528   2.241
   12Li      Li   12   2.407   1.305   2.655
   13Li      Li   13   0.879   2.789   1.406
   14Li      Li   14   2.019   0.764   1.377
   15Li      Li   15   0.783   2.781   2.345
   16Li      Li   16   1.967   2.830   1.988
   17Li      Li   17   0.462   0.899   2.292
   18Li      Li   18   2.671   2.681   2.422
   19Li      Li   19   0.510   2.274   0.710
   20Li      Li   20   2.264   1.439   0.738
   21Li      Li   21   0.567   0.856   0.713
   22Li      Li   22   2.970   3.015   2.566
   23Li      Li   23   2.101   0.686   1.764
   24Li      Li   24   2.715   2.826   2.999
   25Li      Li   25   1.301   2.097   1.957
   26Li      Li   26   2.531   0.338   0.901
   27Li      Li   27   2.502   2.640   1.476
   28Li      Li   28   0.775   1.978   3.225
   29Li      Li   29   1.156   0.719   2.581
   30Li      Li   30   2.625   1.426   0.565
   31Li      Li   31   3.155   1.260   2.551
   32Li      Li   32   0.862   1.263   0.568
   33Li      Li   33   0.653   1.130   1.670
   34Li      Li   34   0.759   3.192   2.768
   35Li      Li   35   2.778   2.014   0.718
   36Li      Li   36   2.417   0.951   2.242
   37Li      Li   37   1.126   2.925   1.189
   38Li      Li   38   0.923   2.559   0.768
   39Li      Li   39   1.010   0.989   2.688
   40Li      Li   40   0.145   0.663   0.303
   41Li      Li   41   1.516   2.917   2.728
   42Li      Li   42   2.873   0.675   2.616
   43Li      Li   43   0.282   0.924   1.590
   44Li      Li   44   1.521   2.523   1.312
   45Li      Li   45   2.119   1.827   1.838
   46Li      Li   46   2.549   2.994   0.390
   47Li      Li   47   0.565   0.611   1.654
   48Li      Li   48   1.100   0.897   1.827
   49Li      Li   49   2.159   2.766   2.219
   50Li      Li   50   2.445   2.823   1.877
   51c3c      N   51   2.061   2.776   2.944
   51c3c     C1   52   2.160   2.668   2.960
   51c3c     C2   53   1.927   2.714   2.945
   51c3c     C3   54   2.081   2.538   2.979
   51c3c     C4   55   1.949   2.568   2.909
   51c3c     C5   56   2.070   2.867   3.059
   51c3c     C6   57   2.085   2.858   2.823
   51c3c     H1   58   2.228   2.682   3.044
   51c3c     H2   59   2.223   2.657   2.872
   51c3c     H3   60   1.883   2.715   3.044
   51c3c     H4   61   1.857   2.764   2.878
   51c3c     H5   62   2.063   2.519   3.085
   51c3c     H6   63   2.133   2.452   2.938
   51c3c     H7   64   1.869   2.502   2.943
   51c3c     H8   65   1.958   2.557   2.801
   51c3c     H9   66   2.165   2.919   3.062
   51c3c    H10   67   1.991   2.942   3.057
   51c3c    H11   68   2.060   2.812   3.153
   51c3c    H12   69   2.013   2.940   2.821
   51c3c    H13   70   2.183   2.905   2.829
   51c3c     C7   71   2.075   2.787   2.686
   51c3c    H14   72   1.979   2.738   2.674
   51c3c    H15   73   2.151   2.709   2.676
   51c3c     C8   74   2.093   2.887   2.572
   51c3c    H16   75   2.182   2.948   2.586
   51c3c    H17   76   2.008   2.956   2.565
   51c3c    H18   77   2.102   2.838   2.475
   52c3c      N   78   1.742   0.282   1.015
   52c3c     C1   79   1.846   0.385   1.030
   52c3c     C2   80   1.774   0.177   1.112
   52c3c     C3   81   1.972   0.316   1.083
   52c3c     C4   82   1.927   0.178   1.129
   52c3c     C5   83   1.612   0.342   1.049
   52c3c     C6   84   1.731   0.234   0.875
   52c3c     H1   85   1.817   0.460   1.103
   52c3c     H2   86   1.865   0.439   0.938
   52c3c     H3   87   1.732   0.201   1.210
   52c3c     H4   88   1.735   0.080   1.084
   52c3c     H5   89   2.015   0.372   1.166
   52c3c     H6   90   2.050   0.308   1.007
   52c3c     H7   91   1.955   0.161   1.233
   52c3c     H8   92   1.975   0.102   1.069
   52c3c     H9   93   1.594   0.430   0.988
   52c3c    H10   94   1.528   0.273   1.034
   52c3c    H11   95   1.606   0.376   1.152
   52c3c    H12   96   1.643   0.170   0.866
   52c3c    H13   97   1.710   0.320   0.811
   52c3c     C7   98   1.850   0.157   0.816
   52c3c    H14   99   1.862   0.060   0.866
   52c3c    H15  100   1.943   0.211   0.834
   52c3c     C8  101   1.837   0.134   0.665
   52c3c    H16  102   1.815   0.226   0.611
   52c3c    H17  103   1.758   0.063   0.641
   52c3c    H18  104   1.931   0.096   0.623
   53c3c      N  105   2.904   1.188   1.260
   53c3c     C1  106   2.824   1.077   1.313
   53c3c     C2  107   3.015   1.123   1.190
   53c3c     C3  108   2.922   0.966   1.352
   53c3c     C4  109   3.044   0.991   1.264
   53c3c     C5  110   2.824   1.263   1.162
   53c3c     C6  111   2.947   1.284   1.364
   53c3c     H1  112   2.762   1.036   1.233
   53c3c     H2  113   2.755   1.107   1.393
   53c3c     H3  114   2.985   1.096   1.089
   53c3c     H4  115   3.102   1.188   1.179
   53c3c     H5  116   2.880   0.868   1.333
   53c3c     H6  117   2.948   0.971   1.458
   53c3c     H7  118   3.058   0.910   1.193
   53c3c     H8  119   3.135   0.996   1.324
   53c3c     H9  120   2.732   1.301   1.205
   53c3c    H10  121   2.879   1.348   1.121
   53c3c    H11  122   2.795   1.204   1.075
   53c3c    H12  123   2.997   1.367   1.314
   53c3c    H13  124   2.857   1.328   1.409
   53c3c     C7  125   3.038   1.234   1.478
   53c3c    H14  126   3.120   1.173   1.437
   53c3c    H15  127   2.981   1.171   1.547
   53c3c     C8  128   3.108   1.344   1.557
   53c3c    H16  129   3.037   1.401   1.618
   53c3c    H17  130   3.158   1.415   1.491
   53c3c    H18  131   3.182   1.303   1.625
   54c3c      N  132   0.262   2.148   1.286
   54c3c     C1  133   0.189   2.021   1.277
   54c3c     C2  134   0.404   2.111   1.274
   54c3c     C3  135   0.278   1.913   1.338
   54c3c     C4  136   0.419   1.969   1.329
   54c3c     C5  137   0.221   2.234   1.174
   54c3c     C6  138   0.234   2.227   1.407
   54c3c     H1  139   0.175   1.994   1.172
   54c3c     H2  140   0.090   2.026   1.322
   54c3c     H3  141   0.434   2.107   1.169
   54c3c     H4  142   0.473   2.181   1.321
   54c3c     H5  143   0.269   1.818   1.284
   54c3c     H6  144   0.252   1.893   1.442
   54c3c     H7  145   0.479   1.908   1.261
   54c3c     H8  146   0.467   1.968   1.427
   54c3c     H9  147   0.113   2.251   1.173
   54c3c    H10  148   0.266   2.333   1.179
   54c3c    H11  149   0.248   2.192   1.077
   54c3c    H12  150   0.293   2.318   1.404
   54c3c    H13  151   0.130   2.260   1.404
   54c3c     C7  152   0.257   2.163   1.545
   54c3c    H14  153   0.363   2.139   1.558
   54c3c    H15  154   0.200   2.071   1.556
   54c3c     C8  155   0.212   2.259   1.657
   54c3c    H16  156   0.104   2.273   1.656
   54c3c    H17  157   0.257   2.357   1.645
   54c3c    H18  158   0.241   2.222   1.755
   55c3c      N  159   0.382   2.997   0.971
   55c3c     C1  160   0.344   2.857   0.994
   55c3c     C2  161   0.285   3.078   1.046
   55c3c     C3  162   0.208   2.849   1.063
   55c3c     C4  163   0.160   2.993   1.070
   55c3c     C5  164   0.517   3.023   1.021
   55c3c     C6  165   0.392   3.025   0.827
   55c3c     H1  166   0.419   2.807   1.057
   55c3c     H2  167   0.343   2.798   0.902
   55c3c     H3  168   0.324   3.103   1.145
   55c3c     H4  169   0.261   3.172   0.996
   55c3c     H5  170   0.219   2.807   1.163
   55c3c     H6  171   0.138   2.786   1.008
   55c3c     H7  172   0.114   3.013   1.166
   55c3c     H8  173   0.085   3.010   0.992
   55c3c     H9  174   0.587   2.955   0.973
   55c3c    H10  175   0.551   3.125   1.002
   55c3c    H11  176   0.528   3.008   1.129
   55c3c    H12  177   0.429   3.127   0.811
   55c3c    H13  178   0.470   2.961   0.785
   55c3c     C7  179   0.267   3.005   0.740
   55c3c    H14  180   0.191   3.079   0.766
   55c3c    H15  181   0.222   2.907   0.756
   55c3c     C8  182   0.305   3.016   0.592
   55c3c    H16  183   0.377   2.938   0.566
   55c3c    H17  184   0.351   3.112   0.569
   55c3c    H18  185   0.218   3.003   0.527
   56c3c      N  186   1.427   1.994   1.069
   56c3c     C1  187   1.347   1.872   1.063
   56c3c     C2  188   1.563   1.952   1.035
   56c3c     C3  189   1.440   1.755   1.087
   56c3c     C4  190   1.581   1.812   1.090
   56c3c     C5  191   1.379   2.089   0.967
   56c3c     C6  192   1.417   2.059   1.201
   56c3c     H1  193   1.302   1.858   0.964
   56c3c     H2  194   1.266   1.872   1.136
   56c3c     H3  195   1.574   1.944   0.926
   56c3c     H4  196   1.641   2.021   1.070
   56c3c     H5  197   1.431   1.687   1.002
   56c3c     H6  198   1.417   1.700   1.179
   56c3c     H7  199   1.649   1.753   1.028
   56c3c     H8  200   1.621   1.811   1.191
   56c3c     H9  201   1.277   2.122   0.987
   56c3c    H10  202   1.442   2.178   0.963
   56c3c    H11  203   1.380   2.046   0.867
   56c3c    H12  204   1.482   2.147   1.202
   56c3c    H13  205   1.315   2.096   1.212
   56c3c     C7  206   1.449   1.975   1.326
   56c3c    H14  207   1.556   1.954   1.332
   56c3c    H15  208   1.396   1.879   1.324
   56c3c     C8  209   1.408   2.044   1.455
   56c3c    H16  210   1.309   2.088   1.449
   56c3c    H17  211   1.480   2.121   1.481
   56c3c    H18  212   1.407   1.970   1.535
   57c3c      N  213   0.711   0.225   1.823
   57c3c     C1  214   0.600   0.133   1.852
   57c3c     C2  215   0.655   0.360   1.839
   57c3c     C3  216   0.472   0.203   1.807
   57c3c     C4  217   0.502   0.350   1.829
   57c3c     C5  218   0.819   0.206   1.920
   57c3c     C6  219   0.770   0.204   1.689
   57c3c     H1  220   0.592   0.117   1.960
   57c3c     H2  221   0.614   0.035   1.806
   57c3c     H3  222   0.679   0.399   1.938
   57c3c     H4  223   0.700   0.431   1.770
   57c3c     H5  224   0.385   0.171   1.865
   57c3c     H6  225   0.448   0.185   1.702
   57c3c     H7  226   0.457   0.379   1.924
   57c3c     H8  227   0.460   0.413   1.751
   57c3c     H9  228   0.865   0.108   1.912
   57c3c    H10  229   0.898   0.281   1.906
   57c3c    H11  230   0.785   0.218   2.023
   57c3c    H12  231   0.850   0.277   1.675
   57c3c    H13  232   0.817   0.106   1.684
   57c3c     C7  233   0.676   0.216   1.567
   57c3c    H14  234   0.619   0.308   1.579
   57c3c    H15  235   0.605   0.133   1.565
   57c3c     C8  236   0.749   0.220   1.432
   57c3c    H16  237   0.806   0.129   1.415
   57c3c    H17  238   0.818   0.304   1.426
   57c3c    H18  239   0.678   0.230   1.350
   58c3c      N  240   1.895   2.210   0.445
   58c3c     C1  241   1.813   2.143   0.548
   58c3c     C2  242   1.828   2.338   0.422
   58c3c     C3  243   1.670   2.196   0.535
   58c3c     C4  244   1.678   2.309   0.435
   58c3c     C5  245   2.028   2.230   0.501
   58c3c     C6  246   1.919   2.134   0.320
   58c3c     H1  247   1.846   2.171   0.648
   58c3c     H2  248   1.820   2.034   0.545
   58c3c     H3  249   1.853   2.410   0.500
   58c3c     H4  250   1.853   2.383   0.326
   58c3c     H5  251   1.634   2.230   0.632
   58c3c     H6  252   1.598   2.123   0.499
   58c3c     H7  253   1.620   2.395   0.466
   58c3c     H8  254   1.638   2.275   0.340
   58c3c     H9  255   2.066   2.134   0.537
   58c3c    H10  256   2.098   2.273   0.429
   58c3c    H11  257   2.029   2.296   0.588
   58c3c    H12  258   1.975   2.196   0.251
   58c3c    H13  259   1.986   2.051   0.341
   58c3c     C7  260   1.799   2.075   0.243
   58c3c    H14  261   1.741   2.155   0.197
   58c3c    H15  262   1.732   2.021   0.311
   58c3c     C8  263   1.845   1.979   0.133
   58c3c    H16  264   1.889   1.889   0.177
   58c3c    H17  265   1.919   2.025   0.068
   58c3c    H18  266   1.761   1.947   0.071
   59c3c      N  267   1.350   2.969   2.188
   59c3c     C1  268   1.283   3.038   2.077
   59c3c     C2  269   1.345   2.825   2.157
   59c3c     C3  270   1.179   2.941   2.021
   59c3c     C4  271   1.234   2.803   2.054
   59c3c     C5  272   1.489   3.012   2.192
   59c3c     C6  273   1.296   3.004   2.321
   59c3c     H1  274   1.353   3.057   1.995
   59c3c     H2  275   1.241   3.135   2.104
   59c3c     H3  276   1.438   2.791   2.112
   59c3c     H4  277   1.334   2.764   2.246
   59c3c     H5  278   1.166   2.954   1.914
   59c3c     H6  279   1.081   2.955   2.068
   59c3c     H7  280   1.275   2.757   1.964
   59c3c     H8  281   1.155   2.738   2.093
   59c3c     H9  282   1.500   3.119   2.208
   59c3c    H10  283   1.548   2.961   2.268
   59c3c    H11  284   1.538   2.988   2.097
   59c3c    H12  285   1.357   2.955   2.397
   59c3c    H13  286   1.310   3.111   2.339
   59c3c     C7  287   1.149   2.970   2.351
   59c3c    H14  288   1.132   2.863   2.344
   59c3c    H15  289   1.083   3.018   2.279
   59c3c     C8  290   1.108   3.019   2.491
   59c3c    H16  291   1.120   3.127   2.501
   59c3c    H17  292   1.166   2.972   2.570
   59c3c    H18  293   1.003   2.997   2.511
   60c3c      N  294   1.599   0.229   1.895
   60c3c     C1  295   1.600   0.373   1.922
   60c3c     C2  296   1.737   0.183   1.917
   60c3c     C3  297   1.743   0.421   1.906
   60c3c     C4  298   1.831   0.299   1.886
   60c3c     C5  299   1.511   0.165   1.992
   60c3c     C6  300   1.544   0.193   1.762
   60c3c     H1  301   1.571   0.398   2.024
   60c3c     H2  302   1.532   0.430   1.858
   60c3c     H3  303   1.756   0.161   2.022
   60c3c     H4  304   1.763   0.093   1.860
   60c3c     H5  305   1.775   0.477   1.994
   60c3c     H6  306   1.749   0.486   1.819
   60c3c     H7  307   1.916   0.301   1.954
   60c3c     H8  308   1.871   0.294   1.785
   60c3c     H9  309   1.410   0.207   1.985
   60c3c    H10  310   1.505   0.057   1.977
   60c3c    H11  311   1.546   0.182   2.094
   60c3c    H12  312   1.545   0.085   1.750
   60c3c    H13  313   1.440   0.223   1.756
   60c3c     C7  314   1.615   0.253   1.640
   60c3c    H14  315   1.720   0.225   1.638
   60c3c    H15  316   1.608   0.362   1.646
   60c3c     C8  317   1.552   0.211   1.507
   60c3c    H16  318   1.458   0.263   1.492
   60c3c    H17  319   1.535   0.104   1.501
   60c3c    H18  320   1.617   0.239   1.423
   61c3c      N  321   2.924   1.986   2.270
   61c3c     C1  322   2.861   2.030   2.395
   61c3c     C2  323   2.813   1.979   2.173
   61c3c     C3  324   2.718   1.974   2.396
   61c3c     C4  325   2.686   1.941   2.251
   61c3c     C5  326   3.019   2.088   2.225
   61c3c     C6  327   3.000   1.859   2.283
   61c3c     H1  328   2.850   2.139   2.395
   61c3c     H2  329   2.918   2.004   2.484
   61c3c     H3  330   2.794   2.076   2.129
   61c3c     H4  331   2.834   1.911   2.091
   61c3c     H5  332   2.648   2.048   2.435
   61c3c     H6  333   2.710   1.884   2.458
   61c3c     H7  334   2.600   1.999   2.217
   61c3c     H8  335   2.659   1.836   2.240
   61c3c     H9  336   3.100   2.102   2.296
   61c3c    H10  337   3.064   2.062   2.128
   61c3c    H11  338   2.972   2.185   2.211
   61c3c    H12  339   3.047   1.837   2.187
   61c3c    H13  340   3.083   1.875   2.352
   61c3c     C7  341   2.925   1.732   2.328
   61c3c    H14  342   2.841   1.711   2.261
   61c3c    H15  343   2.882   1.746   2.427
   61c3c     C8  344   3.016   1.608   2.331
   61c3c    H16  345   3.098   1.621   2.402
   61c3c    H17  346   3.060   1.588   2.234
   61c3c    H18  347   2.961   1.520   2.361
   62c3c      N  348   1.524   0.819   1.634
   62c3c     C1  349   1.558   0.676   1.631
   62c3c     C2  350   1.377   0.822   1.639
   62c3c     C3  351   1.445   0.604   1.556
   62c3c     C4  352   1.323   0.691   1.580
   62c3c     C5  353   1.579   0.880   1.756
   62c3c     C6  354   1.581   0.894   1.521
   62c3c     H1  355   1.563   0.635   1.732
   62c3c     H2  356   1.656   0.660   1.586
   62c3c     H3  357   1.342   0.830   1.742
   62c3c     H4  358   1.337   0.908   1.584
   62c3c     H5  359   1.430   0.503   1.594
   62c3c     H6  360   1.467   0.595   1.450
   62c3c     H7  361   1.255   0.643   1.650
   62c3c     H8  362   1.268   0.707   1.487
   62c3c     H9  363   1.688   0.880   1.754
   62c3c    H10  364   1.550   0.985   1.768
   62c3c    H11  365   1.549   0.829   1.848
   62c3c    H12  366   1.557   1.000   1.532
   62c3c    H13  367   1.690   0.891   1.526
   62c3c     C7  368   1.544   0.849   1.379
   62c3c    H14  369   1.439   0.817   1.380
   62c3c    H15  370   1.603   0.762   1.351
   62c3c     C8  371   1.557   0.957   1.272
   62c3c    H16  372   1.656   1.003   1.273
   62c3c    H17  373   1.483   1.036   1.287
   62c3c    H18  374   1.541   0.916   1.172
   63c3c      N  375   1.653   2.103   2.536
   63c3c     C1  376   1.508   2.119   2.516
   63c3c     C2  377   1.684   1.964   2.501
   63c3c     C3  378   1.446   1.981   2.542
   63c3c     C4  379   1.559   1.881   2.528
   63c3c     C5  380   1.723   2.191   2.443
   63c3c     C6  381   1.699   2.137   2.672
   63c3c     H1  382   1.485   2.144   2.412
   63c3c     H2  383   1.465   2.198   2.577
   63c3c     H3  384   1.709   1.951   2.396
   63c3c     H4  385   1.769   1.925   2.557
   63c3c     H5  386   1.364   1.960   2.473
   63c3c     H6  387   1.406   1.974   2.644
   63c3c     H7  388   1.544   1.812   2.445
   63c3c     H8  389   1.569   1.819   2.617
   63c3c     H9  390   1.703   2.296   2.462
   63c3c    H10  391   1.830   2.174   2.448
   63c3c    H11  392   1.694   2.170   2.340
   63c3c    H12  393   1.806   2.117   2.677
   63c3c    H13  394   1.688   2.244   2.689
   63c3c     C7  395   1.634   2.065   2.791
   63c3c    H14  396   1.635   1.957   2.778
   63c3c    H15  397   1.529   2.095   2.799
   63c3c     C8  398   1.704   2.097   2.923
   63c3c    H16  399   1.711   2.204   2.940
   63c3c    H17  400   1.806   2.058   2.924
   63c3c    H18  401   1.652   2.053   3.008
   64c3c      N  402   2.765   1.935   1.724
   64c3c     C1  403   2.715   1.840   1.823
   64c3c     C2  404   2.756   2.065   1.789
   64c3c     C3  405   2.602   1.912   1.897
   64c3c     C4  406   2.628   2.060   1.870
   64c3c     C5  407   2.906   1.904   1.695
   64c3c     C6  408   2.693   1.927   1.597
   64c3c     H1  409   2.793   1.818   1.897
   64c3c     H2  410   2.685   1.746   1.778
   64c3c     H3  411   2.839   2.083   1.858
   64c3c     H4  412   2.755   2.147   1.717
   64c3c     H5  413   2.600   1.888   2.003
   64c3c     H6  414   2.504   1.883   1.859
   64c3c     H7  415   2.633   2.118   1.962
   64c3c     H8  416   2.548   2.102   1.809
   64c3c     H9  417   2.917   1.804   1.654
   64c3c    H10  418   2.948   1.974   1.623
   64c3c    H11  419   2.969   1.909   1.784
   64c3c    H12  420   2.743   1.991   1.525
   64c3c    H13  421   2.705   1.823   1.564
   64c3c     C7  422   2.542   1.950   1.582
   64c3c    H14  423   2.517   2.054   1.600
   64c3c    H15  424   2.484   1.888   1.651
   64c3c     C8  425   2.494   1.909   1.441
   64c3c    H16  426   2.506   1.802   1.425
   64c3c    H17  427   2.547   1.960   1.361
   64c3c    H18  428   2.388   1.932   1.427
   65c3c      N  429   2.898   2.149   1.237
   65c3c     C1  430   2.761   2.100   1.257
   65c3c     C2  431   2.922   2.258   1.333
   65c3c     C3  432   2.684   2.210   1.329
   65c3c     C4  433   2.787   2.307   1.386
   65c3c     C5  434   2.992   2.040   1.267
   65c3c     C6  435   2.923   2.189   1.097
   65c3c     H1  436   2.758   2.010   1.317
   65c3c     H2  437   2.711   2.072   1.164
   65c3c     H3  438   2.981   2.227   1.419
   65c3c     H4  439   2.977   2.341   1.289
   65c3c     H5  440   2.621   2.171   1.410
   65c3c     H6  441   2.619   2.262   1.259
   65c3c     H7  442   2.785   2.305   1.494
   65c3c     H8  443   2.765   2.409   1.354
   65c3c     H9  444   2.975   1.954   1.203
   65c3c    H10  445   3.096   2.072   1.254
   65c3c    H11  446   2.982   2.007   1.370
   65c3c    H12  447   3.027   2.222   1.088
   65c3c    H13  448   2.913   2.101   1.033
   65c3c     C7  449   2.833   2.299   1.040
   65c3c    H14  450   2.836   2.389   1.102
   65c3c    H15  451   2.729   2.268   1.036
   65c3c     C8  452   2.878   2.337   0.898
   65c3c    H16  453   2.868   2.253   0.829
   65c3c    H17  454   2.982   2.369   0.897
   65c3c    H18  455   2.818   2.419   0.859
   66c3c      N  456   1.426   2.979   0.709
   66c3c     C1  457   1.564   2.996   0.759
   66c3c     C2  458   1.397   2.835   0.700
   66c3c     C3  459   1.636   2.864   0.735
   66c3c     C4  460   1.527   2.760   0.728
   66c3c     C5  461   1.334   3.041   0.805
   66c3c     C6  462   1.408   3.047   0.580
   66c3c     H1  463   1.566   3.015   0.866
   66c3c     H2  464   1.616   3.081   0.714
   66c3c     H3  465   1.323   2.800   0.772
   66c3c     H4  466   1.355   2.805   0.605
   66c3c     H5  467   1.706   2.843   0.816
   66c3c     H6  468   1.693   2.865   0.642
   66c3c     H7  469   1.520   2.709   0.824
   66c3c     H8  470   1.546   2.685   0.652
   66c3c     H9  471   1.345   3.149   0.812
   66c3c    H10  472   1.230   3.019   0.779
   66c3c    H11  473   1.347   3.001   0.906
   66c3c    H12  474   1.304   3.038   0.549
   66c3c    H13  475   1.424   3.154   0.592
   66c3c     C7  476   1.497   2.996   0.464
   66c3c    H14  477   1.486   2.889   0.450
   66c3c    H15  478   1.602   3.015   0.486
   66c3c     C8  479   1.461   3.066   0.333
   66c3c    H16  480   1.468   3.174   0.341
   66c3c    H17  481   1.358   3.041   0.304
   66c3c    H18  482   1.526   3.033   0.252
   67c3c      N  483   0.374   0.460   2.612
   67c3c     C1  484   0.257   0.540   2.569
   67c3c     C2  485   0.415   0.381   2.494
   67c3c     C3  486   0.219   0.495   2.427
   67c3c     C4  487   0.289   0.362   2.410
   67c3c     C5  488   0.484   0.550   2.651
   67c3c     C6  489   0.344   0.376   2.729
   67c3c     H1  490   0.275   0.647   2.570
   67c3c     H2  491   0.172   0.527   2.636
   67c3c     H3  492   0.484   0.437   2.432
   67c3c     H4  493   0.464   0.288   2.520
   67c3c     H5  494   0.258   0.566   2.354
   67c3c     H6  495   0.112   0.487   2.413
   67c3c     H7  496   0.312   0.339   2.306
   67c3c     H8  497   0.226   0.281   2.446
   67c3c     H9  498   0.456   0.613   2.735
   67c3c    H10  499   0.574   0.496   2.679
   67c3c    H11  500   0.512   0.618   2.570
   67c3c    H12  501   0.436   0.330   2.765
   67c3c    H13  502   0.310   0.440   2.811
   67c3c     C7  503   0.240   0.263   2.710
   67c3c    H14  504   0.278   0.188   2.641
   67c3c    H15  505   0.148   0.302   2.666
   67c3c     C8  506   0.205   0.193   2.841
   67c3c    H16  507   0.165   0.263   2.914
   67c3c    H17  508   0.292   0.144   2.884
   67c3c    H18  509   0.129   0.116   2.824
   68c3c      N  510   0.476   2.797   1.856
   68c3c     C1  511   0.427   2.900   1.764
   68c3c     C2  512   0.470   2.861   1.987
   68c3c     C3  513   0.407   3.032   1.838
   68c3c     C4  514   0.483   3.012   1.966
   68c3c     C5  515   0.386   2.681   1.847
   68c3c     C6  516   0.612   2.748   1.823
   68c3c     H1  517   0.333   2.875   1.715
   68c3c     H2  518   0.502   2.913   1.686
   68c3c     H3  519   0.371   2.844   2.029
   68c3c     H4  520   0.543   2.821   2.057
   68c3c     H5  521   0.301   3.046   1.859
   68c3c     H6  522   0.442   3.117   1.780
   68c3c     H7  523   0.441   3.069   2.048
   68c3c     H8  524   0.587   3.044   1.953
   68c3c     H9  525   0.384   2.639   1.746
   68c3c    H10  526   0.415   2.599   1.913
   68c3c    H11  527   0.283   2.706   1.872
   68c3c    H12  528   0.637   2.663   1.887
   68c3c    H13  529   0.610   2.707   1.722
   68c3c     C7  530   0.728   2.850   1.831
   68c3c    H14  531   0.740   2.887   1.933
   68c3c    H15  532   0.708   2.937   1.767
   68c3c     C8  533   0.862   2.791   1.788
   68c3c    H16  534   0.858   2.755   1.685
   68c3c    H17  535   0.891   2.708   1.853
   68c3c    H18  536   0.942   2.866   1.791
   69c3c      N  537   2.390   2.187   0.638
   69c3c     C1  538   2.334   2.323   0.654
   69c3c     C2  539   2.533   2.198   0.671
   69c3c     C3  540   2.453   2.420   0.665
   69c3c     C4  541   2.576   2.339   0.633
   69c3c     C5  542   2.326   2.099   0.736
   69c3c     C6  543   2.369   2.127   0.505
   69c3c     H1  544   2.274   2.333   0.745
   69c3c     H2  545   2.267   2.352   0.574
   69c3c     H3  546   2.549   2.187   0.778
   69c3c     H4  547   2.593   2.122   0.620
   69c3c     H5  548   2.459   2.457   0.767
   69c3c     H6  549   2.443   2.505   0.598
   69c3c     H7  550   2.663   2.373   0.689
   69c3c     H8  551   2.600   2.348   0.527
   69c3c     H9  552   2.218   2.092   0.722
   69c3c    H10  553   2.364   1.997   0.733
   69c3c    H11  554   2.341   2.134   0.839
   69c3c    H12  555   2.425   2.034   0.499
   69c3c    H13  556   2.265   2.095   0.495
   69c3c     C7  557   2.405   2.208   0.379
   69c3c    H14  558   2.513   2.223   0.373
   69c3c    H15  559   2.359   2.307   0.380
   69c3c     C8  560   2.358   2.136   0.252
   69c3c    H16  561   2.251   2.120   0.252
   69c3c    H17  562   2.405   2.037   0.243
   69c3c    H18  563   2.383   2.193   0.163
   70c3c      N  564   1.076   2.381   1.811
   70c3c     C1  565   1.040   2.459   1.692
   70c3c     C2  566   1.221   2.395   1.829
   70c3c     C3  567   1.167   2.521   1.637
   70c3c     C4  568   1.278   2.438   1.695
   70c3c     C5  569   1.008   2.438   1.928
   70c3c     C6  570   1.033   2.240   1.800
   70c3c     H1  571   0.969   2.539   1.712
   70c3c     H2  572   0.994   2.399   1.613
   70c3c     H3  573   1.246   2.472   1.901
   70c3c     H4  574   1.267   2.302   1.864
   70c3c     H5  575   1.176   2.625   1.670
   70c3c     H6  576   1.167   2.520   1.528
   70c3c     H7  577   1.369   2.498   1.707
   70c3c     H8  578   1.301   2.353   1.631
   70c3c     H9  579   0.899   2.437   1.915
   70c3c    H10  580   1.030   2.384   2.020
   70c3c    H11  581   1.035   2.542   1.943
   70c3c    H12  582   1.056   2.189   1.894
   70c3c    H13  583   0.924   2.238   1.791
   70c3c     C7  584   1.090   2.156   1.684
   70c3c    H14  585   1.199   2.150   1.688
   70c3c    H15  586   1.068   2.202   1.587
   70c3c     C8  587   1.033   2.013   1.680
   70c3c    H16  588   0.925   2.014   1.672
   70c3c    H17  589   1.060   1.956   1.769
   70c3c    H18  590   1.071   1.959   1.594
   71c3c      N  591   2.396   0.867   1.424
   71c3c     C1  592   2.365   0.744   1.352
   71c3c     C2  593   2.541   0.884   1.405
   71c3c     C3  594   2.486   0.652   1.365
   71c3c     C4  595   2.603   0.744   1.398
   71c3c     C5  596   2.327   0.981   1.363
   71c3c     C6  597   2.355   0.867   1.566
   71c3c     H1  598   2.352   0.764   1.245
   71c3c     H2  599   2.273   0.696   1.386
   71c3c     H3  600   2.561   0.931   1.308
   71c3c     H4  601   2.587   0.947   1.481
   71c3c     H5  602   2.504   0.596   1.274
   71c3c     H6  603   2.473   0.579   1.445
   71c3c     H7  604   2.679   0.738   1.320
   71c3c     H8  605   2.650   0.715   1.492
   71c3c     H9  606   2.219   0.976   1.373
   71c3c    H10  607   2.359   1.074   1.410
   71c3c    H11  608   2.348   0.990   1.256
   71c3c    H12  609   2.384   0.961   1.612
   71c3c    H13  610   2.246   0.868   1.572
   71c3c     C7  611   2.403   0.753   1.657
   71c3c    H14  612   2.512   0.746   1.659
   71c3c    H15  613   2.366   0.656   1.623
   71c3c     C8  614   2.356   0.775   1.800
   71c3c    H16  615   2.250   0.799   1.804
   71c3c    H17  616   2.405   0.862   1.844
   71c3c    H18  617   2.377   0.689   1.864
   72c3c      N  618   1.416   0.744   0.259
   72c3c     C1  619   1.524   0.766   0.161
   72c3c     C2  620   1.477   0.736   0.393
   72c3c     C3  621   1.658   0.758   0.235
   72c3c     C4  622   1.626   0.704   0.373
   72c3c     C5  623   1.324   0.858   0.253
   72c3c     C6  624   1.336   0.624   0.233
   72c3c     H1  625   1.520   0.865   0.114
   72c3c     H2  626   1.521   0.696   0.078
   72c3c     H3  627   1.467   0.828   0.450
   72c3c     H4  628   1.429   0.662   0.458
   72c3c     H5  629   1.701   0.858   0.244
   72c3c     H6  630   1.730   0.695   0.183
   72c3c     H7  631   1.688   0.750   0.450
   72c3c     H8  632   1.644   0.597   0.377
   72c3c     H9  633   1.277   0.865   0.155
   72c3c    H10  634   1.246   0.851   0.329
   72c3c    H11  635   1.377   0.952   0.269
   72c3c    H12  636   1.253   0.620   0.303
   72c3c    H13  637   1.290   0.635   0.134
   72c3c     C7  638   1.409   0.489   0.239
   72c3c    H14  639   1.464   0.478   0.332
   72c3c    H15  640   1.483   0.481   0.159
   72c3c     C8  641   1.312   0.371   0.232
   72c3c    H16  642   1.260   0.367   0.136
   72c3c    H17  643   1.236   0.377   0.311
   72c3c    H18  644   1.365   0.276   0.245
   73c3c      N  645   2.384   2.076   2.807
   73c3c     C1  646   2.429   2.206   2.757
   73c3c     C2  647   2.503   2.016   2.869
   73c3c     C3  648   2.579   2.197   2.726
   73c3c     C4  649   2.626   2.067   2.792
   73c3c     C5  650   2.281   2.097   2.909
   73c3c     C6  651   2.327   1.990   2.702
   73c3c     H1  652   2.417   2.282   2.834
   73c3c     H2  653   2.370   2.242   2.672
   73c3c     H3  654   2.513   2.049   2.972
   73c3c     H4  655   2.494   1.907   2.872
   73c3c     H5  656   2.632   2.282   2.769
   73c3c     H6  657   2.600   2.196   2.619
   73c3c     H7  658   2.710   2.085   2.859
   73c3c     H8  659   2.660   1.997   2.717
   73c3c     H9  660   2.192   2.143   2.866
   73c3c    H10  661   2.248   2.004   2.954
   73c3c    H11  662   2.314   2.161   2.991
   73c3c    H12  663   2.297   1.893   2.743
   73c3c    H13  664   2.232   2.032   2.666
   73c3c     C7  665   2.416   1.964   2.580
   73c3c    H14  666   2.504   1.906   2.609
   73c3c    H15  667   2.451   2.058   2.536
   73c3c     C8  668   2.346   1.889   2.470
   73c3c    H16  669   2.258   1.940   2.432
   73c3c    H17  670   2.312   1.791   2.504
   73c3c    H18  671   2.414   1.876   2.386
   74c3c      N  672   1.236   1.379   1.552
   74c3c     C1  673   1.132   1.275   1.540
   74c3c     C2  674   1.343   1.319   1.632
   74c3c     C3  675   1.200   1.139   1.561
   74c3c     C4  676   1.344   1.171   1.595
   74c3c     C5  677   1.290   1.408   1.419
   74c3c     C6  678   1.188   1.506   1.609
   74c3c     H1  679   1.083   1.277   1.443
   74c3c     H2  680   1.054   1.285   1.615
   74c3c     H3  681   1.440   1.365   1.612
   74c3c     H4  682   1.327   1.325   1.739
   74c3c     H5  683   1.195   1.076   1.473
   74c3c     H6  684   1.151   1.085   1.642
   74c3c     H7  685   1.405   1.154   1.507
   74c3c     H8  686   1.384   1.111   1.677
   74c3c     H9  687   1.214   1.451   1.353
   74c3c    H10  688   1.372   1.480   1.424
   74c3c    H11  689   1.330   1.320   1.369
   74c3c    H12  690   1.272   1.577   1.611
   74c3c    H13  691   1.116   1.552   1.541
   74c3c     C7  692   1.124   1.503   1.750
   74c3c    H14  693   1.188   1.454   1.823
   74c3c    H15  694   1.030   1.449   1.749
   74c3c     C8  695   1.097   1.645   1.802
   74c3c    H16  696   1.023   1.696   1.740
   74c3c    H17  697   1.188   1.704   1.803
   74c3c    H18  698   1.059   1.641   1.904
   75c3c      N  699   2.121   1.031   2.685
   75c3c     C1  700   2.027   0.950   2.762
   75c3c     C2  701   2.042   1.138   2.621
   75c3c     C3  702   1.893   0.966   2.696
   75c3c     C4  703   1.895   1.109   2.648
   75c3c     C5  704   2.214   1.090   2.782
   75c3c     C6  705   2.199   0.949   2.589
   75c3c     H1  706   2.015   0.987   2.864
   75c3c     H2  707   2.059   0.846   2.768
   75c3c     H3  708   2.066   1.239   2.655
   75c3c     H4  709   2.054   1.142   2.512
   75c3c     H5  710   1.809   0.946   2.763
   75c3c     H6  711   1.886   0.897   2.611
   75c3c     H7  712   1.858   1.175   2.726
   75c3c     H8  713   1.835   1.122   2.558
   75c3c     H9  714   2.263   1.012   2.841
   75c3c    H10  715   2.290   1.149   2.732
   75c3c    H11  716   2.162   1.154   2.853
   75c3c    H12  717   2.273   1.010   2.538
   75c3c    H13  718   2.257   0.874   2.643
   75c3c     C7  719   2.117   0.874   2.482
   75c3c    H14  720   2.042   0.938   2.436
   75c3c    H15  721   2.064   0.790   2.526
   75c3c     C8  722   2.204   0.822   2.369
   75c3c    H16  723   2.284   0.756   2.403
   75c3c    H17  724   2.248   0.905   2.313
   75c3c    H18  725   2.141   0.768   2.299
   76c3c      N  726   1.502   1.538   2.982
   76c3c     C1  727   1.363   1.516   2.939
   76c3c     C2  728   1.571   1.588   2.862
   76c3c     C3  729   1.371   1.466   2.795
   76c3c     C4  730   1.502   1.524   2.742
   76c3c     C5  731   1.503   1.644   3.083
   76c3c     C6  732   1.567   1.419   3.043
   76c3c     H1  733   1.309   1.610   2.935
   76c3c     H2  734   1.309   1.447   3.004
   76c3c     H3  735   1.560   1.696   2.850
   76c3c     H4  736   1.678   1.568   2.864
   76c3c     H5  737   1.286   1.497   2.734
   76c3c     H6  738   1.372   1.357   2.791
   76c3c     H7  739   1.484   1.596   2.662
   76c3c     H8  740   1.564   1.444   2.702
   76c3c     H9  741   1.444   1.613   3.170
   76c3c    H10  742   1.604   1.666   3.118
   76c3c    H11  743   1.461   1.738   3.048
   76c3c    H12  744   1.666   1.449   3.078
   76c3c    H13  745   1.513   1.391   3.133
   76c3c     C7  746   1.587   1.292   2.957
   76c3c    H14  747   1.645   1.315   2.868
   76c3c    H15  748   1.491   1.250   2.926
   76c3c     C8  749   1.660   1.180   3.033
   76c3c    H16  750   1.602   1.146   3.119
   76c3c    H17  751   1.757   1.214   3.069
   76c3c    H18  752   1.676   1.094   2.968
   77c3c      N  753   2.825   1.421   1.953
   77c3c     C1  754   2.958   1.453   1.899
   77c3c     C2  755   2.841   1.296   2.030
   77c3c     C3  756   3.031   1.319   1.887
   77c3c     C4  757   2.984   1.246   2.010
   77c3c     C5  758   2.784   1.530   2.042
   77c3c     C6  759   2.720   1.411   1.849
   77c3c     H1  760   3.015   1.512   1.970
   77c3c     H2  761   2.954   1.509   1.806
   77c3c     H3  762   2.824   1.310   2.136
   77c3c     H4  763   2.772   1.219   1.997
   77c3c     H5  764   3.139   1.330   1.883
   77c3c     H6  765   2.999   1.262   1.799
   77c3c     H7  766   3.046   1.273   2.096
   77c3c     H8  767   2.990   1.138   1.999
   77c3c     H9  768   2.799   1.628   1.995
   77c3c    H10  769   2.679   1.526   2.069
   77c3c    H11  770   2.840   1.529   2.135
   77c3c    H12  771   2.626   1.386   1.897
   77c3c    H13  772   2.705   1.508   1.802
   77c3c     C7  773   2.740   1.309   1.735
   77c3c    H14  774   2.757   1.209   1.775
   77c3c    H15  775   2.826   1.336   1.674
   77c3c     C8  776   2.618   1.304   1.642
   77c3c    H16  777   2.601   1.400   1.594
   77c3c    H17  778   2.527   1.277   1.698
   77c3c    H18  779   2.630   1.229   1.564
   78c3c      N  780   2.417   0.813   0.632
   78c3c     C1  781   2.532   0.766   0.554
   78c3c     C2  782   2.422   0.960   0.637
   78c3c     C3  783   2.636   0.878   0.559
   78c3c     C4  784   2.561   1.005   0.598
   78c3c     C5  785   2.294   0.776   0.563
   78c3c     C6  786   2.414   0.752   0.766
   78c3c     H1  787   2.506   0.744   0.450
   78c3c     H2  788   2.573   0.672   0.591
   78c3c     H3  789   2.349   1.007   0.571
   78c3c     H4  790   2.398   0.997   0.737
   78c3c     H5  791   2.686   0.891   0.463
   78c3c     H6  792   2.712   0.855   0.633
   78c3c     H7  793   2.555   1.075   0.514
   78c3c     H8  794   2.610   1.056   0.681
   78c3c     H9  795   2.286   0.668   0.553
   78c3c    H10  796   2.208   0.816   0.617
   78c3c    H11  797   2.290   0.818   0.462
   78c3c    H12  798   2.326   0.786   0.820
   78c3c    H13  799   2.402   0.644   0.756
   78c3c     C7  800   2.539   0.778   0.852
   78c3c    H14  801   2.563   0.884   0.852
   78c3c    H15  802   2.626   0.729   0.807
   78c3c     C8  803   2.524   0.729   0.996
   78c3c    H16  804   2.498   0.623   1.000
   78c3c    H17  805   2.447   0.786   1.047
   78c3c    H18  806   2.617   0.742   1.052
   79c3c      N  807   1.321   0.325   2.361
   79c3c     C1  808   1.266   0.460   2.338
   79c3c     C2  809   1.257   0.232   2.265
   79c3c     C3  810   1.172   0.457   2.218
   79c3c     C4  811   1.153   0.310   2.185
   79c3c     C5  812   1.464   0.329   2.332
   79c3c     C6  813   1.309   0.278   2.500
   79c3c     H1  814   1.343   0.535   2.321
   79c3c     H2  815   1.210   0.497   2.424
   79c3c     H3  816   1.329   0.190   2.196
   79c3c     H4  817   1.211   0.146   2.313
   79c3c     H5  818   1.215   0.510   2.134
   79c3c     H6  819   1.077   0.504   2.242
   79c3c     H7  820   1.166   0.295   2.078
   79c3c     H8  821   1.053   0.277   2.211
   79c3c     H9  822   1.516   0.397   2.400
   79c3c    H10  823   1.511   0.231   2.341
   79c3c    H11  824   1.482   0.366   2.231
   79c3c    H12  825   1.356   0.181   2.510
   79c3c    H13  826   1.366   0.344   2.566
   79c3c     C7  827   1.166   0.269   2.558
   79c3c    H14  828   1.099   0.217   2.489
   79c3c    H15  829   1.124   0.369   2.571
   79c3c     C8  830   1.162   0.202   2.695
   79c3c    H16  831   1.223   0.257   2.767
   79c3c    H17  832   1.199   0.099   2.690
   79c3c    H18  833   1.060   0.200   2.734
   80c3c      N  834   0.284   1.466   0.866
   80c3c     C1  835   0.426   1.453   0.901
   80c3c     C2  836   0.203   1.430   0.985
   80c3c     C3  837   0.433   1.429   1.050
   80c3c     C4  838   0.299   1.366   1.084
   80c3c     C5  839   0.256   1.606   0.834
   80c3c     C6  840   0.257   1.383   0.747
   80c3c     H1  841   0.487   1.537   0.868
   80c3c     H2  842   0.474   1.368   0.853
   80c3c     H3  843   0.161   1.518   1.034
   80c3c     H4  844   0.117   1.367   0.963
   80c3c     H5  845   0.447   1.521   1.107
   80c3c     H6  846   0.516   1.361   1.070
   80c3c     H7  847   0.271   1.384   1.188
   80c3c     H8  848   0.301   1.258   1.068
   80c3c     H9  849   0.310   1.641   0.746
   80c3c    H10  850   0.149   1.622   0.815
   80c3c    H11  851   0.283   1.672   0.916
   80c3c    H12  852   0.159   1.409   0.706
   80c3c    H13  853   0.327   1.409   0.668
   80c3c     C7  854   0.260   1.229   0.767
   80c3c    H14  855   0.189   1.196   0.843
   80c3c    H15  856   0.358   1.198   0.803
   80c3c     C8  857   0.232   1.151   0.638
   80c3c    H16  858   0.294   1.186   0.556
   80c3c    H17  859   0.127   1.162   0.609
   80c3c    H18  860   0.250   1.045   0.652
   81c3c      N  861   1.083   0.751   0.710
   81c3c     C1  862   1.154   0.873   0.753
   81c3c     C2  863   0.987   0.789   0.605
   81c3c     C3  864   1.083   0.991   0.689
   81c3c     C4  865   1.025   0.931   0.563
   81c3c     C5  866   1.182   0.660   0.651
   81c3c     C6  867   1.021   0.679   0.823
   81c3c     H1  868   1.258   0.875   0.721
   81c3c     H2  869   1.159   0.886   0.861
   81c3c     H3  870   0.986   0.721   0.520
   81c3c     H4  871   0.884   0.791   0.641
   81c3c     H5  872   1.151   1.073   0.670
   81c3c     H6  873   1.003   1.027   0.754
   81c3c     H7  874   1.101   0.928   0.484
   81c3c     H8  875   0.939   0.987   0.526
   81c3c     H9  876   1.256   0.629   0.725
   81c3c    H10  877   1.136   0.568   0.614
   81c3c    H11  878   1.236   0.705   0.568
   81c3c    H12  879   0.977   0.586   0.788
   81c3c    H13  880   1.100   0.648   0.891
   81c3c     C7  881   0.914   0.756   0.906
   81c3c    H14  882   0.833   0.793   0.843
   81c3c    H15  883   0.958   0.844   0.952
   81c3c     C8  884   0.850   0.669   1.014
   81c3c    H16  885   0.923   0.640   1.090
   81c3c    H17  886   0.806   0.578   0.974
   81c3c    H18  887   0.771   0.723   1.067
   82c3c      N  888   0.261   0.356   1.154
   82c3c     C1  889   0.386   0.279   1.171
   82c3c     C2  890   0.185   0.280   1.054
   82c3c     C3  891   0.417   0.210   1.037
   82c3c     C4  892   0.287   0.220   0.957
   82c3c     C5  893   0.186   0.357   1.281
   82c3c     C6  894   0.282   0.498   1.118
   82c3c     H1  895   0.375   0.201   1.246
   82c3c     H2  896   0.470   0.340   1.204
   82c3c     H3  897   0.133   0.197   1.101
   82c3c     H4  898   0.108   0.339   1.005
   82c3c     H5  899   0.446   0.107   1.054
   82c3c     H6  900   0.498   0.259   0.985
   82c3c     H7  901   0.254   0.122   0.920
   82c3c     H8  902   0.302   0.281   0.868
   82c3c     H9  903   0.239   0.410   1.360
   82c3c    H10  904   0.088   0.404   1.269
   82c3c    H11  905   0.167   0.256   1.319
   82c3c    H12  906   0.184   0.547   1.112
   82c3c    H13  907   0.334   0.548   1.199
   82c3c     C7  908   0.357   0.528   0.987
   82c3c    H14  909   0.303   0.488   0.901
   82c3c    H15  910   0.457   0.485   0.989
   82c3c     C8  911   0.371   0.678   0.961
   82c3c    H16  912   0.431   0.726   1.038
   82c3c    H17  913   0.274   0.728   0.958
   82c3c    H18  914   0.420   0.695   0.865
   83c3c      N  915   2.963   0.553   1.968
   83c3c     C1  916   3.045   0.456   2.042
   83c3c     C2  917   2.826   0.504   1.985
   83c3c     C3  918   2.976   0.320   2.029
   83c3c     C4  919   2.831   0.352   1.997
   83c3c     C5  920   2.977   0.686   2.029
   83c3c     C6  921   3.002   0.569   1.826
   83c3c     H1  922   3.043   0.481   2.149
   83c3c     H2  923   3.150   0.455   2.012
   83c3c     H3  924   2.789   0.537   2.082
   83c3c     H4  925   2.755   0.538   1.910
   83c3c     H5  926   2.984   0.262   2.121
   83c3c     H6  927   3.019   0.259   1.949
   83c3c     H7  928   2.767   0.318   2.079
   83c3c     H8  929   2.797   0.302   1.906
   83c3c     H9  930   3.079   0.723   2.025
   83c3c    H10  931   2.914   0.758   1.978
   83c3c    H11  932   2.946   0.687   2.133
   83c3c    H12  933   2.932   0.638   1.779
   83c3c    H13  934   3.100   0.617   1.820
   83c3c     C7  935   3.007   0.444   1.737
   83c3c    H14  936   2.910   0.394   1.735
   83c3c    H15  937   3.080   0.372   1.775
   83c3c     C8  938   3.047   0.478   1.594
   83c3c    H16  939   3.143   0.531   1.589
   83c3c    H17  940   2.972   0.540   1.545
   83c3c    H18  941   3.057   0.387   1.536
   84c3c      N  942   0.858   1.561   2.924
   84c3c     C1  943   0.750   1.483   2.985
   84c3c     C2  944   0.831   1.701   2.957
   84c3c     C3  945   0.628   1.574   2.995
   84c3c     C4  946   0.680   1.715   2.973
   84c3c     C5  947   0.988   1.521   2.981
   84c3c     C6  948   0.870   1.540   2.779
   84c3c     H1  949   0.776   1.452   3.087
   84c3c     H2  950   0.728   1.391   2.930
   84c3c     H3  951   0.878   1.729   3.052
   84c3c     H4  952   0.871   1.770   2.882
   84c3c     H5  953   0.579   1.565   3.092
   84c3c     H6  954   0.554   1.550   2.918
   84c3c     H7  955   0.655   1.779   3.058
   84c3c     H8  956   0.633   1.760   2.885
   84c3c     H9  957   1.011   1.417   2.960
   84c3c    H10  958   1.069   1.581   2.939
   84c3c    H11  959   0.992   1.534   3.089
   84c3c    H12  960   0.954   1.599   2.744
   84c3c    H13  961   0.895   1.436   2.757
   84c3c     C7  962   0.749   1.578   2.692
   84c3c    H14  963   0.722   1.683   2.704
   84c3c    H15  964   0.663   1.518   2.719
   84c3c     C8  965   0.777   1.557   2.543
   84c3c    H16  966   0.808   1.455   2.523
   84c3c    H17  967   0.854   1.625   2.506
   84c3c    H18  968   0.687   1.579   2.486
   85c3c      N  969   0.665   1.355   2.139
   85c3c     C1  970   0.702   1.377   1.999
   85c3c     C2  971   0.733   1.233   2.182
   85c3c     C3  972   0.763   1.245   1.947
   85c3c     C4  973   0.745   1.145   2.058
   85c3c     C5  974   0.715   1.464   2.221
   85c3c     C6  975   0.519   1.352   2.163
   85c3c     H1  976   0.777   1.456   1.987
   85c3c     H2  977   0.616   1.412   1.942
   85c3c     H3  978   0.834   1.253   2.216
   85c3c     H4  979   0.683   1.189   2.268
   85c3c     H5  980   0.869   1.259   1.924
   85c3c     H6  981   0.716   1.205   1.858
   85c3c     H7  982   0.828   1.074   2.064
   85c3c     H8  983   0.656   1.085   2.039
   85c3c     H9  984   0.661   1.555   2.198
   85c3c    H10  985   0.699   1.440   2.326
   85c3c    H11  986   0.822   1.483   2.209
   85c3c    H12  987   0.501   1.340   2.270
   85c3c    H13  988   0.477   1.449   2.138
   85c3c     C7  989   0.436   1.245   2.089
   85c3c    H14  990   0.469   1.145   2.116
   85c3c    H15  991   0.448   1.255   1.981
   85c3c     C8  992   0.287   1.255   2.124
   85c3c    H16  993   0.250   1.356   2.112
   85c3c    H17  994   0.270   1.225   2.227
   85c3c    H18  995   0.228   1.189   2.061
   86c3c      N  996   2.225   1.452   1.354
   86c3c     C1  997   2.127   1.433   1.460
   86c3c     C2  998   2.357   1.464   1.418
   86c3c     C3  999   2.183   1.501   1.583
   86c3c     C4 1000   2.329   1.529   1.553
   86c3c     C5 1001   2.225   1.331   1.273
   86c3c     C6 1002   2.195   1.566   1.265
   86c3c     H1 1003   2.117   1.327   1.487
   86c3c     H2 1004   2.027   1.468   1.434
   86c3c     H3 1005   2.400   1.366   1.439
   86c3c     H4 1006   2.429   1.520   1.358
   86c3c     H5 1007   2.169   1.440   1.672
   86c3c     H6 1008   2.131   1.596   1.598
   86c3c     H7 1009   2.396   1.485   1.627
   86c3c     H8 1010   2.347   1.636   1.553
   86c3c     H9 1011   2.127   1.313   1.229
   86c3c    H10 1012   2.299   1.340   1.193
   86c3c    H11 1013   2.249   1.242   1.331
   86c3c    H12 1014   2.265   1.566   1.181
   86c3c    H13 1015   2.095   1.555   1.224
   86c3c     C7 1016   2.201   1.707   1.325
   86c3c    H14 1017   2.297   1.727   1.372
   86c3c    H15 1018   2.123   1.721   1.400
   86c3c     C8 1019   2.185   1.812   1.216
   86c3c    H16 1020   2.094   1.795   1.159
   86c3c    H17 1021   2.268   1.812   1.146
   86c3c    H18 1022   2.179   1.912   1.260
   87c3c      N 1023   2.414   2.951   0.956
   87c3c     C1 1024   2.293   2.923   0.878
   87c3c     C2 1025   2.484   3.058   0.884
   87c3c     C3 1026   2.327   2.952   0.732
   87c3c     C4 1027   2.442   3.050   0.737
   87c3c     C5 1028   2.377   2.998   1.090
   87c3c     C6 1029   2.499   2.831   0.977
   87c3c     H1 1030   2.212   2.991   0.904
   87c3c     H2 1031   2.255   2.822   0.892
   87c3c     H3 1032   2.453   3.157   0.920
   87c3c     H4 1033   2.592   3.054   0.897
   87c3c     H5 1034   2.242   2.994   0.677
   87c3c     H6 1035   2.358   2.862   0.679
   87c3c     H7 1036   2.409   3.147   0.701
   87c3c     H8 1037   2.524   3.016   0.673
   87c3c     H9 1038   2.321   2.922   1.146
   87c3c    H10 1039   2.464   3.024   1.150
   87c3c    H11 1040   2.315   3.087   1.087
   87c3c    H12 1041   2.583   2.857   1.042
   87c3c    H13 1042   2.440   2.757   1.031
   87c3c     C7 1043   2.555   2.761   0.852
   87c3c    H14 1044   2.608   2.832   0.789
   87c3c    H15 1045   2.473   2.717   0.795
   87c3c     C8 1046   2.652   2.647   0.885
   87c3c    H16 1047   2.600   2.563   0.929
   87c3c    H17 1048   2.730   2.679   0.954
   87c3c    H18 1049   2.700   2.611   0.794
   88c3c      N 1050   0.426   1.733   0.288
   88c3c     C1 1051   0.391   1.736   0.431
   88c3c     C2 1052   0.299   1.710   0.217
   88c3c     C3 1053   0.260   1.659   0.450
   88c3c     C4 1054   0.208   1.629   0.310
   88c3c     C5 1055   0.478   1.863   0.247
   88c3c     C6 1056   0.532   1.635   0.253
   88c3c     H1 1057   0.376   1.838   0.466
   88c3c     H2 1058   0.468   1.693   0.496
   88c3c     H3 1059   0.248   1.804   0.197
   88c3c     H4 1060   0.312   1.662   0.120
   88c3c     H5 1061   0.188   1.720   0.506
   88c3c     H6 1062   0.275   1.566   0.505
   88c3c     H7 1063   0.104   1.659   0.300
   88c3c     H8 1064   0.214   1.522   0.290
   88c3c     H9 1065   0.571   1.891   0.297
   88c3c    H10 1066   0.498   1.867   0.140
   88c3c    H11 1067   0.407   1.944   0.268
   88c3c    H12 1068   0.549   1.639   0.146
   88c3c    H13 1069   0.626   1.667   0.297
   88c3c     C7 1070   0.510   1.488   0.293
   88c3c    H14 1071   0.422   1.447   0.243
   88c3c    H15 1072   0.493   1.478   0.400
   88c3c     C8 1073   0.632   1.402   0.255
   88c3c    H16 1074   0.723   1.437   0.303
   88c3c    H17 1075   0.649   1.404   0.147
   88c3c    H18 1076   0.616   1.298   0.283
   89c3c      N 1077   1.917   2.842   1.271
   89c3c     C1 1078   1.808   2.898   1.192
   89c3c     C2 1079   2.015   2.950   1.284
   89c3c     C3 1080   1.870   3.000   1.096
   89c3c     C4 1081   2.005   3.034   1.157
   89c3c     C5 1082   1.864   2.808   1.403
   89c3c     C6 1083   1.974   2.719   1.211
   89c3c     H1 1084   1.738   2.952   1.255
   89c3c     H2 1085   1.751   2.820   1.141
   89c3c     H3 1086   1.989   3.015   1.368
   89c3c     H4 1087   2.116   2.914   1.305
   89c3c     H5 1088   1.806   3.088   1.087
   89c3c     H6 1089   1.882   2.958   0.996
   89c3c     H7 1090   2.014   3.140   1.179
   89c3c     H8 1091   2.085   3.008   1.087
   89c3c     H9 1092   1.789   2.729   1.397
   89c3c    H10 1093   1.941   2.774   1.472
   89c3c    H11 1094   1.816   2.892   1.454
   89c3c    H12 1095   2.065   2.691   1.265
   89c3c    H13 1096   1.904   2.637   1.225
   89c3c     C7 1097   2.008   2.717   1.061
   89c3c    H14 1098   2.083   2.792   1.037
   89c3c    H15 1099   1.919   2.736   1.001
   89c3c     C8 1100   2.062   2.580   1.020
   89c3c    H16 1101   1.997   2.500   1.053
   89c3c    H17 1102   2.159   2.560   1.065
   89c3c    H18 1103   2.074   2.572   0.912
   90c3c      N 1104   2.857   1.714   2.846
   90c3c     C1 1105   2.718   1.722   2.895
   90c3c     C2 1106   2.913   1.590   2.901
   90c3c     C3 1107   2.701   1.623   3.010
   90c3c     C4 1108   2.838   1.562   3.032
   90c3c     C5 1109   2.857   1.705   2.699
   90c3c     C6 1110   2.935   1.835   2.878
   90c3c     H1 1111   2.647   1.696   2.817
   90c3c     H2 1112   2.691   1.823   2.926
   90c3c     H3 1113   2.894   1.505   2.836
   90c3c     H4 1114   3.021   1.594   2.916
   90c3c     H5 1115   2.628   1.547   2.983
   90c3c     H6 1116   2.665   1.672   3.101
   90c3c     H7 1117   2.831   1.455   3.052
   90c3c     H8 1118   2.887   1.608   3.117
   90c3c     H9 1119   2.812   1.794   2.654
   90c3c    H10 1120   2.957   1.694   2.659
   90c3c    H11 1121   2.798   1.621   2.663
   90c3c    H12 1122   3.037   1.824   2.840
   90c3c    H13 1123   2.893   1.920   2.824
   90c3c     C7 1124   2.944   1.878   3.026
   90c3c    H14 1125   2.999   1.804   3.084
   90c3c    H15 1126   2.845   1.886   3.071
   90c3c     C8 1127   3.013   2.014   3.039
   90c3c    H16 1128   2.960   2.091   2.984
   90c3c    H17 1129   3.115   2.011   3.001
   90c3c    H18 1130   3.018   2.046   3.143
   91c3c      N 1131   0.807   1.931   2.068
   91c3c     C1 1132   0.777   2.016   2.183
   91c3c     C2 1133   0.742   1.804   2.100
   91c3c     C3 1134   0.765   1.926   2.307
   91c3c     C4 1135   0.751   1.786   2.252
   91c3c     C5 1136   0.752   1.989   1.945
   91c3c     C6 1137   0.951   1.920   2.044
   91c3c     H1 1138   0.678   2.059   2.167
   91c3c     H2 1139   0.845   2.101   2.196
   91c3c     H3 1140   0.636   1.809   2.075
   91c3c     H4 1141   0.784   1.719   2.045
   91c3c     H5 1142   0.676   1.950   2.365
   91c3c     H6 1143   0.850   1.932   2.375
   91c3c     H7 1144   0.660   1.743   2.294
   91c3c     H8 1145   0.834   1.723   2.283
   91c3c     H9 1146   0.800   2.083   1.918
   91c3c    H10 1147   0.762   1.921   1.860
   91c3c    H11 1148   0.647   2.014   1.956
   91c3c    H12 1149   0.970   1.845   1.967
   91c3c    H13 1150   0.988   2.014   2.004
   91c3c     C7 1151   1.039   1.890   2.166
   91c3c    H14 1152   1.019   1.788   2.201
   91c3c    H15 1153   1.023   1.958   2.249
   91c3c     C8 1154   1.183   1.905   2.128
   91c3c    H16 1155   1.205   2.008   2.099
   91c3c    H17 1156   1.203   1.838   2.045
   91c3c    H18 1157   1.248   1.881   2.211
   92c3c      N 1158   0.802   1.776   0.648
   92c3c     C1 1159   0.901   1.881   0.677
   92c3c     C2 1160   0.695   1.839   0.567
   92c3c     C3 1161   0.869   2.003   0.590
   92c3c     C4 1162   0.752   1.965   0.503
   92c3c     C5 1163   0.867   1.674   0.566
   92c3c     C6 1164   0.748   1.703   0.765
   92c3c     H1 1165   1.005   1.851   0.660
   92c3c     H2 1166   0.904   1.914   0.781
   92c3c     H3 1167   0.660   1.772   0.489
   92c3c     H4 1168   0.609   1.868   0.627
   92c3c     H5 1169   0.953   2.040   0.531
   92c3c     H6 1170   0.840   2.089   0.651
   92c3c     H7 1171   0.784   1.947   0.400
   92c3c     H8 1172   0.678   2.045   0.499
   92c3c     H9 1173   0.956   1.636   0.616
   92c3c    H10 1174   0.801   1.590   0.543
   92c3c    H11 1175   0.900   1.715   0.470
   92c3c    H12 1176   0.677   1.626   0.733
   92c3c    H13 1177   0.830   1.649   0.812
   92c3c     C7 1178   0.679   1.787   0.873
   92c3c    H14 1179   0.589   1.835   0.834
   92c3c    H15 1180   0.748   1.866   0.905
   92c3c     C8 1181   0.636   1.714   1.000
   92c3c    H16 1182   0.686   1.618   1.012
   92c3c    H17 1183   0.528   1.700   1.002
   92c3c    H18 1184   0.660   1.774   1.088
   93c3c      N 1185   1.863   0.270   2.880
   93c3c     C1 1186   1.738   0.239   2.951
   93c3c     C2 1187   1.880   0.415   2.894
   93c3c     C3 1188   1.647   0.362   2.938
   93c3c     C4 1189   1.742   0.476   2.905
   93c3c     C5 1190   1.976   0.204   2.946
   93c3c     C6 1191   1.863   0.224   2.739
   93c3c     H1 1192   1.757   0.227   3.058
   93c3c     H2 1193   1.690   0.147   2.917
   93c3c     H3 1194   1.930   0.438   2.989
   93c3c     H4 1195   1.940   0.460   2.816
   93c3c     H5 1196   1.593   0.381   3.031
   93c3c     H6 1197   1.572   0.350   2.860
   93c3c     H7 1198   1.740   0.551   2.984
   93c3c     H8 1199   1.716   0.526   2.812
   93c3c     H9 1200   1.971   0.096   2.939
   93c3c    H10 1201   2.071   0.236   2.903
   93c3c    H11 1202   1.982   0.230   3.052
   93c3c    H12 1203   1.959   0.250   2.695
   93c3c    H13 1204   1.858   0.115   2.737
   93c3c     C7 1205   1.756   0.278   2.641
   93c3c    H14 1206   1.773   0.384   2.623
   93c3c    H15 1207   1.655   0.268   2.680
   93c3c     C8 1208   1.762   0.201   2.509
   93c3c    H16 1209   1.712   0.104   2.516
   93c3c    H17 1210   1.864   0.182   2.477
   93c3c    H18 1211   1.715   0.258   2.429
   94c3c      N 1212   1.161   1.406   0.302
   94c3c     C1 1213   1.109   1.286   0.235
   94c3c     C2 1214   1.306   1.387   0.306
   94c3c     C3 1215   1.205   1.172   0.270
   94c3c     C4 1216   1.332   1.238   0.321
   94c3c     C5 1217   1.133   1.523   0.220
   94c3c     C6 1218   1.103   1.433   0.436
   94c3c     H1 1219   1.115   1.298   0.127
   94c3c     H2 1220   1.005   1.264   0.257
   94c3c     H3 1221   1.351   1.413   0.210
   94c3c     H4 1222   1.356   1.451   0.379
   94c3c     H5 1223   1.226   1.112   0.181
   94c3c     H6 1224   1.164   1.105   0.346
   94c3c     H7 1225   1.419   1.209   0.262
   94c3c     H8 1226   1.352   1.208   0.424
   94c3c     H9 1227   1.027   1.548   0.216
   94c3c    H10 1228   1.187   1.610   0.258
   94c3c    H11 1229   1.169   1.513   0.117
   94c3c    H12 1230   1.150   1.523   0.475
   94c3c    H13 1231   0.997   1.457   0.424
   94c3c     C7 1232   1.119   1.327   0.547
   94c3c    H14 1233   1.224   1.305   0.564
   94c3c    H15 1234   1.071   1.234   0.518
   94c3c     C8 1235   1.062   1.377   0.680
   94c3c    H16 1236   0.961   1.415   0.673
   94c3c    H17 1237   1.122   1.459   0.719
   94c3c    H18 1238   1.063   1.298   0.756
   95c3c      N 1239   1.044   2.100   2.803
   95c3c     C1 1240   1.030   2.042   2.938
   95c3c     C2 1241   1.182   2.075   2.759
   95c3c     C3 1242   1.163   1.976   2.975
   95c3c     C4 1243   1.263   2.043   2.884
   95c3c     C5 1244   0.953   2.035   2.707
   95c3c     C6 1245   1.008   2.243   2.804
   95c3c     H1 1246   0.949   1.970   2.945
   95c3c     H2 1247   1.008   2.118   3.013
   95c3c     H3 1248   1.187   1.987   2.695
   95c3c     H4 1249   1.226   2.156   2.699
   95c3c     H5 1250   1.160   1.869   2.953
   95c3c     H6 1251   1.188   1.989   3.080
   95c3c     H7 1252   1.348   1.977   2.865
   95c3c     H8 1253   1.301   2.134   2.931
   95c3c     H9 1254   0.848   2.059   2.725
   95c3c    H10 1255   0.974   2.065   2.604
   95c3c    H11 1256   0.962   1.926   2.711
   95c3c    H12 1257   0.997   2.280   2.702
   95c3c    H13 1258   0.911   2.253   2.852
   95c3c     C7 1259   1.104   2.338   2.877
   95c3c    H14 1260   1.195   2.351   2.818
   95c3c    H15 1261   1.135   2.298   2.974
   95c3c     C8 1262   1.042   2.476   2.901
   95c3c    H16 1263   0.958   2.470   2.971
   95c3c    H17 1264   1.005   2.520   2.808
   95c3c    H18 1265   1.116   2.544   2.944
   96c3c      N 1266   0.321   1.815   1.847
   96c3c     C1 1267   0.209   1.795   1.754
   96c3c     C2 1268   0.422   1.715   1.807
   96c3c     C3 1269   0.206   1.646   1.717
   96c3c     C4 1270   0.345   1.595   1.751
   96c3c     C5 1271   0.375   1.950   1.827
   96c3c     C6 1272   0.283   1.806   1.990
   96c3c     H1 1273   0.228   1.849   1.662
   96c3c     H2 1274   0.114   1.831   1.793
   96c3c     H3 1275   0.484   1.753   1.727
   96c3c     H4 1276   0.491   1.689   1.887
   96c3c     H5 1277   0.185   1.633   1.611
   96c3c     H6 1278   0.130   1.590   1.771
   96c3c     H7 1279   0.392   1.557   1.660
   96c3c     H8 1280   0.340   1.513   1.823
   96c3c     H9 1281   0.301   2.027   1.848
   96c3c    H10 1282   0.459   1.969   1.894
   96c3c    H11 1283   0.413   1.967   1.726
   96c3c    H12 1284   0.369   1.832   2.052
   96c3c    H13 1285   0.209   1.884   2.011
   96c3c     C7 1286   0.229   1.672   2.043
   96c3c    H14 1287   0.310   1.599   2.046
   96c3c    H15 1288   0.150   1.631   1.980
   96c3c     C8 1289   0.170   1.687   2.184
   96c3c    H16 1290   0.073   1.737   2.181
   96c3c    H17 1291   0.235   1.749   2.246
   96c3c    H18 1292   0.158   1.591   2.232
   97c3c      N 1293   2.624   1.011   2.971
   97c3c     C1 1294   2.570   1.094   2.862
   97c3c     C2 1295   2.584   1.076   3.096
   97c3c     C3 1296   2.521   1.227   2.924
   97c3c     C4 1297   2.561   1.224   3.070
   97c3c     C5 1298   2.563   0.877   2.968
   97c3c     C6 1299   2.769   0.990   2.962
   97c3c     H1 1300   2.488   1.044   2.812
   97c3c     H2 1301   2.644   1.110   2.784
   97c3c     H3 1302   2.488   1.037   3.131
   97c3c     H4 1303   2.657   1.061   3.175
   97c3c     H5 1304   2.413   1.235   2.918
   97c3c     H6 1305   2.565   1.314   2.875
   97c3c     H7 1306   2.483   1.264   3.134
   97c3c     H8 1307   2.652   1.281   3.088
   97c3c     H9 1308   2.584   0.823   2.876
   97c3c    H10 1309   2.598   0.814   3.051
   97c3c    H11 1310   2.455   0.882   2.979
   97c3c    H12 1311   2.801   0.923   3.041
   97c3c    H13 1312   2.790   0.939   2.868
   97c3c     C7 1313   2.860   1.115   2.966
   97c3c    H14 1314   2.854   1.163   3.064
   97c3c    H15 1315   2.829   1.189   2.892
   97c3c     C8 1316   3.006   1.076   2.939
   97c3c    H16 1317   3.017   1.028   2.841
   97c3c    H17 1318   3.042   1.006   3.014
   97c3c    H18 1319   3.072   1.163   2.941
   98c3c      N 1320   1.500   1.378   1.005
   98c3c     C1 1321   1.511   1.232   1.021
   98c3c     C2 1322   1.364   1.412   1.044
   98c3c     C3 1323   1.371   1.174   0.998
   98c3c     C4 1324   1.277   1.295   1.004
   98c3c     C5 1325   1.596   1.443   1.096
   98c3c     C6 1326   1.531   1.426   0.870
   98c3c     H1 1327   1.539   1.207   1.123
   98c3c     H2 1328   1.587   1.188   0.957
   98c3c     H3 1329   1.356   1.426   1.152
   98c3c     H4 1330   1.329   1.504   0.997
   98c3c     H5 1331   1.348   1.100   1.075
   98c3c     H6 1332   1.363   1.124   0.902
   98c3c     H7 1333   1.195   1.287   1.076
   98c3c     H8 1334   1.230   1.311   0.907
   98c3c     H9 1335   1.699   1.419   1.070
   98c3c    H10 1336   1.591   1.552   1.093
   98c3c    H11 1337   1.579   1.416   1.200
   98c3c    H12 1338   1.526   1.535   0.868
   98c3c    H13 1339   1.634   1.399   0.847
   98c3c     C7 1340   1.444   1.377   0.753
   98c3c    H14 1341   1.343   1.418   0.760
   98c3c    H15 1342   1.437   1.268   0.754
   98c3c     C8 1343   1.503   1.419   0.620
   98c3c    H16 1344   1.612   1.408   0.621
   98c3c    H17 1345   1.481   1.522   0.596
   98c3c    H18 1346   1.467   1.355   0.540
   99c3c      N 1347   1.819   2.273   1.936
   99c3c     C1 1348   1.832   2.127   1.947
   99c3c     C2 1349   1.915   2.332   2.029
   99c3c     C3 1350   1.876   2.098   2.090
   99c3c     C4 1351   1.931   2.230   2.139
   99c3c     C5 1352   1.861   2.311   1.803
   99c3c     C6 1353   1.683   2.325   1.957
   99c3c     H1 1354   1.912   2.090   1.882
   99c3c     H2 1355   1.744   2.073   1.912
   99c3c     H3 1356   2.013   2.345   1.983
   99c3c     H4 1357   1.885   2.431   2.064
   99c3c     H5 1358   1.951   2.019   2.092
   99c3c     H6 1359   1.794   2.065   2.154
   99c3c     H7 1360   2.038   2.222   2.157
   99c3c     H8 1361   1.881   2.261   2.231
   99c3c     H9 1362   1.796   2.270   1.725
   99c3c    H10 1363   1.864   2.420   1.796
   99c3c    H11 1364   1.962   2.277   1.781
   99c3c    H12 1365   1.684   2.433   1.942
   99c3c    H13 1366   1.619   2.285   1.879
   99c3c     C7 1367   1.618   2.302   2.095
   99c3c    H14 1368   1.669   2.358   2.172
   99c3c    H15 1369   1.627   2.196   2.122
   99c3c     C8 1370   1.470   2.336   2.094
   99c3c    H16 1371   1.422   2.292   2.007
   99c3c    H17 1372   1.453   2.444   2.092
   99c3c    H18 1373   1.420   2.295   2.182
  100c3c      N 1374   0.726   0.299   0.611
  100c3c     C1 1375   0.835   0.394   0.635
  100c3c     C2 1376   0.787   0.166   0.625
  100c3c     C3 1377   0.966   0.326   0.592
  100c3c     C4 1378   0.933   0.178   0.581
  100c3c     C5 1379   0.623   0.316   0.716
  100c3c     C6 1380   0.657   0.321   0.482
  100c3c     H1 1381   0.845   0.414   0.742
  100c3c     H2 1382   0.820   0.491   0.587
  100c3c     H3 1383   0.788   0.134   0.729
  100c3c     H4 1384   0.734   0.088   0.570
  100c3c     H5 1385   1.045   0.343   0.665
  100c3c     H6 1386   1.002   0.364   0.496
  100c3c     H7 1387   0.998   0.119   0.645
  100c3c     H8 1388   0.948   0.143   0.479
  100c3c     H9 1389   0.578   0.415   0.713
  100c3c    H10 1390   0.544   0.243   0.705
  100c3c    H11 1391   0.665   0.303   0.815
  100c3c    H12 1392   0.576   0.248   0.473
  100c3c    H13 1393   0.608   0.418   0.482
  100c3c     C7 1394   0.740   0.311   0.352
  100c3c    H14 1395   0.782   0.211   0.341
  100c3c    H15 1396   0.823   0.381   0.354
  100c3c     C8 1397   0.654   0.341   0.229
  100c3c    H16 1398   0.613   0.442   0.232
  100c3c    H17 1399   0.571   0.272   0.220
  100c3c    H18 1400   0.713   0.333   0.137
  101fsi     F1 1401   1.627   2.371   1.568
  101fsi     S1 1402   1.660   2.522   1.597
  101fsi      N 1403   1.816   2.528   1.587
  101fsi     O1 1404   1.591   2.594   1.494
  101fsi     O2 1405   1.612   2.539   1.731
  101fsi     S2 1406   1.908   2.451   1.485
  101fsi     O3 1407   1.843   2.429   1.360
  101fsi     O4 1408   1.985   2.346   1.545
  101fsi     F2 1409   2.016   2.555   1.450
  102fsi     F1 1410   1.293   0.546   2.729
  102fsi     S1 1411   1.413   0.626   2.670
  102fsi      N 1412   1.426   0.746   2.771
  102fsi     O1 1413   1.518   0.528   2.668
  102fsi     O2 1414   1.357   0.666   2.544
  102fsi     S2 1415   1.496   0.757   2.911
  102fsi     O3 1416   1.492   0.636   2.987
  102fsi     O4 1417   1.462   0.878   2.982
  102fsi     F2 1418   1.647   0.778   2.875
  103fsi     F1 1419   1.153   1.109   1.225
  103fsi     S1 1420   1.021   1.085   1.144
  103fsi      N 1421   0.976   0.945   1.196
  103fsi     O1 1422   0.936   1.194   1.182
  103fsi     O2 1423   1.062   1.077   1.006
  103fsi     S2 1424   0.890   0.919   1.323
  103fsi     O3 1425   0.936   0.984   1.441
  103fsi     O4 1426   0.864   0.777   1.331
  103fsi     F2 1427   0.753   0.983   1.288
  104fsi     F1 1428   0.810   2.318   0.731
  104fsi     S1 1429   0.843   2.280   0.880
  104fsi      N 1430   0.701   2.246   0.939
  104fsi     O1 1431   0.929   2.167   0.868
  104fsi     O2 1432   0.897   2.403   0.930
  104fsi     S2 1433   0.596   2.137   0.899
  104fsi     O3 1434   0.627   2.070   0.777
  104fsi     O4 1435   0.459   2.178   0.903
  104fsi     F2 1436   0.606   2.030   1.012
  105fsi     F1 1437   0.449   2.318   2.760
  105fsi     S1 1438   0.576   2.326   2.851
  105fsi      N 1439   0.541   2.227   2.967
  105fsi     O1 1440   0.685   2.286   2.766
  105fsi     O2 1441   0.577   2.462   2.900
  105fsi     S2 1442   0.606   2.090   3.008
  105fsi     O3 1443   0.700   2.032   2.917
  105fsi     O4 1444   0.518   1.999   3.074
  105fsi     F2 1445   0.700   2.139   3.124
  106fsi     F1 1446   0.719   2.173   2.438
  106fsi     S1 1447   0.667   2.312   2.391
  106fsi      N 1448   0.599   2.285   2.251
  106fsi     O1 1449   0.577   2.349   2.496
  106fsi     O2 1450   0.789   2.387   2.381
  106fsi     S2 1451   0.468   2.204   2.214
  106fsi     O3 1452   0.452   2.080   2.284
  106fsi     O4 1453   0.449   2.197   2.071
  106fsi     F2 1454   0.349   2.293   2.262
  107fsi     F1 1455   1.511   2.759   1.235
  107fsi     S1 1456   1.430   2.861   1.147
  107fsi      N 1457   1.366   2.772   1.035
  107fsi     O1 1458   1.334   2.916   1.238
  107fsi     O2 1459   1.528   2.952   1.097
  107fsi     S2 1460   1.223   2.709   1.026
  107fsi     O3 1461   1.153   2.709   1.152
  107fsi     O4 1462   1.212   2.595   0.941
  107fsi     F2 1463   1.145   2.820   0.945
  108fsi     F1 1464   1.289   2.355   0.087
  108fsi     S1 1465   1.420   2.376   0.171
  108fsi      N 1466   1.442   2.531   0.165
  108fsi     O1 1467   1.388   2.325   0.301
  108fsi     O2 1468   1.520   2.308   0.095
  108fsi     S2 1469   1.367   2.644   0.245
  108fsi     O3 1470   1.225   2.629   0.252
  108fsi     O4 1471   1.417   2.771   0.199
  108fsi     F2 1472   1.420   2.632   0.392
  109fsi     F1 1473   2.154   0.542   1.907
  109fsi     S1 1474   2.109   0.623   2.034
  109fsi      N 1475   2.062   0.759   1.969
  109fsi     O1 1476   2.006   0.540   2.090
  109fsi     O2 1477   2.232   0.641   2.105
  109fsi     S2 1478   1.933   0.805   1.892
  109fsi     O3 1479   1.836   0.702   1.869
  109fsi     O4 1480   1.974   0.871   1.772
  109fsi     F2 1481   1.861   0.913   1.981
  110fsi     F1 1482   2.882   2.342   1.832
  110fsi     S1 1483   2.764   2.408   1.912
  110fsi      N 1484   2.792   2.561   1.893
  110fsi     O1 1485   2.646   2.362   1.845
  110fsi     O2 1486   2.789   2.360   2.045
  110fsi     S2 1487   2.766   2.650   1.766
  110fsi     O3 1488   2.736   2.579   1.645
  110fsi     O4 1489   2.858   2.760   1.760
  110fsi     F2 1490   2.629   2.720   1.800
  111fsi     F1 1491   1.016   3.097   0.937
  111fsi     S1 1492   0.866   3.091   0.985
  111fsi      N 1493   0.834   2.937   0.979
  111fsi     O1 1494   0.870   3.146   1.117
  111fsi     O2 1495   0.795   3.167   0.885
  111fsi     S2 1496   0.844   2.825   1.088
  111fsi     O3 1497   0.913   2.864   1.208
  111fsi     O4 1498   0.877   2.698   1.030
  111fsi     F2 1499   0.696   2.805   1.137
  112fsi     F1 1500   3.192   1.326   0.754
  112fsi     S1 1501   3.148   1.419   0.635
  112fsi      N 1502   2.993   1.410   0.639
  112fsi     O1 1503   3.200   1.549   0.670
  112fsi     O2 1504   3.208   1.356   0.520
  112fsi     S2 1505   2.901   1.460   0.755
  112fsi     O3 1506   2.956   1.446   0.887
  112fsi     O4 1507   2.763   1.423   0.733
  112fsi     F2 1508   2.902   1.615   0.731
  113fsi     F1 1509   2.790   3.215   2.518
  113fsi     S1 1510   2.756   3.080   2.444
  113fsi      N 1511   2.749   2.977   2.563
  113fsi     O1 1512   2.636   3.105   2.371
  113fsi     O2 1513   2.877   3.054   2.371
  113fsi     S2 1514   2.641   2.953   2.674
  113fsi     O3 1515   2.542   3.056   2.689
  113fsi     O4 1516   2.701   2.903   2.795
  113fsi     F2 1517   2.561   2.829   2.621
  114fsi     F1 1518   1.875   1.375   0.650
  114fsi     S1 1519   1.951   1.300   0.763
  114fsi      N 1520   2.070   1.396   0.801
  114fsi     O1 1521   1.853   1.279   0.866
  114fsi     O2 1522   1.997   1.179   0.700
  114fsi     S2 1523   2.113   1.465   0.936
  114fsi     O3 1524   2.097   1.606   0.943
  114fsi     O4 1525   2.244   1.417   0.970
  114fsi     F2 1526   2.016   1.408   1.045
  115fsi     F1 1527   1.619   2.317   1.065
  115fsi     S1 1528   1.635   2.469   1.034
  115fsi      N 1529   1.766   2.477   0.951
  115fsi     O1 1530   1.515   2.504   0.966
  115fsi     O2 1531   1.655   2.530   1.162
  115fsi     S2 1532   1.789   2.483   0.797
  115fsi     O3 1533   1.671   2.470   0.717
  115fsi     O4 1534   1.906   2.412   0.757
  115fsi     F2 1535   1.830   2.632   0.776
  116fsi     F1 1536   0.772   1.342   1.663
  116fsi     S1 1537   0.629   1.409   1.653
  116fsi      N 1538   0.599   1.411   1.500
  116fsi     O1 1539   0.543   1.316   1.721
  116fsi     O2 1540   0.649   1.536   1.715
  116fsi     S2 1541   0.588   1.286   1.406
  116fsi     O3 1542   0.631   1.164   1.469
  116fsi     O4 1543   0.630   1.308   1.272
  116fsi     F2 1544   0.433   1.267   1.394
  117fsi     F1 1545   2.372   0.399   2.290
  117fsi     S1 1546   2.411   0.300   2.175
  117fsi      N 1547   2.334   0.168   2.212
  117fsi     O1 1548   2.366   0.366   2.056
  117fsi     O2 1549   2.553   0.287   2.194
  117fsi     S2 1550   2.197   0.112   2.158
  117fsi     O3 1551   2.101   0.210   2.114
  117fsi     O4 1552   2.146   0.003   2.238
  117fsi     F2 1553   2.240   0.039   2.025
  118fsi     F1 1554   1.563   2.793   1.889
  118fsi     S1 1555   1.714   2.833   1.873
  118fsi      N 1556   1.716   2.985   1.914
  118fsi     O1 1557   1.779   2.744   1.965
  118fsi     O2 1558   1.741   2.816   1.733
  118fsi     S2 1559   1.799   3.063   2.024
  118fsi     O3 1560   1.876   2.978   2.110
  118fsi     O4 1561   1.722   3.167   2.084
  118fsi     F2 1562   1.907   3.139   1.940
  119fsi     F1 1563   2.360   2.862   0.344
  119fsi     S1 1564   2.221   2.789   0.341
  119fsi      N 1565   2.234   2.689   0.462
  119fsi     O1 1566   2.128   2.898   0.357
  119fsi     O2 1567   2.223   2.723   0.213
  119fsi     S2 1568   2.155   2.680   0.598
  119fsi     O3 1569   2.078   2.796   0.634
  119fsi     O4 1570   2.235   2.623   0.703
  119fsi     F2 1571   2.050   2.569   0.568
  120fsi     F1 1572   2.767   2.387   2.990
  120fsi     S1 1573   2.784   2.531   2.929
  120fsi      N 1574   2.664   2.544   2.828
  120fsi     O1 1575   2.772   2.622   3.040
  120fsi     O2 1576   2.911   2.525   2.862
  120fsi     S2 1577   2.511   2.556   2.861
  120fsi     O3 1578   2.470   2.483   2.977
  120fsi     O4 1579   2.430   2.544   2.742
  120fsi     F2 1580   2.495   2.706   2.903
  121fsi     F1 1581   2.303   0.436   0.878
  121fsi     S1 1582   2.263   0.354   0.751
  121fsi      N 1583   2.107   0.373   0.744
  121fsi     O1 1584   2.336   0.416   0.644
  121fsi     O2 1585   2.301   0.220   0.788
  121fsi     S2 1586   2.025   0.483   0.667
  121fsi     O3 1587   2.070   0.618   0.685
  121fsi     O4 1588   1.883   0.463   0.674
  121fsi     F2 1589   2.056   0.452   0.517
  122fsi     F1 1590   2.364   0.647   3.067
  122fsi     S1 1591   2.267   0.618   2.947
  122fsi      N 1592   2.126   0.602   3.014
  122fsi     O1 1593   2.281   0.732   2.860
  122fsi     O2 1594   2.314   0.493   2.894
  122fsi     S2 1595   2.020   0.711   3.050
  122fsi     O3 1596   2.073   0.844   3.064
  122fsi     O4 1597   1.923   0.665   3.147
  122fsi     F2 1598   1.934   0.718   2.920
  123fsi     F1 1599   1.341   0.404   0.558
  123fsi     S1 1600   1.480   0.370   0.623
  123fsi      N 1601   1.547   0.512   0.636
  123fsi     O1 1602   1.444   0.306   0.747
  123fsi     O2 1603   1.543   0.288   0.524
  123fsi     S2 1604   1.540   0.619   0.751
  123fsi     O3 1605   1.455   0.581   0.860
  123fsi     O4 1606   1.522   0.752   0.701
  123fsi     F2 1607   1.684   0.620   0.813
  124fsi     F1 1608   2.785   0.480   2.902
  124fsi     S1 1609   2.880   0.602   2.928
  124fsi      N 1610   3.024   0.543   2.908
  124fsi     O1 1611   2.843   0.697   2.825
  124fsi     O2 1612   2.853   0.640   3.063
  124fsi     S2 1613   3.131   0.572   2.797
  124fsi     O3 1614   3.080   0.626   2.674
  124fsi     O4 1615   3.230   0.468   2.789
  124fsi     F2 1616   3.211   0.692   2.860
  125fsi     F1 1617   2.603   1.838   0.423
  125fsi     S1 1618   2.688   1.786   0.544
  125fsi      N 1619   2.629   1.869   0.665
  125fsi     O1 1620   2.664   1.644   0.545
  125fsi     O2 1621   2.820   1.833   0.514
  125fsi     S2 1622   2.613   1.831   0.817
  125fsi     O3 1623   2.479   1.828   0.865
  125fsi     O4 1624   2.710   1.907   0.892
  125fsi     F2 1625   2.661   1.683   0.828
  126fsi     F1 1626   2.849   0.861   1.050
  126fsi     S1 1627   2.920   0.812   0.918
  126fsi      N 1628   2.872   0.919   0.814
  126fsi     O1 1629   3.060   0.816   0.951
  126fsi     O2 1630   2.861   0.684   0.894
  126fsi     S2 1631   2.952   1.037   0.750
  126fsi     O3 1632   3.046   1.100   0.839
  126fsi     O4 1633   2.868   1.122   0.670
  126fsi     F2 1634   3.042   0.965   0.643
  127fsi     F1 1635   2.273   1.226   2.006
  127fsi     S1 1636   2.205   1.090   1.969
  127fsi      N 1637   2.054   1.120   1.993
  127fsi     O1 1638   2.242   1.069   1.831
  127fsi     O2 1639   2.258   1.000   2.067
  127fsi     S2 1640   1.985   1.261   1.999
  127fsi     O3 1641   2.039   1.357   1.907
  127fsi     O4 1642   1.965   1.302   2.135
  127fsi     F2 1643   1.840   1.231   1.943
  128fsi     F1 1644   1.062   0.351   1.445
  128fsi     S1 1645   1.147   0.240   1.517
  128fsi      N 1646   1.226   0.324   1.624
  128fsi     O1 1647   1.049   0.152   1.574
  128fsi     O2 1648   1.230   0.187   1.413
  128fsi     S2 1649   1.171   0.379   1.760
  128fsi     O3 1650   1.042   0.442   1.749
  128fsi     O4 1651   1.271   0.447   1.837
  128fsi     F2 1652   1.145   0.248   1.842
  129fsi     F1 1653   0.791   0.871   0.322
  129fsi     S1 1654   0.676   0.977   0.304
  129fsi      N 1655   0.548   0.886   0.286
  129fsi     O1 1656   0.682   1.053   0.426
  129fsi     O2 1657   0.714   1.047   0.185
  129fsi     S2 1658   0.435   0.848   0.388
  129fsi     O3 1659   0.478   0.845   0.525
  129fsi     O4 1660   0.351   0.739   0.344
  129fsi     F2 1661   0.339   0.972   0.380
  130fsi     F1 1662   0.900   2.702   0.371
  130fsi     S1 1663   0.764   2.660   0.437
  130fsi      N 1664   0.689   2.798   0.454
  130fsi     O1 1665   0.702   2.574   0.341
  130fsi     O2 1666   0.803   2.603   0.564
  130fsi     S2 1667   0.609   2.881   0.348
  130fsi     O3 1668   0.651   2.865   0.211
  130fsi     O4 1669   0.580   3.016   0.391
  130fsi     F2 1670   0.467   2.813   0.351
  131fsi     F1 1671   3.168   2.621   1.599
  131fsi     S1 1672   3.105   2.513   1.503
  131fsi      N 1673   3.009   2.598   1.412
  131fsi     O1 1674   3.218   2.456   1.437
  131fsi     O2 1675   3.035   2.425   1.593
  131fsi     S2 1676   3.021   2.638   1.260
  131fsi     O3 1677   3.096   2.546   1.179
  131fsi     O4 1678   3.044   2.779   1.239
  131fsi     F2 1679   2.875   2.617   1.209
  132fsi     F1 1680   1.089   1.576   2.555
  132fsi     S1 1681   1.161   1.714   2.566
  132fsi      N 1682   1.295   1.686   2.493
  132fsi     O1 1683   1.073   1.807   2.500
  132fsi     O2 1684   1.176   1.733   2.709
  132fsi     S2 1685   1.308   1.618   2.351
  132fsi     O3 1686   1.193   1.637   2.268
  132fsi     O4 1687   1.364   1.487   2.355
  132fsi     F2 1688   1.418   1.702   2.282
  133fsi     F1 1689   1.589   2.774   2.426
  133fsi     S1 1690   1.725   2.818   2.490
  133fsi      N 1691   1.808   2.686   2.481
  133fsi     O1 1692   1.769   2.926   2.407
  133fsi     O2 1693   1.688   2.851   2.625
  133fsi     S2 1694   1.900   2.632   2.367
  133fsi     O3 1695   1.953   2.728   2.274
  133fsi     O4 1696   1.852   2.508   2.313
  133fsi     F2 1697   2.029   2.591   2.446
  134fsi     F1 1698   2.154   2.640   1.657
  134fsi     S1 1699   2.243   2.753   1.596
  134fsi      N 1700   2.145   2.874   1.582
  134fsi     O1 1701   2.347   2.771   1.694
  134fsi     O2 1702   2.285   2.702   1.468
  134fsi     S2 1703   2.081   2.963   1.695
  134fsi     O3 1704   2.060   2.893   1.819
  134fsi     O4 1705   1.973   3.044   1.647
  134fsi     F2 1706   2.195   3.066   1.729
  135fsi     F1 1707   1.863   0.638   1.438
  135fsi     S1 1708   1.852   0.484   1.455
  135fsi      N 1709   1.996   0.433   1.424
  135fsi     O1 1710   1.818   0.471   1.593
  135fsi     O2 1711   1.754   0.448   1.356
  135fsi     S2 1712   2.124   0.462   1.510
  135fsi     O3 1713   2.117   0.590   1.576
  135fsi     O4 1714   2.244   0.432   1.439
  135fsi     F2 1715   2.117   0.355   1.625
  136fsi     F1 1716   1.143   1.609   1.097
  136fsi     S1 1717   1.028   1.639   0.996
  136fsi      N 1718   0.942   1.746   1.072
  136fsi     O1 1719   1.093   1.685   0.877
  136fsi     O2 1720   0.961   1.511   0.984
  136fsi     S2 1721   0.985   1.891   1.116
  136fsi     O3 1722   1.062   1.958   1.016
  136fsi     O4 1723   1.030   1.898   1.253
  136fsi     F2 1724   0.850   1.970   1.116
  137fsi     F1 1725   3.018   2.758   2.407
  137fsi     S1 1726   2.998   2.694   2.548
  137fsi      N 1727   2.862   2.618   2.530
  137fsi     O1 1728   3.113   2.609   2.562
  137fsi     O2 1729   2.989   2.810   2.634
  137fsi     S2 1730   2.839   2.470   2.480
  137fsi     O3 1731   2.952   2.413   2.411
  137fsi     O4 1732   2.709   2.457   2.422
  137fsi     F2 1733   2.828   2.386   2.612
  138fsi     F1 1734   0.807   2.804   2.757
  138fsi     S1 1735   0.770   2.747   2.615
  138fsi      N 1736   0.650   2.838   2.568
  138fsi     O1 1737   0.886   2.766   2.533
  138fsi     O2 1738   0.734   2.611   2.640
  138fsi     S2 1739   0.651   2.990   2.529
  138fsi     O3 1740   0.758   3.065   2.590
  138fsi     O4 1741   0.521   3.050   2.530
  138fsi     F2 1742   0.689   2.986   2.376
  139fsi     F1 1743   0.479   2.581   2.146
  139fsi     S1 1744   0.490   2.638   2.291
  139fsi      N 1745   0.424   2.779   2.282
  139fsi     O1 1746   0.413   2.547   2.371
  139fsi     O2 1747   0.632   2.647   2.311
  139fsi     S2 1748   0.270   2.810   2.285
  139fsi     O3 1749   0.189   2.711   2.220
  139fsi     O4 1750   0.244   2.948   2.254
  139fsi     F2 1751   0.233   2.798   2.437
  140fsi     F1 1752   1.633   2.667   2.846
  140fsi     S1 1753   1.522   2.697   2.953
  140fsi      N 1754   1.428   2.574   2.938
  140fsi     O1 1755   1.592   2.704   3.077
  140fsi     O2 1756   1.463   2.820   2.905
  140fsi     S2 1757   1.467   2.424   2.965
  140fsi     O3 1758   1.589   2.409   3.038
  140fsi     O4 1759   1.445   2.341   2.850
  140fsi     F2 1760   1.357   2.379   3.067
  141fsi     F1 1761   2.016   0.544   0.156
  141fsi     S1 1762   2.143   0.635   0.177
  141fsi      N 1763   2.095   0.775   0.127
  141fsi     O1 1764   2.165   0.628   0.319
  141fsi     O2 1765   2.242   0.574   0.093
  141fsi     S2 1766   2.012   0.886   0.202
  141fsi     O3 1767   1.962   0.843   0.330
  141fsi     O4 1768   1.921   0.956   0.116
  141fsi     F2 1769   2.122   0.991   0.239
  142fsi     F1 1770   2.147   0.523   2.369
  142fsi     S1 1771   2.067   0.432   2.467
  142fsi      N 1772   2.144   0.295   2.460
  142fsi     O1 1773   2.082   0.500   2.593
  142fsi     O2 1774   1.936   0.425   2.409
  142fsi     S2 1775   2.224   0.212   2.567
  142fsi     O3 1776   2.217   0.266   2.700
  142fsi     O4 1777   2.353   0.168   2.524
  142fsi     F2 1778   2.139   0.080   2.579
  143fsi     F1 1779   0.702   0.544   1.465
  143fsi     S1 1780   0.565   0.557   1.390
  143fsi      N 1781   0.508   0.692   1.447
  143fsi     O1 1782   0.600   0.554   1.251
  143fsi     O2 1783   0.486   0.451   1.443
  143fsi     S2 1784   0.460   0.816   1.366
  143fsi     O3 1785   0.526   0.835   1.241
  143fsi     O4 1786   0.440   0.930   1.451
  143fsi     F2 1787   0.314   0.777   1.327
  144fsi     F1 1788   1.146   1.999   0.419
  144fsi     S1 1789   1.134   1.864   0.344
  144fsi      N 1790   0.986   1.857   0.291
  144fsi     O1 1791   1.228   1.872   0.237
  144fsi     O2 1792   1.152   1.766   0.448
  144fsi     S2 1793   0.936   1.866   0.144
  144fsi     O3 1794   0.959   1.990   0.076
  144fsi     O4 1795   0.804   1.812   0.128
  144fsi     F2 1796   1.024   1.762   0.065
  145fsi     F1 1797   1.284   0.937   2.579
  145fsi     S1 1798   1.275   1.045   2.690
  145fsi      N 1799   1.422   1.096   2.692
  145fsi     O1 1800   1.175   1.138   2.644
  145fsi     O2 1801   1.231   0.971   2.805
  145fsi     S2 1802   1.488   1.174   2.573
  145fsi     O3 1803   1.418   1.296   2.549
  145fsi     O4 1804   1.524   1.094   2.460
  145fsi     F2 1805   1.624   1.221   2.633
  146fsi     F1 1806   2.149   1.801   3.171
  146fsi     S1 1807   2.152   1.707   3.044
  146fsi      N 1808   2.008   1.726   2.985
  146fsi     O1 1809   2.259   1.761   2.965
  146fsi     O2 1810   2.173   1.575   3.096
  146fsi     S2 1811   1.967   1.791   2.849
  146fsi     O3 1812   2.031   1.916   2.821
  146fsi     O4 1813   1.826   1.782   2.823
  146fsi     F2 1814   2.030   1.689   2.748
  147fsi     F1 1815   2.762   2.983   1.267
  147fsi     S1 1816   2.786   3.053   1.406
  147fsi      N 1817   2.639   3.086   1.451
  147fsi     O1 1818   2.851   2.953   1.486
  147fsi     O2 1819   2.861   3.170   1.371
  147fsi     S2 1820   2.532   2.989   1.511
  147fsi     O3 1821   2.557   2.849   1.486
  147fsi     O4 1822   2.398   3.036   1.487
  147fsi     F2 1823   2.550   3.004   1.667
  148fsi     F1 1824   1.120   0.832   2.280
  148fsi     S1 1825   1.045   0.939   2.368
  148fsi      N 1826   0.907   0.957   2.298
  148fsi     O1 1827   1.036   0.876   2.497
  148fsi     O2 1828   1.126   1.057   2.358
  148fsi     S2 1829   0.768   0.926   2.361
  148fsi     O3 1830   0.761   0.805   2.438
  148fsi     O4 1831   0.658   0.950   2.272
  148fsi     F2 1832   0.753   1.043   2.465
  149fsi     F1 1833   1.193   2.521   2.263
  149fsi     S1 1834   1.243   2.498   2.411
  149fsi      N 1835   1.269   2.645   2.459
  149fsi     O1 1836   1.129   2.435   2.473
  149fsi     O2 1837   1.363   2.422   2.394
  149fsi     S2 1838   1.303   2.688   2.605
  149fsi     O3 1839   1.197   2.661   2.698
  149fsi     O4 1840   1.365   2.818   2.612
  149fsi     F2 1841   1.420   2.590   2.645
  150fsi     F1 1842   1.019   1.432   2.047
  150fsi     S1 1843   1.100   1.339   2.143
  150fsi      N 1844   1.056   1.197   2.095
  150fsi     O1 1845   1.235   1.371   2.112
  150fsi     O2 1846   1.046   1.373   2.272
  150fsi     S2 1847   1.140   1.090   2.017
  150fsi     O3 1848   1.181   1.131   1.886
  150fsi     O4 1849   1.077   0.961   2.020
  150fsi     F2 1850   1.273   1.070   2.099
  151fsi     F1 1851   2.798   1.373   2.634
  151fsi     S1 1852   2.666   1.371   2.547
  151fsi      N 1853   2.565   1.453   2.634
  151fsi     O1 1854   2.707   1.433   2.424
  151fsi     O2 1855   2.627   1.234   2.548
  151fsi     S2 1856   2.494   1.589   2.600
  151fsi     O3 1857   2.573   1.675   2.517
  151fsi     O4 1858   2.431   1.644   2.715
  151fsi     F2 1859   2.375   1.543   2.509
  152fsi     F1 1860   1.773   0.904   2.386
  152fsi     S1 1861   1.698   0.782   2.452
  152fsi      N 1862   1.601   0.732   2.340
  152fsi     O1 1863   1.803   0.689   2.484
  152fsi     O2 1864   1.630   0.840   2.564
  152fsi     S2 1865   1.645   0.669   2.204
  152fsi     O3 1866   1.773   0.713   2.159
  152fsi     O4 1867   1.538   0.659   2.108
  152fsi     F2 1868   1.671   0.519   2.243
  153fsi     F1 1869   1.408   1.488   1.937
  153fsi     S1 1870   1.532   1.529   1.852
  153fsi      N 1871   1.620   1.607   1.956
  153fsi     O1 1872   1.588   1.405   1.807
  153fsi     O2 1873   1.473   1.615   1.753
  153fsi     S2 1874   1.700   1.552   2.079
  153fsi     O3 1875   1.671   1.415   2.112
  153fsi     O4 1876   1.708   1.647   2.186
  153fsi     F2 1877   1.846   1.550   2.022
  154fsi     F1 1878   0.248   1.669   2.491
  154fsi     S1 1879   0.405   1.677   2.484
  154fsi      N 1880   0.431   1.832   2.491
  154fsi     O1 1881   0.448   1.604   2.599
  154fsi     O2 1882   0.436   1.622   2.355
  154fsi     S2 1883   0.457   1.923   2.617
  154fsi     O3 1884   0.420   1.865   2.743
  154fsi     O4 1885   0.419   2.059   2.594
  154fsi     F2 1886   0.615   1.929   2.623
  155fsi     F1 1887   0.685   2.505   1.154
  155fsi     S1 1888   0.530   2.499   1.132
  155fsi      N 1889   0.507   2.593   1.008
  155fsi     O1 1890   0.501   2.361   1.112
  155fsi     O2 1891   0.475   2.555   1.252
  155fsi     S2 1892   0.508   2.575   0.852
  155fsi     O3 1893   0.558   2.451   0.801
  155fsi     O4 1894   0.550   2.694   0.785
  155fsi     F2 1895   0.355   2.565   0.818
  156fsi     F1 1896   2.832   1.680   1.050
  156fsi     S1 1897   2.721   1.617   1.141
  156fsi      N 1898   2.807   1.563   1.261
  156fsi     O1 1899   2.636   1.728   1.174
  156fsi     O2 1900   2.665   1.511   1.063
  156fsi     S2 1901   2.833   1.639   1.395
  156fsi     O3 1902   2.851   1.780   1.380
  156fsi     O4 1903   2.927   1.574   1.482
  156fsi     F2 1904   2.696   1.618   1.470
  157fsi     F1 1905   1.051   3.092   0.645
  157fsi     S1 1906   0.990   2.970   0.567
  157fsi      N 1907   0.910   3.044   0.455
  157fsi     O1 1908   1.105   2.897   0.522
  157fsi     O2 1909   0.907   2.907   0.667
  157fsi     S2 1910   0.966   3.114   0.326
  157fsi     O3 1911   1.102   3.159   0.338
  157fsi     O4 1912   0.873   3.209   0.271
  157fsi     F2 1913   0.971   2.999   0.220
  158fsi     F1 1914   0.505   0.621   1.963
  158fsi     S1 1915   0.522   0.606   2.118
  158fsi      N 1916   0.672   0.565   2.132
  158fsi     O1 1917   0.486   0.736   2.168
  158fsi     O2 1918   0.432   0.499   2.149
  158fsi     S2 1919   0.802   0.643   2.090
  158fsi     O3 1920   0.778   0.778   2.047
  158fsi     O4 1921   0.889   0.562   2.008
  158fsi     F2 1922   0.882   0.658   2.223
  159fsi     F1 1923   2.662   0.198   1.213
  159fsi     S1 1924   2.675   0.327   1.126
  159fsi      N 1925   2.774   0.419   1.207
  159fsi     O1 1926   2.723   0.277   1.000
  159fsi     O2 1927   2.540   0.379   1.120
  159fsi     S2 1928   2.922   0.463   1.178
  159fsi     O3 1929   2.971   0.439   1.045
  159fsi     O4 1930   3.014   0.436   1.284
  159fsi     F2 1931   2.909   0.620   1.184
  160fsi     F1 1932   2.007   1.935   0.787
  160fsi     S1 1933   1.864   1.910   0.847
  160fsi      N 1934   1.789   1.833   0.734
  160fsi     O1 1935   1.886   1.828   0.962
  160fsi     O2 1936   1.812   2.043   0.867
  160fsi     S2 1937   1.811   1.682   0.700
  160fsi     O3 1938   1.948   1.642   0.705
  160fsi     O4 1939   1.733   1.631   0.591
  160fsi     F2 1940   1.748   1.611   0.824
  161fsi     F1 1941   1.269   0.414   1.237
  161fsi     S1 1942   1.180   0.461   1.116
  161fsi      N 1943   1.181   0.617   1.128
  161fsi     O1 1944   1.243   0.409   0.999
  161fsi     O2 1945   1.048   0.412   1.148
  161fsi     S2 1946   1.303   0.715   1.140
  161fsi     O3 1947   1.429   0.653   1.169
  161fsi     O4 1948   1.260   0.826   1.220
  161fsi     F2 1949   1.319   0.778   0.998
  162fsi     F1 1950   1.399   1.947   0.491
  162fsi     S1 1951   1.493   1.824   0.511
  162fsi      N 1952   1.456   1.727   0.394
  162fsi     O1 1953   1.623   1.882   0.496
  162fsi     O2 1954   1.454   1.774   0.640
  162fsi     S2 1955   1.512   1.730   0.247
  162fsi     O3 1956   1.534   1.861   0.191
  162fsi     O4 1957   1.440   1.638   0.163
  162fsi     F2 1958   1.655   1.666   0.258
  163fsi     F1 1959   0.689   2.162   0.221
  163fsi     S1 1960   0.546   2.217   0.187
  163fsi      N 1961   0.465   2.197   0.320
  163fsi     O1 1962   0.567   2.353   0.144
  163fsi     O2 1963   0.500   2.125   0.087
  163fsi     S2 1964   0.466   2.284   0.450
  163fsi     O3 1965   0.595   2.295   0.513
  163fsi     O4 1966   0.359   2.249   0.539
  163fsi     F2 1967   0.430   2.430   0.403
  164fsi     F1 1968   0.338   1.461   2.829
  164fsi     S1 1969   0.353   1.311   2.784
  164fsi      N 1970   0.225   1.292   2.695
  164fsi     O1 1971   0.479   1.308   2.716
  164fsi     O2 1972   0.344   1.241   2.909
  164fsi     S2 1973   0.205   1.303   2.539
  164fsi     O3 1974   0.320   1.337   2.460
  164fsi     O4 1975   0.081   1.368   2.506
  164fsi     F2 1976   0.176   1.154   2.498
  165fsi     F1 1977   1.761   1.650   1.716
  165fsi     S1 1978   1.879   1.742   1.683
  165fsi      N 1979   1.901   1.714   1.531
  165fsi     O1 1980   1.837   1.875   1.715
  165fsi     O2 1981   1.984   1.690   1.766
  165fsi     S2 1982   1.797   1.734   1.414
  165fsi     O3 1983   1.661   1.701   1.446
  165fsi     O4 1984   1.848   1.684   1.289
  165fsi     F2 1985   1.795   1.890   1.395
  166fsi     F1 1986   2.787   0.826   1.705
  166fsi     S1 1987   2.716   0.908   1.818
  166fsi      N 1988   2.652   0.793   1.904
  166fsi     O1 1989   2.827   0.977   1.879
  166fsi     O2 1990   2.622   0.988   1.745
  166fsi     S2 1991   2.626   0.786   2.059
  166fsi     O3 1992   2.724   0.854   2.139
  166fsi     O4 1993   2.581   0.659   2.106
  166fsi     F2 1994   2.500   0.872   2.075
  167fsi     F1 1995   0.884   0.646   2.935
  167fsi     S1 1996   1.011   0.602   2.854
  167fsi      N 1997   1.122   0.596   2.964
  167fsi     O1 1998   0.975   0.475   2.798
  167fsi     O2 1999   1.032   0.710   2.761
  167fsi     S2 2000   1.172   0.474   3.051
  167fsi     O3 2001   1.080   0.364   3.060
  167fsi     O4 2002   1.233   0.517   3.173
  167fsi     F2 2003   1.292   0.416   2.968
  168fsi     F1 2004   1.105   2.875   1.433
  168fsi     S1 2005   1.118   3.027   1.468
  168fsi      N 2006   1.255   3.041   1.544
  168fsi     O1 2007   1.118   3.089   1.338
  168fsi     O2 2008   1.004   3.049   1.552
  168fsi     S2 2009   1.356   2.933   1.599
  168fsi     O3 2010   1.337   2.799   1.550
  168fsi     O4 2011   1.376   2.948   1.741
  168fsi     F2 2012   1.493   2.977   1.536
  169fsi     F1 2013   2.478   1.193   1.150
  169fsi     S1 2014   2.497   1.121   1.012
  169fsi      N 2015   2.365   1.035   0.998
  169fsi     O1 2016   2.514   1.227   0.918
  169fsi     O2 2017   2.610   1.038   1.039
  169fsi     S2 2018   2.227   1.074   0.933
  169fsi     O3 2019   2.140   1.144   1.023
  169fsi     O4 2020   2.163   0.968   0.859
  169fsi     F2 2021   2.262   1.177   0.822
  170fsi     F1 2022   2.455   1.086   0.125
  170fsi     S1 2023   2.499   0.939   0.160
  170fsi      N 2024   2.655   0.941   0.137
  170fsi     O1 2025   2.459   0.921   0.296
  170fsi     O2 2026   2.433   0.859   0.060
  170fsi     S2 2027   2.765   1.032   0.202
  170fsi     O3 2028   2.719   1.125   0.302
  170fsi     O4 2029   2.858   1.082   0.104
  170fsi     F2 2030   2.851   0.929   0.284
  171fsi     F1 2031   1.978   0.654   0.994
  171fsi     S1 2032   2.090   0.700   1.094
  171fsi      N 2033   2.062   0.852   1.111
  171fsi     O1 2034   2.066   0.628   1.215
  171fsi     O2 2035   2.212   0.672   1.024
  171fsi     S2 2036   1.930   0.920   1.158
  171fsi     O3 2037   1.857   0.842   1.255
  171fsi     O4 2038   1.857   0.983   1.052
  171fsi     F2 2039   1.986   1.038   1.244
  172fsi     F1 2040   2.380   2.228   1.366
  172fsi     S1 2041   2.338   2.375   1.401
  172fsi      N 2042   2.462   2.460   1.356
  172fsi     O1 2043   2.219   2.398   1.324
  172fsi     O2 2044   2.328   2.377   1.545
  172fsi     S2 2045   2.489   2.521   1.215
  172fsi     O3 2046   2.504   2.425   1.110
  172fsi     O4 2047   2.586   2.626   1.225
  172fsi     F2 2048   2.358   2.600   1.182
  173fsi     F1 2049   0.648   0.791   2.851
  173fsi     S1 2050   0.652   0.924   2.766
  173fsi      N 2051   0.567   0.883   2.640
  173fsi     O1 2052   0.589   1.020   2.852
  173fsi     O2 2053   0.792   0.942   2.738
  173fsi     S2 2054   0.426   0.929   2.591
  173fsi     O3 2055   0.328   0.953   2.693
  173fsi     O4 2056   0.382   0.854   2.476
  173fsi     F2 2057   0.455   1.070   2.528
  174fsi     F1 2058   0.667   3.103   1.340
  174fsi     S1 2059   0.634   3.031   1.475
  174fsi      N 2060   0.478   3.016   1.470
  174fsi     O1 2061   0.708   2.908   1.471
  174fsi     O2 2062   0.672   3.127   1.576
  174fsi     S2 2063   0.392   2.902   1.405
  174fsi     O3 2064   0.452   2.847   1.289
  174fsi     O4 2065   0.253   2.936   1.400
  174fsi     F2 2066   0.396   2.782   1.506
  175fsi     F1 2067   2.455   1.354   0.397
  175fsi     S1 2068   2.310   1.299   0.425
  175fsi      N 2069   2.219   1.391   0.338
  175fsi     O1 2070   2.315   1.163   0.382
  175fsi     O2 2071   2.297   1.320   0.567
  175fsi     S2 2072   2.201   1.387   0.182
  175fsi     O3 2073   2.321   1.355   0.110
  175fsi     O4 2074   2.123   1.497   0.132
  175fsi     F2 2075   2.107   1.263   0.158
  176fsi     F1 2076   2.061   2.200   0.888
  176fsi     S1 2077   2.131   2.205   1.027
  176fsi      N 2078   2.012   2.234   1.125
  176fsi     O1 2079   2.194   2.076   1.038
  176fsi     O2 2080   2.222   2.315   1.011
  176fsi     S2 2081   1.927   2.133   1.212
  176fsi     O3 2082   1.944   1.996   1.179
  176fsi     O4 2083   1.791   2.175   1.236
  176fsi     F2 2084   1.994   2.143   1.353
  177fsi     F1 2085   2.273   2.098   1.578
  177fsi     S1 2086   2.193   2.001   1.669
  177fsi      N 2087   2.275   1.993   1.803
  177fsi     O1 2088   2.065   2.062   1.686
  177fsi     O2 2089   2.199   1.875   1.603
  177fsi     S2 2090   2.296   2.107   1.909
  177fsi     O3 2091   2.338   2.231   1.853
  177fsi     O4 2092   2.366   2.058   2.026
  177fsi     F2 2093   2.152   2.133   1.961
  178fsi     F1 2094   1.667   1.886   2.050
  178fsi     S1 2095   1.517   1.926   2.063
  178fsi      N 2096   1.497   2.037   1.956
  178fsi     O1 2097   1.440   1.810   2.031
  178fsi     O2 2098   1.503   1.983   2.194
  178fsi     S2 2099   1.472   2.019   1.802
  178fsi     O3 2100   1.560   1.933   1.732
  178fsi     O4 2101   1.440   2.149   1.749
  178fsi     F2 2102   1.332   1.947   1.798
  179fsi     F1 2103   0.480   0.912   1.934
  179fsi     S1 2104   0.497   0.913   1.779
  179fsi      N 2105   0.651   0.934   1.758
  179fsi     O1 2106   0.445   0.787   1.733
  179fsi     O2 2107   0.422   1.029   1.737
  179fsi     S2 2108   0.761   0.825   1.730
  179fsi     O3 2109   0.725   0.691   1.766
  179fsi     O4 2110   0.895   0.871   1.754
  179fsi     F2 2111   0.753   0.818   1.576
  180fsi     F1 2112   0.713   0.517   2.441
  180fsi     S1 2113   0.840   0.428   2.453
  180fsi      N 2114   0.804   0.330   2.571
  180fsi     O1 2115   0.849   0.363   2.325
  180fsi     O2 2116   0.944   0.522   2.488
  180fsi     S2 2117   0.753   0.182   2.564
  180fsi     O3 2118   0.672   0.148   2.450
  180fsi     O4 2119   0.707   0.133   2.691
  180fsi     F2 2120   0.885   0.099   2.542
  181fsi     F1 2121   1.290   2.425   0.560
  181fsi     S1 2122   1.139   2.382   0.572
  181fsi      N 2123   1.075   2.426   0.435
  181fsi     O1 2124   1.143   2.240   0.595
  181fsi     O2 2125   1.090   2.464   0.680
  181fsi     S2 2126   1.014   2.340   0.319
  181fsi     O3 2127   1.087   2.223   0.280
  181fsi     O4 2128   0.962   2.419   0.211
  181fsi     F2 2129   0.884   2.282   0.386
  182fsi     F1 2130   2.356   1.823   0.573
  182fsi     S1 2131   2.312   1.679   0.536
  182fsi      N 2132   2.158   1.698   0.522
  182fsi     O1 2133   2.383   1.652   0.414
  182fsi     O2 2134   2.352   1.604   0.651
  182fsi     S2 2135   2.075   1.767   0.409
  182fsi     O3 2136   2.154   1.832   0.307
  182fsi     O4 2137   1.965   1.843   0.461
  182fsi     F2 2138   2.005   1.648   0.337
  183fsi     F1 2139   2.663   2.668   0.152
  183fsi     S1 2140   2.740   2.795   0.204
  183fsi      N 2141   2.674   2.824   0.343
  183fsi     O1 2142   2.878   2.755   0.210
  183fsi     O2 2143   2.705   2.896   0.107
  183fsi     S2 2144   2.678   2.736   0.473
  183fsi     O3 2145   2.730   2.603   0.458
  183fsi     O4 2146   2.555   2.753   0.544
  183fsi     F2 2147   2.783   2.810   0.563
  184fsi     F1 2148   2.787   0.781   2.437
  184fsi     S1 2149   2.741   0.920   2.494
  184fsi      N 2150   2.876   1.001   2.500
  184fsi     O1 2151   2.640   0.965   2.403
  184fsi     O2 2152   2.699   0.887   2.627
  184fsi     S2 2153   2.962   1.070   2.387
  184fsi     O3 2154   2.949   1.018   2.255
  184fsi     O4 2155   3.095   1.099   2.433
  184fsi     F2 2156   2.900   1.214   2.379
  185fsi     F1 2157   2.108   1.601   2.137
  185fsi     S1 2158   2.230   1.697   2.117
  185fsi      N 2159   2.336   1.606   2.048
  185fsi     O1 2160   2.180   1.809   2.042
  185fsi     O2 2161   2.281   1.720   2.248
  185fsi     S2 2162   2.361   1.583   1.897
  185fsi     O3 2163   2.291   1.674   1.811
  185fsi     O4 2164   2.373   1.445   1.863
  185fsi     F2 2165   2.508   1.632   1.885
  186fsi     F1 2166   1.771   2.684   0.055
  186fsi     S1 2167   1.766   2.830   0.115
  186fsi      N 2168   1.731   2.808   0.266
  186fsi     O1 2169   1.897   2.885   0.097
  186fsi     O2 2170   1.659   2.893   0.044
  186fsi     S2 2171   1.801   2.710   0.366
  186fsi     O3 2172   1.912   2.638   0.311
  186fsi     O4 2173   1.709   2.643   0.451
  186fsi     F2 2174   1.868   2.814   0.462
  187fsi     F1 2175   0.576   1.711   1.478
  187fsi     S1 2176   0.714   1.787   1.483
  187fsi      N 2177   0.818   1.669   1.493
  187fsi     O1 2178   0.715   1.859   1.359
  187fsi     O2 2179   0.703   1.862   1.605
  187fsi     S2 2180   0.864   1.570   1.380
  187fsi     O3 2181   0.782   1.573   1.262
  187fsi     O4 2182   0.898   1.441   1.432
  187fsi     F2 2183   1.002   1.627   1.336
  188fsi     F1 2184   1.765   1.418   1.378
  188fsi     S1 2185   1.758   1.263   1.364
  188fsi      N 2186   1.881   1.215   1.448
  188fsi     O1 2187   1.627   1.231   1.414
  188fsi     O2 2188   1.780   1.239   1.224
  188fsi     S2 2189   1.890   1.133   1.580
  188fsi     O3 2190   1.767   1.117   1.653
  188fsi     O4 2191   2.011   1.159   1.651
  188fsi     F2 2192   1.916   0.989   1.521
  189fsi     F1 2193   1.907   2.383   2.618
  189fsi     S1 2194   2.034   2.312   2.679
  189fsi      N 2195   2.058   2.193   2.582
  189fsi     O1 2196   2.138   2.412   2.671
  189fsi     O2 2197   1.989   2.272   2.809
  189fsi     S2 2198   2.111   2.202   2.435
  189fsi     O3 2199   2.095   2.333   2.381
  189fsi     O4 2200   2.076   2.089   2.354
  189fsi     F2 2201   2.266   2.191   2.451
  190fsi     F1 2202   2.597   0.622   2.697
  190fsi     S1 2203   2.548   0.510   2.600
  190fsi      N 2204   2.662   0.508   2.492
  190fsi     O1 2205   2.539   0.395   2.685
  190fsi     O2 2206   2.423   0.564   2.553
  190fsi     S2 2207   2.790   0.418   2.484
  190fsi     O3 2208   2.850   0.394   2.612
  190fsi     O4 2209   2.880   0.461   2.381
  190fsi     F2 2210   2.738   0.277   2.436
  191fsi     F1 2211   2.689   2.920   2.129
  191fsi     S1 2212   2.629   2.783   2.178
  191fsi      N 2213   2.550   2.819   2.309
  191fsi     O1 2214   2.547   2.738   2.069
  191fsi     O2 2215   2.744   2.705   2.214
  191fsi     S2 2216   2.402   2.868   2.327
  191fsi     O3 2217   2.327   2.889   2.207
  191fsi     O4 2218   2.383   2.961   2.434
  191fsi     F2 2219   2.334   2.739   2.387
  192fsi     F1 2220   1.273   2.526   1.321
  192fsi     S1 2221   1.297   2.374   1.296
  192fsi      N 2222   1.172   2.304   1.358
  192fsi     O1 2223   1.310   2.365   1.154
  192fsi     O2 2224   1.415   2.352   1.373
  192fsi     S2 2225   1.028   2.298   1.296
  192fsi     O3 2226   0.978   2.428   1.261
  192fsi     O4 2227   0.942   2.211   1.372
  192fsi     F2 2228   1.048   2.222   1.160
  193fsi     F1 2229   2.655   1.196   2.254
  193fsi     S1 2230   2.524   1.230   2.178
  193fsi      N 2231   2.416   1.169   2.275
  193fsi     O1 2232   2.526   1.374   2.174
  193fsi     O2 2233   2.541   1.157   2.056
  193fsi     S2 2234   2.295   1.243   2.342
  193fsi     O3 2235   2.258   1.367   2.282
  193fsi     O4 2236   2.310   1.244   2.485
  193fsi     F2 2237   2.175   1.148   2.312
  194fsi     F1 2238   0.721   2.214   1.654
  194fsi     S1 2239   0.652   2.338   1.722
  194fsi      N 2240   0.728   2.462   1.664
  194fsi     O1 2241   0.514   2.328   1.682
  194fsi     O2 2242   0.680   2.319   1.862
  194fsi     S2 2243   0.730   2.507   1.514
  194fsi     O3 2244   0.703   2.402   1.421
  194fsi     O4 2245   0.838   2.599   1.487
  194fsi     F2 2246   0.605   2.600   1.505
  195fsi     F1 2247   1.761   0.986   0.527
  195fsi     S1 2248   1.644   1.088   0.508
  195fsi      N 2249   1.717   1.221   0.475
  195fsi     O1 2250   1.567   1.036   0.400
  195fsi     O2 2251   1.578   1.089   0.637
  195fsi     S2 2252   1.742   1.292   0.336
  195fsi     O3 2253   1.713   1.212   0.220
  195fsi     O4 2254   1.862   1.370   0.335
  195fsi     F2 2255   1.628   1.400   0.333
  196fsi     F1 2256   2.451   0.114   1.671
  196fsi     S1 2257   2.519   0.228   1.756
  196fsi      N 2258   2.656   0.251   1.683
  196fsi     O1 2259   2.429   0.339   1.745
  196fsi     O2 2260   2.538   0.166   1.884
  196fsi     S2 2261   2.682   0.322   1.546
  196fsi     O3 2262   2.568   0.329   1.459
  196fsi     O4 2263   2.808   0.284   1.490
  196fsi     F2 2264   2.705   0.472   1.589
  197fsi     F1 2265   2.669   0.441   0.536
  197fsi     S1 2266   2.700   0.387   0.680
  197fsi      N 2267   2.633   0.244   0.679
  197fsi     O1 2268   2.843   0.390   0.689
  197fsi     O2 2269   2.626   0.474   0.767
  197fsi     S2 2270   2.696   0.102   0.654
  197fsi     O3 2271   2.836   0.099   0.621
  197fsi     O4 2272   2.610   0.016   0.576
  197fsi     F2 2273   2.691   0.038   0.797
  198fsi     F1 2274   1.967   1.776   2.299
  198fsi     S1 2275   1.985   1.734   2.450
  198fsi      N 2276   1.845   1.675   2.487
  198fsi     O1 2277   2.093   1.640   2.452
  198fsi     O2 2278   2.008   1.860   2.515
  198fsi     S2 2279   1.800   1.525   2.495
  198fsi     O3 2280   1.889   1.428   2.438
  198fsi     O4 2281   1.659   1.510   2.471
  198fsi     F2 2282   1.812   1.496   2.649
  199fsi     F1 2283   0.632   0.928   1.005
  199fsi     S1 2284   0.521   1.028   0.958
  199fsi      N 2285   0.607   1.145   0.900
  199fsi     O1 2286   0.452   0.956   0.854
  199fsi     O2 2287   0.447   1.062   1.076
  199fsi     S2 2288   0.688   1.142   0.768
  199fsi     O3 2289   0.718   1.011   0.718
  199fsi     O4 2290   0.794   1.238   0.762
  199fsi     F2 2291   0.586   1.200   0.664
  200fsi     F1 2292   2.485   2.449   2.116
  200fsi     S1 2293   2.351   2.445   2.198
  200fsi      N 2294   2.271   2.571   2.151
  200fsi     O1 2295   2.291   2.320   2.163
  200fsi     O2 2296   2.394   2.460   2.335
  200fsi     S2 2297   2.219   2.603   2.007
  200fsi     O3 2298   2.226   2.499   1.910
  200fsi     O4 2299   2.258   2.736   1.968
  200fsi     F2 2300   2.065   2.620   2.030
   3.24840   3.24840   3.24840
