simbox
 2300
    1Li      Li    1   0.721   1.599   0.783
    2Li      Li    2   1.075   1.115   1.108
    3Li      Li    3   1.008   1.656   2.326
    4Li      Li    4   0.253   1.987   1.572
    5Li      Li    5   2.080   2.158   0.958
    6Li      Li    6   2.540   2.284   2.365
    7Li      Li    7   1.259   2.652   3.056
    8Li      Li    8   2.113   1.366   1.319
    9Li      Li    9   1.943   0.872   0.452
   10Li      Li   10   0.761   1.765   1.447
   11Li      Li   11   2.148   0.681   1.775
   12Li      Li   12   0.066   1.124   0.870
   13Li      Li   13   1.204   2.963   1.657
   14Li      Li   14   1.713   2.948   0.696
   15Li      Li   15   1.816   0.046   2.111
   16Li      Li   16   1.785   0.424   0.295
   17Li      Li   17   0.594   2.288   1.904
   18Li      Li   18   1.917   0.730   2.773
   19Li      Li   19   2.331   0.308   2.209
   20Li      Li   20   0.665   2.019   0.572
   21Li      Li   21   0.095   1.818   0.926
   22Li      Li   22   1.827   2.240   1.784
   23Li      Li   23   0.760   2.836   1.142
   24Li      Li   24   1.294   1.871   1.574
   25Li      Li   25   1.401   1.183   1.461
   26Li      Li   26   2.336   2.635   0.904
   27Li      Li   27   0.635   2.725   1.633
   28Li      Li   28   0.694   2.587   0.467
   29Li      Li   29   1.460   1.846   2.646
   30Li      Li   30   1.511   1.511   0.274
   31Li      Li   31   0.609   0.776   3.027
   32Li      Li   32   2.180   2.509   3.000
   33Li      Li   33   0.832   3.044   2.798
   34Li      Li   34   1.172   0.215   2.162
   35Li      Li   35   1.787   1.110   1.660
   36Li      Li   36   1.355   1.332   1.893
   37Li      Li   37   2.461   2.093   1.136
   38Li      Li   38   2.365   0.631   1.291
   39Li      Li   39   1.124   2.579   2.053
   40Li      Li   40   0.047   2.583   1.804
   41Li      Li   41   1.731   1.647   0.961
   42Li      Li   42   2.172   2.714   2.141
   43Li      Li   43   3.066   2.690   0.838
   44Li      Li   44   1.629   2.346   2.709
   45Li      Li   45   2.371   1.661   2.138
   46Li      Li   46   2.739   1.883   1.102
   47Li      Li   47   1.077   2.048   1.862
   48Li      Li   48   0.317   2.088   3.075
   49Li      Li   49   0.683   1.817   2.020
   50Li      Li   50   2.346   0.814   2.372
   51c3c      N   51   0.206   1.570   2.222
   51c3c     C1   52   0.121   1.681   2.265
   51c3c     C2   53   0.342   1.619   2.248
   51c3c     C3   54   0.204   1.809   2.275
   51c3c     C4   55   0.342   1.769   2.227
   51c3c     C5   56   0.184   1.452   2.305
   51c3c     C6   57   0.183   1.527   2.082
   51c3c     H1   58   0.092   1.662   2.369
   51c3c     H2   59   0.029   1.692   2.208
   51c3c     H3   60   0.370   1.602   2.351
   51c3c     H4   61   0.415   1.568   2.185
   51c3c     H5   62   0.210   1.840   2.380
   51c3c     H6   63   0.162   1.893   2.219
   51c3c     H7   64   0.422   1.816   2.285
   51c3c     H8   65   0.356   1.798   2.123
   51c3c     H9   66   0.084   1.412   2.292
   51c3c    H10   67   0.254   1.373   2.279
   51c3c    H11   68   0.198   1.471   2.412
   51c3c    H12   69   0.240   1.437   2.063
   51c3c    H13   70   0.080   1.491   2.073
   51c3c     C7   71   0.212   1.627   1.969
   51c3c    H14   72   0.318   1.653   1.968
   51c3c    H15   73   0.156   1.720   1.984
   51c3c     C8   74   0.179   1.569   1.831
   51c3c    H16   75   0.072   1.551   1.820
   51c3c    H17   76   0.231   1.475   1.816
   51c3c    H18   77   0.211   1.637   1.752
   52c3c      N   78   0.826   0.904   1.368
   52c3c     C1   79   0.958   0.890   1.305
   52c3c     C2   80   0.724   0.856   1.273
   52c3c     C3   81   0.940   0.830   1.167
   52c3c     C4   82   0.792   0.831   1.139
   52c3c     C5   83   0.826   0.820   1.487
   52c3c     C6   84   0.804   1.040   1.420
   52c3c     H1   85   1.022   0.819   1.357
   52c3c     H2   86   1.015   0.983   1.304
   52c3c     H3   87   0.678   0.764   1.308
   52c3c     H4   88   0.643   0.928   1.260
   52c3c     H5   89   0.978   0.727   1.167
   52c3c     H6   90   0.999   0.886   1.094
   52c3c     H7   91   0.762   0.736   1.095
   52c3c     H8   92   0.769   0.911   1.068
   52c3c     H9   93   0.899   0.857   1.559
   52c3c    H10   94   0.730   0.822   1.540
   52c3c    H11   95   0.851   0.716   1.467
   52c3c    H12   96   0.721   1.040   1.490
   52c3c    H13   97   0.892   1.065   1.478
   52c3c     C7   98   0.781   1.154   1.321
   52c3c    H14   99   0.684   1.140   1.273
   52c3c    H15  100   0.857   1.152   1.243
   52c3c     C8  101   0.780   1.292   1.388
   52c3c    H16  102   0.872   1.311   1.442
   52c3c    H17  103   0.698   1.302   1.459
   52c3c    H18  104   0.770   1.371   1.313
   53c3c      N  105   2.475   1.232   0.404
   53c3c     C1  106   2.456   1.089   0.372
   53c3c     C2  107   2.522   1.293   0.279
   53c3c     C3  108   2.557   1.053   0.262
   53c3c     C4  109   2.606   1.187   0.208
   53c3c     C5  110   2.345   1.288   0.440
   53c3c     C6  111   2.565   1.255   0.520
   53c3c     H1  112   2.357   1.072   0.330
   53c3c     H2  113   2.463   1.025   0.460
   53c3c     H3  114   2.438   1.316   0.213
   53c3c     H4  115   2.575   1.387   0.295
   53c3c     H5  116   2.509   0.995   0.184
   53c3c     H6  117   2.640   0.994   0.301
   53c3c     H7  118   2.594   1.193   0.100
   53c3c     H8  119   2.713   1.199   0.228
   53c3c     H9  120   2.301   1.234   0.524
   53c3c    H10  121   2.352   1.394   0.468
   53c3c    H11  122   2.272   1.281   0.359
   53c3c    H12  123   2.567   1.362   0.543
   53c3c    H13  124   2.523   1.207   0.608
   53c3c     C7  125   2.712   1.211   0.506
   53c3c    H14  126   2.763   1.271   0.431
   53c3c    H15  127   2.717   1.107   0.474
   53c3c     C8  128   2.790   1.222   0.637
   53c3c    H16  129   2.739   1.169   0.718
   53c3c    H17  130   2.804   1.326   0.667
   53c3c    H18  131   2.889   1.178   0.626
   54c3c      N  132   0.862   0.333   1.344
   54c3c     C1  133   0.834   0.370   1.483
   54c3c     C2  134   0.771   0.221   1.314
   54c3c     C3  135   0.706   0.300   1.527
   54c3c     C4  136   0.718   0.171   1.449
   54c3c     C5  137   0.834   0.449   1.259
   54c3c     C6  138   1.004   0.299   1.320
   54c3c     H1  139   0.832   0.478   1.498
   54c3c     H2  140   0.912   0.332   1.549
   54c3c     H3  141   0.683   0.254   1.257
   54c3c     H4  142   0.816   0.142   1.253
   54c3c     H5  143   0.618   0.356   1.497
   54c3c     H6  144   0.703   0.284   1.635
   54c3c     H7  145   0.623   0.118   1.442
   54c3c     H8  146   0.790   0.105   1.498
   54c3c     H9  147   0.908   0.528   1.276
   54c3c    H10  148   0.839   0.425   1.153
   54c3c    H11  149   0.738   0.495   1.281
   54c3c    H12  150   1.017   0.282   1.213
   54c3c    H13  151   1.069   0.383   1.344
   54c3c     C7  152   1.057   0.176   1.395
   54c3c    H14  153   0.990   0.092   1.375
   54c3c    H15  154   1.058   0.191   1.503
   54c3c     C8  155   1.196   0.132   1.351
   54c3c    H16  156   1.273   0.203   1.383
   54c3c    H17  157   1.203   0.119   1.243
   54c3c    H18  158   1.218   0.034   1.393
   55c3c      N  159   2.706   0.903   2.058
   55c3c     C1  160   2.629   0.889   1.933
   55c3c     C2  161   2.614   0.959   2.158
   55c3c     C3  162   2.517   0.991   1.939
   55c3c     C4  163   2.484   0.998   2.087
   55c3c     C5  164   2.753   0.773   2.103
   55c3c     C6  165   2.827   0.987   2.038
   55c3c     H1  166   2.584   0.790   1.925
   55c3c     H2  167   2.690   0.902   1.844
   55c3c     H3  168   2.592   0.890   2.240
   55c3c     H4  169   2.659   1.046   2.208
   55c3c     H5  170   2.432   0.961   1.877
   55c3c     H6  171   2.548   1.090   1.906
   55c3c     H7  172   2.405   0.926   2.109
   55c3c     H8  173   2.445   1.095   2.116
   55c3c     H9  174   2.821   0.726   2.032
   55c3c    H10  175   2.809   0.783   2.197
   55c3c    H11  176   2.672   0.703   2.122
   55c3c    H12  177   2.876   1.003   2.133
   55c3c    H13  178   2.899   0.934   1.976
   55c3c     C7  179   2.801   1.123   1.971
   55c3c    H14  180   2.723   1.175   2.027
   55c3c    H15  181   2.765   1.111   1.868
   55c3c     C8  182   2.922   1.214   1.965
   55c3c    H16  183   3.005   1.162   1.917
   55c3c    H17  184   2.951   1.244   2.066
   55c3c    H18  185   2.901   1.304   1.907
   56c3c      N  186   1.985   1.741   0.268
   56c3c     C1  187   2.097   1.751   0.174
   56c3c     C2  188   2.027   1.649   0.376
   56c3c     C3  189   2.178   1.622   0.187
   56c3c     C4  190   2.156   1.580   0.331
   56c3c     C5  191   1.959   1.874   0.323
   56c3c     C6  192   1.861   1.693   0.205
   56c3c     H1  193   2.164   1.833   0.200
   56c3c     H2  194   2.064   1.769   0.072
   56c3c     H3  195   2.040   1.698   0.472
   56c3c     H4  196   1.951   1.574   0.397
   56c3c     H5  197   2.284   1.638   0.165
   56c3c     H6  198   2.142   1.545   0.119
   56c3c     H7  199   2.240   1.613   0.394
   56c3c     H8  200   2.148   1.472   0.339
   56c3c     H9  201   1.931   1.945   0.244
   56c3c    H10  202   1.878   1.874   0.396
   56c3c    H11  203   2.047   1.914   0.373
   56c3c    H12  204   1.784   1.686   0.282
   56c3c    H13  205   1.824   1.767   0.134
   56c3c     C7  206   1.871   1.557   0.133
   56c3c    H14  207   1.923   1.484   0.195
   56c3c    H15  208   1.932   1.566   0.044
   56c3c     C8  209   1.734   1.500   0.095
   56c3c    H16  210   1.663   1.577   0.066
   56c3c    H17  211   1.692   1.442   0.178
   56c3c    H18  212   1.743   1.429   0.013
   57c3c      N  213   1.317   0.708   2.788
   57c3c     C1  214   1.279   0.571   2.827
   57c3c     C2  215   1.192   0.782   2.760
   57c3c     C3  216   1.128   0.561   2.810
   57c3c     C4  217   1.084   0.704   2.834
   57c3c     C5  218   1.383   0.771   2.903
   57c3c     C6  219   1.412   0.711   2.676
   57c3c     H1  220   1.302   0.548   2.931
   57c3c     H2  221   1.330   0.493   2.769
   57c3c     H3  222   1.197   0.888   2.788
   57c3c     H4  223   1.166   0.781   2.655
   57c3c     H5  224   1.081   0.490   2.877
   57c3c     H6  225   1.106   0.530   2.708
   57c3c     H7  226   1.084   0.727   2.940
   57c3c     H8  227   0.985   0.725   2.794
   57c3c     H9  228   1.469   0.713   2.937
   57c3c    H10  229   1.418   0.872   2.880
   57c3c    H11  230   1.315   0.779   2.988
   57c3c    H12  231   1.449   0.812   2.658
   57c3c    H13  232   1.504   0.660   2.703
   57c3c     C7  233   1.361   0.650   2.544
   57c3c    H14  234   1.289   0.714   2.494
   57c3c    H15  235   1.308   0.557   2.564
   57c3c     C8  236   1.474   0.618   2.446
   57c3c    H16  237   1.569   0.596   2.494
   57c3c    H17  238   1.489   0.700   2.375
   57c3c    H18  239   1.447   0.529   2.389
   58c3c      N  240   0.293   1.107   2.772
   58c3c     C1  241   0.379   0.988   2.774
   58c3c     C2  242   0.169   1.071   2.841
   58c3c     C3  243   0.309   0.886   2.864
   58c3c     C4  244   0.164   0.918   2.841
   58c3c     C5  245   0.360   1.209   2.852
   58c3c     C6  246   0.268   1.159   2.635
   58c3c     H1  247   0.483   1.006   2.802
   58c3c     H2  248   0.385   0.950   2.672
   58c3c     H3  249   0.169   1.102   2.945
   58c3c     H4  250   0.082   1.120   2.797
   58c3c     H5  251   0.335   0.902   2.969
   58c3c     H6  252   0.330   0.782   2.840
   58c3c     H7  253   0.098   0.877   2.917
   58c3c     H8  254   0.134   0.878   2.744
   58c3c     H9  255   0.445   1.252   2.799
   58c3c    H10  256   0.288   1.289   2.874
   58c3c    H11  257   0.395   1.172   2.948
   58c3c    H12  258   0.210   1.251   2.642
   58c3c    H13  259   0.362   1.188   2.588
   58c3c     C7  260   0.194   1.063   2.538
   58c3c    H14  261   0.098   1.031   2.580
   58c3c    H15  262   0.250   0.972   2.518
   58c3c     C8  263   0.162   1.125   2.404
   58c3c    H16  264   0.253   1.155   2.351
   58c3c    H17  265   0.096   1.212   2.415
   58c3c    H18  266   0.110   1.053   2.340
   59c3c      N  267   1.927   0.249   1.336
   59c3c     C1  268   1.844   0.371   1.336
   59c3c     C2  269   2.051   0.287   1.404
   59c3c     C3  270   1.941   0.488   1.323
   59c3c     C4  271   2.077   0.433   1.367
   59c3c     C5  272   1.861   0.146   1.416
   59c3c     C6  273   1.948   0.188   1.203
   59c3c     H1  274   1.793   0.383   1.432
   59c3c     H2  275   1.765   0.371   1.261
   59c3c     H3  276   2.040   0.285   1.512
   59c3c     H4  277   2.135   0.221   1.382
   59c3c     H5  278   1.907   0.572   1.385
   59c3c     H6  279   1.947   0.525   1.220
   59c3c     H7  280   2.117   0.483   1.456
   59c3c     H8  281   2.152   0.443   1.289
   59c3c     H9  282   1.760   0.127   1.379
   59c3c    H10  283   1.919   0.054   1.419
   59c3c    H11  284   1.848   0.178   1.520
   59c3c    H12  285   2.019   0.105   1.214
   59c3c    H13  286   1.856   0.140   1.170
   59c3c     C7  287   2.000   0.277   1.088
   59c3c    H14  288   2.091   0.329   1.117
   59c3c    H15  289   1.926   0.354   1.063
   59c3c     C8  290   2.032   0.194   0.964
   59c3c    H16  291   1.949   0.130   0.933
   59c3c    H17  292   2.117   0.127   0.982
   59c3c    H18  293   2.059   0.258   0.880
   60c3c      N  294   0.833   2.252   2.842
   60c3c     C1  295   0.967   2.191   2.853
   60c3c     C2  296   0.741   2.144   2.879
   60c3c     C3  297   0.952   2.044   2.813
   60c3c     C4  298   0.803   2.015   2.830
   60c3c     C5  299   0.819   2.360   2.939
   60c3c     C6  300   0.806   2.311   2.708
   60c3c     H1  301   1.002   2.192   2.956
   60c3c     H2  302   1.041   2.243   2.793
   60c3c     H3  303   0.733   2.134   2.988
   60c3c     H4  304   0.640   2.158   2.841
   60c3c     H5  305   1.012   1.979   2.875
   60c3c     H6  306   0.984   2.028   2.710
   60c3c     H7  307   0.786   1.933   2.900
   60c3c     H8  308   0.755   1.988   2.735
   60c3c     H9  309   0.890   2.440   2.921
   60c3c    H10  310   0.719   2.403   2.936
   60c3c    H11  311   0.836   2.326   3.041
   60c3c    H12  312   0.701   2.339   2.704
   60c3c    H13  313   0.862   2.404   2.699
   60c3c     C7  314   0.840   2.230   2.581
   60c3c    H14  315   0.791   2.133   2.581
   60c3c    H15  316   0.946   2.208   2.572
   60c3c     C8  317   0.795   2.306   2.455
   60c3c    H16  318   0.865   2.384   2.425
   60c3c    H17  319   0.697   2.353   2.468
   60c3c    H18  320   0.785   2.237   2.371
   61c3c      N  321   1.939   1.752   1.594
   61c3c     C1  322   2.045   1.852   1.574
   61c3c     C2  323   1.845   1.770   1.483
   61c3c     C3  324   1.992   1.956   1.476
   61c3c     C4  325   1.849   1.917   1.449
   61c3c     C5  326   1.993   1.617   1.582
   61c3c     C6  327   1.878   1.762   1.727
   61c3c     H1  328   2.136   1.808   1.534
   61c3c     H2  329   2.075   1.900   1.667
   61c3c     H3  330   1.882   1.718   1.394
   61c3c     H4  331   1.746   1.729   1.503
   61c3c     H5  332   2.047   1.949   1.382
   61c3c     H6  333   1.998   2.056   1.517
   61c3c     H7  334   1.820   1.939   1.346
   61c3c     H8  335   1.783   1.974   1.515
   61c3c     H9  336   2.060   1.590   1.663
   61c3c    H10  337   1.913   1.543   1.580
   61c3c    H11  338   2.049   1.604   1.489
   61c3c    H12  339   1.797   1.689   1.734
   61c3c    H13  340   1.952   1.734   1.802
   61c3c     C7  341   1.817   1.895   1.770
   61c3c    H14  342   1.726   1.907   1.711
   61c3c    H15  343   1.883   1.979   1.750
   61c3c     C8  344   1.780   1.897   1.919
   61c3c    H16  345   1.866   1.881   1.983
   61c3c    H17  346   1.706   1.820   1.943
   61c3c    H18  347   1.735   1.993   1.947
   62c3c      N  348   1.299   2.454   0.513
   62c3c     C1  349   1.161   2.439   0.468
   62c3c     C2  350   1.365   2.540   0.414
   62c3c     C3  351   1.147   2.494   0.327
   62c3c     C4  352   1.290   2.517   0.282
   62c3c     C5  353   1.299   2.520   0.644
   62c3c     C6  354   1.367   2.324   0.530
   62c3c     H1  355   1.087   2.486   0.534
   62c3c     H2  356   1.135   2.333   0.467
   62c3c     H3  357   1.352   2.644   0.442
   62c3c     H4  358   1.473   2.525   0.407
   62c3c     H5  359   1.093   2.589   0.330
   62c3c     H6  360   1.094   2.426   0.260
   62c3c     H7  361   1.296   2.602   0.215
   62c3c     H8  362   1.326   2.430   0.227
   62c3c     H9  363   1.243   2.464   0.719
   62c3c    H10  364   1.401   2.532   0.682
   62c3c    H11  365   1.254   2.619   0.642
   62c3c    H12  366   1.466   2.340   0.573
   62c3c    H13  367   1.311   2.267   0.605
   62c3c     C7  368   1.382   2.234   0.406
   62c3c    H14  369   1.439   2.283   0.327
   62c3c    H15  370   1.285   2.210   0.363
   62c3c     C8  371   1.453   2.103   0.439
   62c3c    H16  372   1.402   2.051   0.521
   62c3c    H17  373   1.557   2.118   0.468
   62c3c    H18  374   1.453   2.036   0.353
   63c3c      N  375   0.247   2.355   0.703
   63c3c     C1  376   0.159   2.242   0.672
   63c3c     C2  377   0.373   2.324   0.635
   63c3c     C3  378   0.247   2.117   0.667
   63c3c     C4  379   0.386   2.172   0.636
   63c3c     C5  380   0.188   2.477   0.646
   63c3c     C6  381   0.262   2.379   0.849
   63c3c     H1  382   0.113   2.253   0.573
   63c3c     H2  383   0.076   2.236   0.743
   63c3c     H3  384   0.368   2.356   0.531
   63c3c     H4  385   0.458   2.375   0.679
   63c3c     H5  386   0.214   2.048   0.589
   63c3c     H6  387   0.245   2.062   0.761
   63c3c     H7  388   0.420   2.134   0.540
   63c3c     H8  389   0.460   2.142   0.711
   63c3c     H9  390   0.091   2.499   0.690
   63c3c    H10  391   0.253   2.563   0.660
   63c3c    H11  392   0.171   2.468   0.538
   63c3c    H12  393   0.322   2.469   0.863
   63c3c    H13  394   0.164   2.403   0.892
   63c3c     C7  395   0.323   2.269   0.937
   63c3c    H14  396   0.423   2.240   0.903
   63c3c    H15  397   0.261   2.180   0.938
   63c3c     C8  398   0.337   2.316   1.082
   63c3c    H16  399   0.239   2.334   1.126
   63c3c    H17  400   0.394   2.409   1.090
   63c3c    H18  401   0.388   2.241   1.142
   64c3c      N  402   1.307   1.614   0.932
   64c3c     C1  403   1.358   1.690   1.046
   64c3c     C2  404   1.345   1.697   0.817
   64c3c     C3  405   1.346   1.838   1.010
   64c3c     C4  406   1.336   1.843   0.860
   64c3c     C5  407   1.379   1.487   0.924
   64c3c     C6  408   1.162   1.586   0.936
   64c3c     H1  409   1.464   1.671   1.062
   64c3c     H2  410   1.309   1.666   1.141
   64c3c     H3  411   1.449   1.677   0.792
   64c3c     H4  412   1.289   1.675   0.726
   64c3c     H5  413   1.435   1.891   1.046
   64c3c     H6  414   1.258   1.885   1.055
   64c3c     H7  415   1.416   1.903   0.816
   64c3c     H8  416   1.242   1.890   0.831
   64c3c     H9  417   1.368   1.430   1.016
   64c3c    H10  418   1.345   1.423   0.842
   64c3c    H11  419   1.487   1.499   0.912
   64c3c    H12  420   1.128   1.552   0.839
   64c3c    H13  421   1.145   1.495   0.995
   64c3c     C7  422   1.068   1.696   0.991
   64c3c    H14  423   1.073   1.785   0.927
   64c3c    H15  424   1.097   1.727   1.091
   64c3c     C8  425   0.922   1.653   1.000
   64c3c    H16  426   0.910   1.573   1.073
   64c3c    H17  427   0.887   1.616   0.903
   64c3c    H18  428   0.858   1.736   1.031
   65c3c      N  429   0.227   2.348   2.586
   65c3c     C1  430   0.362   2.406   2.599
   65c3c     C2  431   0.131   2.452   2.629
   65c3c     C3  432   0.343   2.554   2.629
   65c3c     C4  433   0.214   2.553   2.708
   65c3c     C5  434   0.199   2.317   2.445
   65c3c     C6  435   0.213   2.222   2.662
   65c3c     H1  436   0.425   2.389   2.512
   65c3c     H2  437   0.416   2.361   2.682
   65c3c     H3  438   0.091   2.506   2.543
   65c3c     H4  439   0.045   2.413   2.682
   65c3c     H5  440   0.330   2.611   2.537
   65c3c     H6  441   0.427   2.596   2.684
   65c3c     H7  442   0.168   2.652   2.712
   65c3c     H8  443   0.232   2.519   2.810
   65c3c     H9  444   0.263   2.237   2.407
   65c3c    H10  445   0.097   2.284   2.429
   65c3c    H11  446   0.215   2.404   2.381
   65c3c    H12  447   0.121   2.173   2.632
   65c3c    H13  448   0.290   2.151   2.631
   65c3c     C7  449   0.214   2.231   2.816
   65c3c    H14  450   0.139   2.302   2.850
   65c3c    H15  451   0.310   2.267   2.853
   65c3c     C8  452   0.180   2.096   2.880
   65c3c    H16  453   0.270   2.035   2.890
   65c3c    H17  454   0.110   2.039   2.819
   65c3c    H18  455   0.133   2.109   2.977
   66c3c      N  456   1.350   1.344   2.821
   66c3c     C1  457   1.245   1.321   2.922
   66c3c     C2  458   1.303   1.280   2.698
   66c3c     C3  459   1.173   1.193   2.883
   66c3c     C4  460   1.173   1.205   2.732
   66c3c     C5  461   1.362   1.487   2.798
   66c3c     C6  462   1.484   1.295   2.860
   66c3c     H1  463   1.170   1.400   2.919
   66c3c     H2  464   1.283   1.318   3.025
   66c3c     H3  465   1.285   1.349   2.615
   66c3c     H4  466   1.381   1.217   2.656
   66c3c     H5  467   1.072   1.187   2.924
   66c3c     H6  468   1.227   1.104   2.914
   66c3c     H7  469   1.087   1.264   2.700
   66c3c     H8  470   1.160   1.107   2.684
   66c3c     H9  471   1.385   1.541   2.890
   66c3c    H10  472   1.436   1.510   2.722
   66c3c    H11  473   1.268   1.530   2.762
   66c3c    H12  474   1.554   1.321   2.781
   66c3c    H13  475   1.519   1.351   2.948
   66c3c     C7  476   1.501   1.145   2.889
   66c3c    H14  477   1.468   1.085   2.804
   66c3c    H15  478   1.439   1.114   2.973
   66c3c     C8  479   1.647   1.107   2.919
   66c3c    H16  480   1.685   1.160   3.006
   66c3c    H17  481   1.712   1.132   2.836
   66c3c    H18  482   1.656   1.000   2.938
   67c3c      N  483   0.811   1.154   2.453
   67c3c     C1  484   0.672   1.203   2.452
   67c3c     C2  485   0.817   1.037   2.363
   67c3c     C3  486   0.585   1.088   2.401
   67c3c     C4  487   0.677   1.019   2.303
   67c3c     C5  488   0.900   1.261   2.406
   67c3c     C6  489   0.856   1.119   2.589
   67c3c     H1  490   0.661   1.282   2.377
   67c3c     H2  491   0.638   1.248   2.545
   67c3c     H3  492   0.893   1.045   2.286
   67c3c     H4  493   0.846   0.944   2.413
   67c3c     H5  494   0.494   1.122   2.353
   67c3c     H6  495   0.558   1.022   2.483
   67c3c     H7  496   0.671   1.067   2.206
   67c3c     H8  497   0.650   0.914   2.288
   67c3c     H9  498   0.901   1.347   2.473
   67c3c    H10  499   1.002   1.227   2.391
   67c3c    H11  500   0.867   1.302   2.310
   67c3c    H12  501   0.957   1.079   2.580
   67c3c    H13  502   0.863   1.210   2.649
   67c3c     C7  503   0.769   1.018   2.666
   67c3c    H14  504   0.759   0.926   2.609
   67c3c    H15  505   0.668   1.057   2.678
   67c3c     C8  506   0.826   0.987   2.804
   67c3c    H16  507   0.822   1.075   2.869
   67c3c    H17  508   0.930   0.956   2.796
   67c3c    H18  509   0.770   0.906   2.851
   68c3c      N  510   2.314   2.299   1.889
   68c3c     C1  511   2.395   2.194   1.826
   68c3c     C2  512   2.210   2.226   1.963
   68c3c     C3  513   2.297   2.084   1.785
   68c3c     C4  514   2.183   2.096   1.886
   68c3c     C5  515   2.395   2.375   1.983
   68c3c     C6  516   2.259   2.400   1.797
   68c3c     H1  517   2.463   2.150   1.898
   68c3c     H2  518   2.457   2.232   1.745
   68c3c     H3  519   2.244   2.197   2.062
   68c3c     H4  520   2.122   2.288   1.979
   68c3c     H5  521   2.345   1.986   1.787
   68c3c     H6  522   2.260   2.097   1.683
   68c3c     H7  523   2.183   2.012   1.956
   68c3c     H8  524   2.086   2.095   1.835
   68c3c     H9  525   2.472   2.433   1.932
   68c3c    H10  526   2.333   2.448   2.036
   68c3c    H11  527   2.443   2.312   2.057
   68c3c    H12  528   2.205   2.475   1.854
   68c3c    H13  529   2.340   2.454   1.748
   68c3c     C7  530   2.164   2.352   1.689
   68c3c    H14  531   2.085   2.288   1.728
   68c3c    H15  532   2.219   2.295   1.614
   68c3c     C8  533   2.096   2.468   1.620
   68c3c    H16  534   2.168   2.531   1.568
   68c3c    H17  535   2.041   2.532   1.689
   68c3c    H18  536   2.026   2.428   1.547
   69c3c      N  537   0.718   2.852   2.284
   69c3c     C1  538   0.841   2.918   2.327
   69c3c     C2  539   0.742   2.709   2.311
   69c3c     C3  540   0.955   2.820   2.306
   69c3c     C4  541   0.892   2.683   2.303
   69c3c     C5  542   0.606   2.899   2.366
   69c3c     C6  543   0.682   2.884   2.144
   69c3c     H1  544   0.838   2.938   2.435
   69c3c     H2  545   0.859   3.014   2.278
   69c3c     H3  546   0.709   2.681   2.411
   69c3c     H4  547   0.687   2.645   2.242
   69c3c     H5  548   1.027   2.825   2.388
   69c3c     H6  549   1.007   2.839   2.212
   69c3c     H7  550   0.926   2.621   2.386
   69c3c     H8  551   0.920   2.633   2.211
   69c3c     H9  552   0.589   3.006   2.353
   69c3c    H10  553   0.514   2.847   2.340
   69c3c    H11  554   0.622   2.882   2.472
   69c3c    H12  555   0.584   2.844   2.122
   69c3c    H13  556   0.671   2.992   2.133
   69c3c     C7  557   0.776   2.835   2.031
   69c3c    H14  558   0.790   2.727   2.037
   69c3c    H15  559   0.875   2.881   2.041
   69c3c     C8  560   0.721   2.868   1.892
   69c3c    H16  561   0.701   2.975   1.882
   69c3c    H17  562   0.628   2.815   1.874
   69c3c    H18  563   0.793   2.840   1.815
   70c3c      N  564   0.455   0.345   2.813
   70c3c     C1  565   0.522   0.292   2.692
   70c3c     C2  566   0.537   0.305   2.928
   70c3c     C3  567   0.651   0.224   2.740
   70c3c     C4  568   0.616   0.184   2.882
   70c3c     C5  569   0.452   0.490   2.810
   70c3c     C6  570   0.314   0.302   2.821
   70c3c     H1  571   0.545   0.368   2.618
   70c3c     H2  572   0.460   0.221   2.638
   70c3c     H3  573   0.613   0.381   2.949
   70c3c     H4  574   0.481   0.291   3.020
   70c3c     H5  575   0.733   0.296   2.743
   70c3c     H6  576   0.680   0.141   2.677
   70c3c     H7  577   0.704   0.170   2.944
   70c3c     H8  578   0.556   0.093   2.884
   70c3c     H9  579   0.382   0.523   2.733
   70c3c    H10  580   0.417   0.534   2.903
   70c3c    H11  581   0.550   0.532   2.787
   70c3c    H12  582   0.263   0.359   2.899
   70c3c    H13  583   0.263   0.329   2.729
   70c3c     C7  584   0.291   0.152   2.849
   70c3c    H14  585   0.337   0.123   2.943
   70c3c    H15  586   0.336   0.091   2.770
   70c3c     C8  587   0.143   0.120   2.858
   70c3c    H16  588   0.093   0.143   2.764
   70c3c    H17  589   0.094   0.178   2.936
   70c3c    H18  590   0.126   0.014   2.879
   71c3c      N  591   1.686   0.768   2.010
   71c3c     C1  592   1.796   0.861   1.980
   71c3c     C2  593   1.752   0.657   2.080
   71c3c     C3  594   1.922   0.778   1.955
   71c3c     C4  595   1.895   0.649   2.028
   71c3c     C5  596   1.591   0.838   2.098
   71c3c     C6  597   1.609   0.726   1.891
   71c3c     H1  598   1.818   0.923   2.067
   71c3c     H2  599   1.772   0.929   1.898
   71c3c     H3  600   1.754   0.674   2.187
   71c3c     H4  601   1.703   0.561   2.064
   71c3c     H5  602   2.011   0.827   1.994
   71c3c     H6  603   1.938   0.761   1.848
   71c3c     H7  604   1.964   0.638   2.112
   71c3c     H8  605   1.908   0.565   1.960
   71c3c     H9  606   1.549   0.926   2.049
   71c3c    H10  607   1.506   0.778   2.128
   71c3c    H11  608   1.639   0.874   2.189
   71c3c    H12  609   1.522   0.669   1.924
   71c3c    H13  610   1.568   0.814   1.842
   71c3c     C7  611   1.677   0.642   1.782
   71c3c    H14  612   1.704   0.546   1.825
   71c3c    H15  613   1.767   0.690   1.744
   71c3c     C8  614   1.583   0.619   1.663
   71c3c    H16  615   1.553   0.714   1.619
   71c3c    H17  616   1.493   0.566   1.693
   71c3c    H18  617   1.632   0.560   1.585
   72c3c      N  618   2.832   2.065   2.097
   72c3c     C1  619   2.905   2.092   2.222
   72c3c     C2  620   2.832   2.193   2.025
   72c3c     C3  621   2.882   2.240   2.257
   72c3c     C4  622   2.836   2.305   2.128
   72c3c     C5  623   2.907   1.967   2.019
   72c3c     C6  624   2.696   2.009   2.119
   72c3c     H1  625   3.012   2.080   2.208
   72c3c     H2  626   2.877   2.025   2.302
   72c3c     H3  627   2.922   2.205   1.964
   72c3c     H4  628   2.748   2.204   1.956
   72c3c     H5  629   2.974   2.286   2.292
   72c3c     H6  630   2.807   2.252   2.335
   72c3c     H7  631   2.905   2.384   2.099
   72c3c     H8  632   2.738   2.351   2.141
   72c3c     H9  633   2.919   1.873   2.074
   72c3c    H10  634   2.860   1.945   1.923
   72c3c    H11  635   3.008   2.002   1.995
   72c3c    H12  636   2.649   1.990   2.022
   72c3c    H13  637   2.704   1.912   2.167
   72c3c     C7  638   2.599   2.095   2.203
   72c3c    H14  639   2.593   2.195   2.160
   72c3c    H15  640   2.638   2.104   2.305
   72c3c     C8  641   2.456   2.041   2.211
   72c3c    H16  642   2.452   1.949   2.269
   72c3c    H17  643   2.415   2.021   2.112
   72c3c    H18  644   2.389   2.112   2.260
   73c3c      N  645   1.807   2.441   0.289
   73c3c     C1  646   1.710   2.333   0.306
   73c3c     C2  647   1.921   2.383   0.216
   73c3c     C3  648   1.789   2.202   0.314
   73c3c     C4  649   1.911   2.230   0.228
   73c3c     C5  650   1.746   2.549   0.210
   73c3c     C6  651   1.849   2.503   0.416
   73c3c     H1  652   1.645   2.325   0.219
   73c3c     H2  653   1.646   2.348   0.393
   73c3c     H3  654   1.919   2.410   0.111
   73c3c     H4  655   2.017   2.419   0.253
   73c3c     H5  656   1.732   2.117   0.277
   73c3c     H6  657   1.820   2.177   0.416
   73c3c     H7  658   1.898   2.184   0.130
   73c3c     H8  659   2.000   2.185   0.272
   73c3c     H9  660   1.660   2.593   0.261
   73c3c    H10  661   1.816   2.631   0.192
   73c3c    H11  662   1.711   2.515   0.113
   73c3c    H12  663   1.922   2.581   0.394
   73c3c    H13  664   1.766   2.554   0.464
   73c3c     C7  665   1.913   2.409   0.520
   73c3c    H14  666   1.994   2.352   0.475
   73c3c    H15  667   1.839   2.339   0.557
   73c3c     C8  668   1.972   2.487   0.636
   73c3c    H16  669   1.899   2.555   0.681
   73c3c    H17  670   2.054   2.548   0.599
   73c3c    H18  671   2.011   2.421   0.714
   74c3c      N  672   2.105   2.052   2.738
   74c3c     C1  673   1.967   2.040   2.787
   74c3c     C2  674   2.168   1.931   2.791
   74c3c     C3  675   1.977   1.984   2.929
   74c3c     C4  676   2.098   1.891   2.920
   74c3c     C5  677   2.100   2.049   2.591
   74c3c     C6  678   2.179   2.174   2.778
   74c3c     H1  679   1.914   1.965   2.727
   74c3c     H2  680   1.909   2.132   2.779
   74c3c     H3  681   2.148   1.850   2.721
   74c3c     H4  682   2.276   1.940   2.802
   74c3c     H5  683   1.885   1.935   2.960
   74c3c     H6  684   1.994   2.062   3.003
   74c3c     H7  685   2.070   1.786   2.914
   74c3c     H8  686   2.164   1.902   3.007
   74c3c     H9  687   2.031   2.124   2.553
   74c3c    H10  688   2.197   2.067   2.543
   74c3c    H11  689   2.064   1.955   2.551
   74c3c    H12  690   2.276   2.169   2.729
   74c3c    H13  691   2.131   2.262   2.735
   74c3c     C7  692   2.205   2.197   2.930
   74c3c    H14  693   2.233   2.104   2.979
   74c3c    H15  694   2.114   2.235   2.977
   74c3c     C8  695   2.320   2.291   2.964
   74c3c    H16  696   2.308   2.391   2.922
   74c3c    H17  697   2.415   2.252   2.927
   74c3c    H18  698   2.332   2.301   3.072
   75c3c      N  699   1.676   0.322   2.830
   75c3c     C1  700   1.747   0.261   2.943
   75c3c     C2  701   1.759   0.301   2.711
   75c3c     C3  702   1.885   0.216   2.895
   75c3c     C4  703   1.901   0.280   2.760
   75c3c     C5  704   1.546   0.259   2.809
   75c3c     C6  705   1.649   0.464   2.856
   75c3c     H1  706   1.693   0.176   2.986
   75c3c     H2  707   1.761   0.333   3.023
   75c3c     H3  708   1.730   0.210   2.658
   75c3c     H4  709   1.751   0.382   2.639
   75c3c     H5  710   1.889   0.108   2.881
   75c3c     H6  711   1.965   0.243   2.964
   75c3c     H7  712   1.955   0.214   2.693
   75c3c     H8  713   1.955   0.375   2.767
   75c3c     H9  714   1.480   0.275   2.894
   75c3c    H10  715   1.495   0.299   2.721
   75c3c    H11  716   1.553   0.151   2.793
   75c3c    H12  717   1.589   0.498   2.771
   75c3c    H13  718   1.585   0.475   2.944
   75c3c     C7  719   1.771   0.557   2.869
   75c3c    H14  720   1.812   0.567   2.768
   75c3c    H15  721   1.849   0.513   2.931
   75c3c     C8  722   1.738   0.695   2.927
   75c3c    H16  723   1.680   0.683   3.019
   75c3c    H17  724   1.680   0.756   2.858
   75c3c    H18  725   1.827   0.751   2.955
   76c3c      N  726   1.620   2.180   0.969
   76c3c     C1  727   1.687   2.310   0.956
   76c3c     C2  728   1.662   2.104   0.851
   76c3c     C3  729   1.690   2.341   0.807
   76c3c     C4  730   1.708   2.204   0.745
   76c3c     C5  731   1.665   2.108   1.087
   76c3c     C6  732   1.474   2.195   0.987
   76c3c     H1  733   1.792   2.302   0.983
   76c3c     H2  734   1.645   2.390   1.017
   76c3c     H3  735   1.748   2.040   0.873
   76c3c     H4  736   1.584   2.037   0.814
   76c3c     H5  737   1.771   2.410   0.784
   76c3c     H6  738   1.598   2.386   0.771
   76c3c     H7  739   1.813   2.187   0.722
   76c3c     H8  740   1.651   2.196   0.652
   76c3c     H9  741   1.632   2.156   1.179
   76c3c    H10  742   1.627   2.005   1.089
   76c3c    H11  743   1.774   2.101   1.092
   76c3c    H12  744   1.432   2.099   1.018
   76c3c    H13  745   1.456   2.262   1.071
   76c3c     C7  746   1.388   2.242   0.869
   76c3c    H14  747   1.411   2.183   0.780
   76c3c    H15  748   1.408   2.348   0.848
   76c3c     C8  749   1.239   2.228   0.900
   76c3c    H16  750   1.211   2.294   0.983
   76c3c    H17  751   1.214   2.126   0.929
   76c3c    H18  752   1.177   2.255   0.814
   77c3c      N  753   0.351   0.953   1.550
   77c3c     C1  754   0.210   0.955   1.596
   77c3c     C2  755   0.423   0.854   1.631
   77c3c     C3  756   0.195   0.839   1.695
   77c3c     C4  757   0.318   0.753   1.673
   77c3c     C5  758   0.351   0.911   1.410
   77c3c     C6  759   0.411   1.087   1.553
   77c3c     H1  760   0.138   0.944   1.516
   77c3c     H2  761   0.182   1.048   1.646
   77c3c     H3  762   0.508   0.808   1.580
   77c3c     H4  763   0.465   0.896   1.722
   77c3c     H5  764   0.101   0.784   1.682
   77c3c     H6  765   0.195   0.880   1.796
   77c3c     H7  766   0.299   0.680   1.594
   77c3c     H8  767   0.346   0.698   1.763
   77c3c     H9  768   0.294   0.979   1.347
   77c3c    H10  769   0.452   0.904   1.370
   77c3c    H11  770   0.305   0.812   1.400
   77c3c    H12  771   0.508   1.088   1.503
   77c3c    H13  772   0.347   1.156   1.498
   77c3c     C7  773   0.434   1.144   1.694
   77c3c    H14  774   0.530   1.111   1.735
   77c3c    H15  775   0.360   1.106   1.765
   77c3c     C8  776   0.429   1.295   1.694
   77c3c    H16  777   0.341   1.333   1.642
   77c3c    H17  778   0.519   1.336   1.650
   77c3c    H18  779   0.422   1.332   1.796
   78c3c      N  780   0.359   1.395   1.207
   78c3c     C1  781   0.382   1.488   1.096
   78c3c     C2  782   0.284   1.286   1.147
   78c3c     C3  783   0.253   1.490   1.018
   78c3c     C4  784   0.187   1.356   1.050
   78c3c     C5  785   0.490   1.352   1.256
   78c3c     C6  786   0.292   1.456   1.323
   78c3c     H1  787   0.459   1.450   1.030
   78c3c     H2  788   0.414   1.587   1.129
   78c3c     H3  789   0.352   1.222   1.089
   78c3c     H4  790   0.234   1.222   1.220
   78c3c     H5  791   0.268   1.503   0.911
   78c3c     H6  792   0.192   1.573   1.053
   78c3c     H7  793   0.168   1.298   0.960
   78c3c     H8  794   0.091   1.377   1.096
   78c3c     H9  795   0.548   1.437   1.293
   78c3c    H10  796   0.484   1.280   1.338
   78c3c    H11  797   0.550   1.305   1.178
   78c3c    H12  798   0.312   1.396   1.412
   78c3c    H13  799   0.339   1.554   1.336
   78c3c     C7  800   0.143   1.486   1.329
   78c3c    H14  801   0.082   1.396   1.314
   78c3c    H15  802   0.117   1.559   1.253
   78c3c     C8  803   0.107   1.546   1.465
   78c3c    H16  804   0.158   1.641   1.481
   78c3c    H17  805   0.133   1.478   1.546
   78c3c    H18  806  -0.001   1.563   1.468
   79c3c      N  807   1.082   1.475   0.260
   79c3c     C1  808   0.948   1.503   0.315
   79c3c     C2  809   1.068   1.357   0.173
   79c3c     C3  810   0.853   1.399   0.258
   79c3c     C4  811   0.944   1.283   0.223
   79c3c     C5  812   1.127   1.590   0.179
   79c3c     C6  813   1.184   1.454   0.365
   79c3c     H1  814   0.912   1.604   0.294
   79c3c     H2  815   0.947   1.495   0.424
   79c3c     H3  816   1.047   1.387   0.070
   79c3c     H4  817   1.157   1.295   0.170
   79c3c     H5  818   0.805   1.437   0.167
   79c3c     H6  819   0.774   1.370   0.328
   79c3c     H7  820   0.901   1.217   0.148
   79c3c     H8  821   0.965   1.223   0.312
   79c3c     H9  822   1.140   1.679   0.240
   79c3c    H10  823   1.222   1.570   0.130
   79c3c    H11  824   1.055   1.615   0.102
   79c3c    H12  825   1.282   1.443   0.319
   79c3c    H13  826   1.192   1.545   0.424
   79c3c     C7  827   1.164   1.333   0.460
   79c3c    H14  828   1.178   1.239   0.406
   79c3c    H15  829   1.063   1.331   0.499
   79c3c     C8  830   1.259   1.334   0.580
   79c3c    H16  831   1.247   1.424   0.640
   79c3c    H17  832   1.363   1.327   0.551
   79c3c    H18  833   1.239   1.249   0.646
   80c3c      N  834   0.371   0.477   1.162
   80c3c     C1  835   0.415   0.618   1.155
   80c3c     C2  836   0.261   0.464   1.067
   80c3c     C3  837   0.293   0.701   1.112
   80c3c     C4  838   0.191   0.601   1.059
   80c3c     C5  839   0.483   0.392   1.120
   80c3c     C6  840   0.337   0.433   1.299
   80c3c     H1  841   0.491   0.632   1.078
   80c3c     H2  842   0.460   0.653   1.248
   80c3c     H3  843   0.297   0.442   0.966
   80c3c     H4  844   0.192   0.384   1.092
   80c3c     H5  845   0.321   0.774   1.036
   80c3c     H6  846   0.249   0.756   1.196
   80c3c     H7  847   0.162   0.625   0.957
   80c3c     H8  848   0.102   0.603   1.121
   80c3c     H9  849   0.568   0.409   1.185
   80c3c    H10  850   0.458   0.286   1.122
   80c3c    H11  851   0.518   0.416   1.019
   80c3c    H12  852   0.316   0.326   1.298
   80c3c    H13  853   0.424   0.444   1.364
   80c3c     C7  854   0.217   0.500   1.369
   80c3c    H14  855   0.125   0.487   1.312
   80c3c    H15  856   0.234   0.607   1.379
   80c3c     C8  857   0.195   0.440   1.509
   80c3c    H16  858   0.284   0.446   1.571
   80c3c    H17  859   0.166   0.336   1.503
   80c3c    H18  860   0.115   0.493   1.561
   81c3c      N  861   1.675   2.848   1.482
   81c3c     C1  862   1.538   2.889   1.447
   81c3c     C2  863   1.671   2.702   1.477
   81c3c     C3  864   1.445   2.782   1.505
   81c3c     C4  865   1.527   2.655   1.491
   81c3c     C5  866   1.767   2.901   1.381
   81c3c     C6  867   1.725   2.901   1.610
   81c3c     H1  868   1.524   2.887   1.339
   81c3c     H2  869   1.516   2.990   1.480
   81c3c     H3  870   1.699   2.668   1.377
   81c3c     H4  871   1.740   2.654   1.547
   81c3c     H5  872   1.350   2.775   1.450
   81c3c     H6  873   1.420   2.798   1.610
   81c3c     H7  874   1.498   2.603   1.400
   81c3c     H8  875   1.512   2.586   1.575
   81c3c     H9  876   1.744   3.005   1.359
   81c3c    H10  877   1.872   2.895   1.410
   81c3c    H11  878   1.760   2.850   1.285
   81c3c    H12  879   1.827   2.865   1.626
   81c3c    H13  880   1.733   3.009   1.605
   81c3c     C7  881   1.646   2.867   1.737
   81c3c    H14  882   1.635   2.760   1.751
   81c3c    H15  883   1.547   2.913   1.733
   81c3c     C8  884   1.716   2.928   1.859
   81c3c    H16  885   1.719   3.036   1.846
   81c3c    H17  886   1.819   2.893   1.868
   81c3c    H18  887   1.663   2.905   1.951
   82c3c      N  888   0.483   0.381   1.984
   82c3c     C1  889   0.575   0.280   2.037
   82c3c     C2  890   0.399   0.428   2.096
   82c3c     C3  891   0.505   0.218   2.158
   82c3c     C4  892   0.423   0.333   2.213
   82c3c     C5  893   0.563   0.492   1.934
   82c3c     C6  894   0.402   0.333   1.870
   82c3c     H1  895   0.666   0.326   2.075
   82c3c     H2  896   0.607   0.207   1.963
   82c3c     H3  897   0.424   0.529   2.127
   82c3c     H4  898   0.293   0.434   2.070
   82c3c     H5  899   0.576   0.180   2.231
   82c3c     H6  900   0.439   0.135   2.128
   82c3c     H7  901   0.481   0.384   2.290
   82c3c     H8  902   0.330   0.298   2.258
   82c3c     H9  903   0.634   0.454   1.861
   82c3c    H10  904   0.505   0.572   1.889
   82c3c    H11  905   0.623   0.540   2.012
   82c3c    H12  906   0.340   0.415   1.835
   82c3c    H13  907   0.468   0.307   1.787
   82c3c     C7  908   0.310   0.212   1.896
   82c3c    H14  909   0.247   0.229   1.984
   82c3c    H15  910   0.370   0.123   1.916
   82c3c     C8  911   0.218   0.182   1.777
   82c3c    H16  912   0.276   0.161   1.687
   82c3c    H17  913   0.152   0.266   1.756
   82c3c    H18  914   0.156   0.095   1.797
   83c3c      N  915   2.514   2.783   2.779
   83c3c     C1  916   2.583   2.908   2.817
   83c3c     C2  917   2.611   2.702   2.703
   83c3c     C3  918   2.694   2.928   2.713
   83c3c     C4  919   2.738   2.786   2.684
   83c3c     C5  920   2.475   2.711   2.901
   83c3c     C6  921   2.390   2.807   2.703
   83c3c     H1  922   2.632   2.897   2.913
   83c3c     H2  923   2.517   2.993   2.825
   83c3c     H3  924   2.636   2.607   2.752
   83c3c     H4  925   2.572   2.674   2.605
   83c3c     H5  926   2.776   2.989   2.751
   83c3c     H6  927   2.657   2.976   2.622
   83c3c     H7  928   2.814   2.755   2.756
   83c3c     H8  929   2.780   2.776   2.584
   83c3c     H9  930   2.405   2.770   2.961
   83c3c    H10  931   2.426   2.617   2.876
   83c3c    H11  932   2.560   2.686   2.964
   83c3c    H12  933   2.345   2.711   2.679
   83c3c    H13  934   2.317   2.859   2.765
   83c3c     C7  935   2.401   2.883   2.570
   83c3c    H14  936   2.470   2.833   2.502
   83c3c    H15  937   2.438   2.984   2.586
   83c3c     C8  938   2.265   2.892   2.501
   83c3c    H16  939   2.200   2.963   2.552
   83c3c    H17  940   2.214   2.796   2.498
   83c3c    H18  941   2.278   2.925   2.398
   84c3c      N  942   1.478   2.396   2.175
   84c3c     C1  943   1.464   2.250   2.179
   84c3c     C2  944   1.364   2.452   2.249
   84c3c     C3  945   1.315   2.224   2.201
   84c3c     C4  946   1.278   2.335   2.296
   84c3c     C5  947   1.602   2.435   2.243
   84c3c     C6  948   1.488   2.447   2.037
   84c3c     H1  949   1.515   2.208   2.266
   84c3c     H2  950   1.504   2.198   2.093
   84c3c     H3  951   1.393   2.515   2.334
   84c3c     H4  952   1.305   2.516   2.184
   84c3c     H5  953   1.295   2.125   2.242
   84c3c     H6  954   1.261   2.234   2.107
   84c3c     H7  955   1.302   2.306   2.398
   84c3c     H8  956   1.171   2.359   2.293
   84c3c     H9  957   1.688   2.389   2.193
   84c3c    H10  958   1.619   2.543   2.241
   84c3c    H11  959   1.606   2.403   2.347
   84c3c    H12  960   1.509   2.554   2.042
   84c3c    H13  961   1.578   2.407   1.991
   84c3c     C7  962   1.370   2.420   1.940
   84c3c    H14  963   1.274   2.454   1.980
   84c3c    H15  964   1.358   2.313   1.923
   84c3c     C8  965   1.389   2.486   1.803
   84c3c    H16  966   1.485   2.458   1.759
   84c3c    H17  967   1.387   2.595   1.806
   84c3c    H18  968   1.311   2.455   1.733
   85c3c      N  969   2.459   0.320   2.812
   85c3c     C1  970   2.375   0.278   2.699
   85c3c     C2  971   2.406   0.250   2.930
   85c3c     C3  972   2.245   0.222   2.755
   85c3c     C4  973   2.256   0.235   2.906
   85c3c     C5  974   2.597   0.276   2.786
   85c3c     C6  975   2.465   0.468   2.826
   85c3c     H1  976   2.421   0.201   2.638
   85c3c     H2  977   2.358   0.363   2.633
   85c3c     H3  978   2.448   0.150   2.935
   85c3c     H4  979   2.430   0.300   3.023
   85c3c     H5  980   2.234   0.117   2.726
   85c3c     H6  981   2.161   0.278   2.714
   85c3c     H7  982   2.214   0.149   2.957
   85c3c     H8  983   2.200   0.323   2.939
   85c3c     H9  984   2.639   0.328   2.700
   85c3c    H10  985   2.662   0.296   2.871
   85c3c    H11  986   2.605   0.170   2.764
   85c3c    H12  987   2.541   0.495   2.899
   85c3c    H13  988   2.501   0.509   2.732
   85c3c     C7  989   2.335   0.543   2.861
   85c3c    H14  990   2.301   0.515   2.961
   85c3c    H15  991   2.255   0.518   2.791
   85c3c     C8  992   2.354   0.695   2.859
   85c3c    H16  993   2.376   0.731   2.758
   85c3c    H17  994   2.437   0.726   2.923
   85c3c    H18  995   2.265   0.747   2.893
   86c3c      N  996   0.294   1.583   0.303
   86c3c     C1  997   0.284   1.633   0.165
   86c3c     C2  998   0.388   1.673   0.371
   86c3c     C3  999   0.410   1.715   0.135
   86c3c     C4 1000   0.486   1.722   0.265
   86c3c     C5 1001   0.163   1.592   0.369
   86c3c     C6 1002   0.333   1.440   0.307
   86c3c     H1 1003   0.198   1.700   0.152
   86c3c     H2 1004   0.269   1.554   0.092
   86c3c     H3 1005   0.336   1.762   0.409
   86c3c     H4 1006   0.436   1.627   0.458
   86c3c     H5 1007   0.383   1.815   0.101
   86c3c     H6 1008   0.473   1.671   0.057
   86c3c     H7 1009   0.520   1.824   0.284
   86c3c     H8 1010   0.575   1.659   0.259
   86c3c     H9 1011   0.089   1.530   0.320
   86c3c    H10 1012   0.169   1.562   0.473
   86c3c    H11 1013   0.124   1.694   0.368
   86c3c    H12 1014   0.324   1.404   0.410
   86c3c    H13 1015   0.261   1.382   0.250
   86c3c     C7 1016   0.474   1.402   0.258
   86c3c    H14 1017   0.550   1.445   0.323
   86c3c    H15 1018   0.493   1.440   0.157
   86c3c     C8 1019   0.496   1.249   0.256
   86c3c    H16 1020   0.430   1.200   0.185
   86c3c    H17 1021   0.477   1.205   0.354
   86c3c    H18 1022   0.599   1.224   0.229
   87c3c      N 1023   0.589   0.318   0.615
   87c3c     C1 1024   0.471   0.236   0.646
   87c3c     C2 1025   0.695   0.267   0.704
   87c3c     C3 1026   0.480   0.200   0.794
   87c3c     C4 1027   0.629   0.194   0.822
   87c3c     C5 1028   0.629   0.294   0.476
   87c3c     C6 1029   0.564   0.464   0.625
   87c3c     H1 1030   0.475   0.142   0.591
   87c3c     H2 1031   0.377   0.284   0.619
   87c3c     H3 1032   0.761   0.196   0.654
   87c3c     H4 1033   0.762   0.346   0.739
   87c3c     H5 1034   0.431   0.104   0.816
   87c3c     H6 1035   0.432   0.275   0.857
   87c3c     H7 1036   0.662   0.090   0.824
   87c3c     H8 1037   0.655   0.239   0.918
   87c3c     H9 1038   0.551   0.325   0.406
   87c3c    H10 1039   0.719   0.350   0.450
   87c3c    H11 1040   0.651   0.190   0.455
   87c3c    H12 1041   0.650   0.516   0.583
   87c3c    H13 1042   0.482   0.491   0.559
   87c3c     C7 1043   0.538   0.527   0.764
   87c3c    H14 1044   0.622   0.509   0.830
   87c3c    H15 1045   0.449   0.483   0.809
   87c3c     C8 1046   0.514   0.679   0.757
   87c3c    H16 1047   0.424   0.703   0.700
   87c3c    H17 1048   0.596   0.732   0.710
   87c3c    H18 1049   0.502   0.722   0.857
   88c3c      N 1050   0.771   2.396   1.035
   88c3c     C1 1051   0.879   2.490   1.071
   88c3c     C2 1052   0.697   2.367   1.159
   88c3c     C3 1053   0.859   2.525   1.218
   88c3c     C4 1054   0.791   2.404   1.273
   88c3c     C5 1055   0.678   2.460   0.941
   88c3c     C6 1056   0.821   2.273   0.970
   88c3c     H1 1057   0.882   2.580   1.010
   88c3c     H2 1058   0.977   2.445   1.060
   88c3c     H3 1059   0.610   2.431   1.171
   88c3c     H4 1060   0.659   2.265   1.166
   88c3c     H5 1061   0.793   2.611   1.231
   88c3c     H6 1062   0.953   2.546   1.269
   88c3c     H7 1063   0.738   2.423   1.366
   88c3c     H8 1064   0.868   2.328   1.291
   88c3c     H9 1065   0.727   2.482   0.846
   88c3c    H10 1066   0.592   2.398   0.921
   88c3c    H11 1067   0.641   2.555   0.980
   88c3c    H12 1068   0.735   2.213   0.938
   88c3c    H13 1069   0.874   2.301   0.879
   88c3c     C7 1070   0.913   2.181   1.052
   88c3c    H14 1071   0.868   2.154   1.147
   88c3c    H15 1072   1.008   2.229   1.077
   88c3c     C8 1073   0.941   2.050   0.977
   88c3c    H16 1074   0.985   2.067   0.879
   88c3c    H17 1075   0.850   1.992   0.964
   88c3c    H18 1076   1.011   1.988   1.034
   89c3c      N 1077   2.745   2.594   1.217
   89c3c     C1 1078   2.615   2.530   1.233
   89c3c     C2 1079   2.842   2.491   1.256
   89c3c     C3 1080   2.625   2.442   1.356
   89c3c     C4 1081   2.773   2.405   1.363
   89c3c     C5 1082   2.762   2.626   1.075
   89c3c     C6 1083   2.760   2.722   1.290
   89c3c     H1 1084   2.595   2.463   1.149
   89c3c     H2 1085   2.533   2.602   1.236
   89c3c     H3 1086   2.864   2.424   1.173
   89c3c     H4 1087   2.937   2.531   1.290
   89c3c     H5 1088   2.560   2.355   1.344
   89c3c     H6 1089   2.593   2.492   1.448
   89c3c     H7 1090   2.788   2.299   1.341
   89c3c     H8 1091   2.812   2.423   1.463
   89c3c     H9 1092   2.686   2.696   1.040
   89c3c    H10 1093   2.860   2.670   1.056
   89c3c    H11 1094   2.754   2.537   1.012
   89c3c    H12 1095   2.856   2.766   1.264
   89c3c    H13 1096   2.685   2.792   1.254
   89c3c     C7 1097   2.751   2.722   1.444
   89c3c    H14 1098   2.822   2.651   1.488
   89c3c    H15 1099   2.652   2.694   1.478
   89c3c     C8 1100   2.783   2.861   1.501
   89c3c    H16 1101   2.713   2.935   1.462
   89c3c    H17 1102   2.884   2.893   1.475
   89c3c    H18 1103   2.774   2.862   1.609
   90c3c      N 1104   1.538   2.744   2.664
   90c3c     C1 1105   1.472   2.826   2.562
   90c3c     C2 1106   1.438   2.722   2.770
   90c3c     C3 1107   1.372   2.913   2.636
   90c3c     C4 1108   1.335   2.836   2.762
   90c3c     C5 1109   1.578   2.618   2.602
   90c3c     C6 1110   1.660   2.805   2.720
   90c3c     H1 1111   1.415   2.764   2.492
   90c3c     H2 1112   1.542   2.883   2.501
   90c3c     H3 1113   1.384   2.628   2.753
   90c3c     H4 1114   1.482   2.711   2.869
   90c3c     H5 1115   1.284   2.932   2.575
   90c3c     H6 1116   1.418   3.009   2.662
   90c3c     H7 1117   1.234   2.798   2.755
   90c3c     H8 1118   1.339   2.902   2.849
   90c3c     H9 1119   1.648   2.634   2.520
   90c3c    H10 1120   1.626   2.552   2.674
   90c3c    H11 1121   1.493   2.563   2.560
   90c3c    H12 1122   1.705   2.732   2.788
   90c3c    H13 1123   1.733   2.820   2.641
   90c3c     C7 1124   1.645   2.937   2.799
   90c3c    H14 1125   1.557   2.937   2.862
   90c3c    H15 1126   1.636   3.021   2.730
   90c3c     C8 1127   1.762   2.958   2.894
   90c3c    H16 1128   1.856   2.969   2.839
   90c3c    H17 1129   1.771   2.875   2.963
   90c3c    H18 1130   1.746   3.047   2.955
   91c3c      N 1131   2.628   0.191   1.814
   91c3c     C1 1132   2.649   0.326   1.868
   91c3c     C2 1133   2.727   0.106   1.881
   91c3c     C3 1134   2.791   0.336   1.922
   91c3c     C4 1135   2.844   0.194   1.924
   91c3c     C5 1136   2.492   0.146   1.848
   91c3c     C6 1137   2.637   0.183   1.667
   91c3c     H1 1138   2.580   0.350   1.949
   91c3c     H2 1139   2.633   0.401   1.791
   91c3c     H3 1140   2.684   0.063   1.972
   91c3c     H4 1141   2.758   0.021   1.821
   91c3c     H5 1142   2.792   0.381   2.021
   91c3c     H6 1143   2.854   0.397   1.857
   91c3c     H7 1144   2.879   0.168   2.024
   91c3c     H8 1145   2.928   0.185   1.855
   91c3c     H9 1146   2.414   0.201   1.797
   91c3c    H10 1147   2.477   0.041   1.822
   91c3c    H11 1148   2.471   0.155   1.954
   91c3c    H12 1149   2.615   0.081   1.635
   91c3c    H13 1150   2.557   0.243   1.622
   91c3c     C7 1151   2.769   0.225   1.601
   91c3c    H14 1152   2.849   0.157   1.629
   91c3c    H15 1153   2.799   0.324   1.635
   91c3c     C8 1154   2.756   0.229   1.448
   91c3c    H16 1155   2.678   0.299   1.418
   91c3c    H17 1156   2.729   0.131   1.408
   91c3c    H18 1157   2.848   0.261   1.401
   92c3c      N 1158   2.817   0.767   0.911
   92c3c     C1 1159   2.951   0.705   0.920
   92c3c     C2 1160   2.721   0.659   0.936
   92c3c     C3 1161   2.931   0.553   0.923
   92c3c     C4 1162   2.787   0.532   0.882
   92c3c     C5 1163   2.807   0.868   1.016
   92c3c     C6 1164   2.792   0.840   0.785
   92c3c     H1 1165   3.003   0.732   1.012
   92c3c     H2 1166   3.016   0.736   0.838
   92c3c     H3 1167   2.710   0.643   1.043
   92c3c     H4 1168   2.621   0.678   0.898
   92c3c     H5 1169   2.944   0.516   1.025
   92c3c     H6 1170   3.001   0.499   0.858
   92c3c     H7 1171   2.746   0.440   0.922
   92c3c     H8 1172   2.780   0.523   0.773
   92c3c     H9 1173   2.893   0.935   1.021
   92c3c    H10 1174   2.717   0.929   1.012
   92c3c    H11 1175   2.807   0.819   1.114
   92c3c    H12 1176   2.696   0.892   0.794
   92c3c    H13 1177   2.867   0.918   0.773
   92c3c     C7 1178   2.785   0.756   0.657
   92c3c    H14 1179   2.701   0.688   0.664
   92c3c    H15 1180   2.876   0.697   0.645
   92c3c     C8 1181   2.764   0.842   0.533
   92c3c    H16 1182   2.844   0.915   0.521
   92c3c    H17 1183   2.669   0.895   0.540
   92c3c    H18 1184   2.761   0.780   0.443
   93c3c      N 1185   1.092   0.613   0.321
   93c3c     C1 1186   1.125   0.589   0.180
   93c3c     C2 1187   1.218   0.651   0.386
   93c3c     C3 1188   1.268   0.537   0.176
   93c3c     C4 1189   1.331   0.594   0.302
   93c3c     C5 1190   1.000   0.727   0.330
   93c3c     C6 1191   1.029   0.495   0.386
   93c3c     H1 1192   1.124   0.682   0.122
   93c3c     H2 1193   1.056   0.520   0.130
   93c3c     H3 1194   1.231   0.760   0.389
   93c3c     H4 1195   1.224   0.619   0.490
   93c3c     H5 1196   1.321   0.570   0.087
   93c3c     H6 1197   1.273   0.428   0.179
   93c3c     H7 1198   1.398   0.676   0.274
   93c3c     H8 1199   1.387   0.518   0.356
   93c3c     H9 1200   0.899   0.704   0.297
   93c3c    H10 1201   0.993   0.766   0.431
   93c3c    H11 1202   1.035   0.813   0.272
   93c3c    H12 1203   1.004   0.522   0.489
   93c3c    H13 1204   0.934   0.474   0.338
   93c3c     C7 1205   1.111   0.364   0.393
   93c3c    H14 1206   1.210   0.382   0.435
   93c3c    H15 1207   1.124   0.321   0.294
   93c3c     C8 1208   1.043   0.258   0.481
   93c3c    H16 1209   0.945   0.230   0.442
   93c3c    H17 1210   1.030   0.294   0.583
   93c3c    H18 1211   1.104   0.168   0.486
   94c3c      N 1212   2.240   1.388   0.901
   94c3c     C1 1213   2.204   1.304   0.786
   94c3c     C2 1214   2.170   1.517   0.888
   94c3c     C3 1215   2.113   1.390   0.699
   94c3c     C4 1216   2.143   1.533   0.739
   94c3c     C5 1217   2.194   1.323   1.022
   94c3c     C6 1218   2.386   1.401   0.917
   94c3c     H1 1219   2.152   1.213   0.815
   94c3c     H2 1220   2.293   1.270   0.734
   94c3c     H3 1221   2.073   1.513   0.936
   94c3c     H4 1222   2.223   1.600   0.934
   94c3c     H5 1223   2.011   1.366   0.729
   94c3c     H6 1224   2.123   1.373   0.592
   94c3c     H7 1225   2.059   1.600   0.720
   94c3c     H8 1226   2.230   1.572   0.686
   94c3c     H9 1227   2.249   1.230   1.037
   94c3c    H10 1228   2.211   1.388   1.109
   94c3c    H11 1229   2.088   1.296   1.020
   94c3c    H12 1230   2.410   1.447   1.013
   94c3c    H13 1231   2.430   1.301   0.925
   94c3c     C7 1232   2.460   1.481   0.808
   94c3c    H14 1233   2.432   1.586   0.813
   94c3c    H15 1234   2.431   1.446   0.709
   94c3c     C8 1235   2.611   1.467   0.824
   94c3c    H16 1236   2.640   1.362   0.821
   94c3c    H17 1237   2.644   1.505   0.921
   94c3c    H18 1238   2.664   1.521   0.746
   95c3c      N 1239   1.852   1.469   2.499
   95c3c     C1 1240   1.768   1.357   2.456
   95c3c     C2 1241   1.977   1.446   2.426
   95c3c     C3 1242   1.795   1.341   2.308
   95c3c     C4 1243   1.932   1.404   2.286
   95c3c     C5 1244   1.796   1.596   2.455
   95c3c     C6 1245   1.864   1.479   2.646
   95c3c     H1 1246   1.661   1.369   2.478
   95c3c     H2 1247   1.799   1.263   2.501
   95c3c     H3 1248   2.041   1.534   2.422
   95c3c     H4 1249   2.036   1.364   2.468
   95c3c     H5 1250   1.719   1.391   2.248
   95c3c     H6 1251   1.797   1.236   2.282
   95c3c     H7 1252   1.925   1.488   2.217
   95c3c     H8 1253   2.000   1.332   2.241
   95c3c     H9 1254   1.696   1.609   2.497
   95c3c    H10 1255   1.858   1.681   2.485
   95c3c    H11 1256   1.786   1.606   2.347
   95c3c    H12 1257   1.921   1.568   2.672
   95c3c    H13 1258   1.764   1.493   2.686
   95c3c     C7 1259   1.928   1.359   2.718
   95c3c    H14 1260   2.030   1.345   2.684
   95c3c    H15 1261   1.871   1.269   2.697
   95c3c     C8 1262   1.930   1.375   2.870
   95c3c    H16 1263   1.828   1.385   2.907
   95c3c    H17 1264   1.988   1.462   2.900
   95c3c    H18 1265   1.974   1.287   2.917
   96c3c      N 1266   2.566   0.408   0.505
   96c3c     C1 1267   2.513   0.403   0.643
   96c3c     C2 1268   2.501   0.298   0.430
   96c3c     C3 1269   2.411   0.289   0.647
   96c3c     C4 1270   2.457   0.198   0.536
   96c3c     C5 1271   2.529   0.535   0.442
   96c3c     C6 1272   2.714   0.398   0.502
   96c3c     H1 1273   2.467   0.496   0.677
   96c3c     H2 1274   2.590   0.381   0.718
   96c3c     H3 1275   2.410   0.332   0.381
   96c3c     H4 1276   2.564   0.255   0.352
   96c3c     H5 1277   2.312   0.329   0.625
   96c3c     H6 1278   2.406   0.238   0.743
   96c3c     H7 1279   2.380   0.130   0.500
   96c3c     H8 1280   2.541   0.137   0.570
   96c3c     H9 1281   2.568   0.620   0.497
   96c3c    H10 1282   2.567   0.542   0.340
   96c3c    H11 1283   2.421   0.547   0.437
   96c3c    H12 1284   2.749   0.412   0.400
   96c3c    H13 1285   2.756   0.481   0.559
   96c3c     C7 1286   2.776   0.266   0.554
   96c3c    H14 1287   2.751   0.184   0.486
   96c3c    H15 1288   2.738   0.238   0.652
   96c3c     C8 1289   2.929   0.274   0.564
   96c3c    H16 1290   2.960   0.348   0.637
   96c3c    H17 1291   2.974   0.299   0.468
   96c3c    H18 1292   2.970   0.178   0.595
   97c3c      N 1293   1.554   0.258   0.899
   97c3c     C1 1294   1.558   0.404   0.920
   97c3c     C2 1295   1.552   0.239   0.754
   97c3c     C3 1296   1.529   0.471   0.785
   97c3c     C4 1297   1.481   0.361   0.694
   97c3c     C5 1298   1.676   0.201   0.952
   97c3c     C6 1299   1.440   0.193   0.967
   97c3c     H1 1300   1.653   0.439   0.958
   97c3c     H2 1301   1.487   0.433   0.998
   97c3c     H3 1302   1.654   0.240   0.715
   97c3c     H4 1303   1.508   0.143   0.725
   97c3c     H5 1304   1.621   0.508   0.741
   97c3c     H6 1305   1.459   0.554   0.792
   97c3c     H7 1306   1.510   0.379   0.590
   97c3c     H8 1307   1.372   0.353   0.694
   97c3c     H9 1308   1.680   0.209   1.061
   97c3c    H10 1309   1.686   0.095   0.925
   97c3c    H11 1310   1.764   0.251   0.912
   97c3c    H12 1311   1.452   0.084   0.964
   97c3c    H13 1312   1.440   0.219   1.073
   97c3c     C7 1313   1.301   0.224   0.907
   97c3c    H14 1314   1.290   0.178   0.809
   97c3c    H15 1315   1.294   0.332   0.895
   97c3c     C8 1316   1.183   0.184   0.993
   97c3c    H16 1317   1.183   0.248   1.082
   97c3c    H17 1318   1.186   0.079   1.022
   97c3c    H18 1319   1.089   0.202   0.941
   98c3c      N 1320   1.801   0.915   0.781
   98c3c     C1 1321   1.800   0.773   0.744
   98c3c     C2 1322   1.781   0.923   0.927
   98c3c     C3 1323   1.743   0.700   0.866
   98c3c     C4 1324   1.794   0.781   0.981
   98c3c     C5 1325   1.933   0.972   0.755
   98c3c     C6 1326   1.700   0.993   0.706
   98c3c     H1 1327   1.901   0.735   0.730
   98c3c     H2 1328   1.746   0.749   0.653
   98c3c     H3 1329   1.849   0.990   0.978
   98c3c     H4 1330   1.681   0.959   0.952
   98c3c     H5 1331   1.777   0.597   0.872
   98c3c     H6 1332   1.634   0.704   0.866
   98c3c     H7 1333   1.897   0.752   0.999
   98c3c     H8 1334   1.738   0.766   1.074
   98c3c     H9 1335   1.964   0.960   0.651
   98c3c    H10 1336   1.936   1.079   0.778
   98c3c    H11 1337   2.009   0.925   0.817
   98c3c    H12 1338   1.703   1.096   0.739
   98c3c    H13 1339   1.726   0.995   0.600
   98c3c     C7 1340   1.554   0.942   0.713
   98c3c    H14 1341   1.526   0.919   0.816
   98c3c    H15 1342   1.542   0.848   0.660
   98c3c     C8 1343   1.455   1.045   0.658
   98c3c    H16 1344   1.472   1.064   0.552
   98c3c    H17 1345   1.463   1.139   0.711
   98c3c    H18 1346   1.353   1.010   0.669
   99c3c      N 1347   2.681   1.666   1.722
   99c3c     C1 1348   2.680   1.532   1.659
   99c3c     C2 1349   2.771   1.750   1.642
   99c3c     C3 1350   2.789   1.531   1.551
   99c3c     C4 1351   2.871   1.656   1.579
   99c3c     C5 1352   2.546   1.721   1.717
   99c3c     C6 1353   2.718   1.664   1.864
   99c3c     H1 1354   2.586   1.510   1.609
   99c3c     H2 1355   2.694   1.451   1.731
   99c3c     H3 1356   2.717   1.799   1.560
   99c3c     H4 1357   2.819   1.827   1.701
   99c3c     H5 1358   2.743   1.540   1.453
   99c3c     H6 1359   2.849   1.440   1.553
   99c3c     H7 1360   2.914   1.698   1.488
   99c3c     H8 1361   2.953   1.633   1.647
   99c3c     H9 1362   2.476   1.655   1.768
   99c3c    H10 1363   2.539   1.820   1.762
   99c3c    H11 1364   2.509   1.732   1.615
   99c3c    H12 1365   2.711   1.765   1.905
   99c3c    H13 1366   2.643   1.607   1.918
   99c3c     C7 1367   2.857   1.609   1.901
   99c3c    H14 1368   2.935   1.679   1.871
   99c3c    H15 1369   2.878   1.516   1.847
   99c3c     C8 1370   2.869   1.581   2.051
   99c3c    H16 1371   2.799   1.503   2.082
   99c3c    H17 1372   2.848   1.669   2.111
   99c3c    H18 1373   2.968   1.545   2.078
  100c3c      N 1374   2.399   1.233   2.738
  100c3c     C1 1375   2.305   1.149   2.812
  100c3c     C2 1376   2.526   1.162   2.755
  100c3c     C3 1377   2.377   1.093   2.934
  100c3c     C4 1378   2.524   1.095   2.892
  100c3c     C5 1379   2.363   1.234   2.596
  100c3c     C6 1380   2.401   1.373   2.783
  100c3c     H1 1381   2.281   1.062   2.750
  100c3c     H2 1382   2.211   1.200   2.835
  100c3c     H3 1383   2.533   1.082   2.681
  100c3c     H4 1384   2.613   1.226   2.737
  100c3c     H5 1385   2.344   0.992   2.957
  100c3c     H6 1386   2.361   1.153   3.023
  100c3c     H7 1387   2.560   0.992   2.886
  100c3c     H8 1388   2.586   1.148   2.964
  100c3c     H9 1389   2.264   1.277   2.579
  100c3c    H10 1390   2.435   1.289   2.536
  100c3c    H11 1391   2.361   1.134   2.553
  100c3c    H12 1392   2.462   1.430   2.712
  100c3c    H13 1393   2.300   1.412   2.772
  100c3c     C7 1394   2.450   1.408   2.925
  100c3c    H14 1395   2.551   1.371   2.940
  100c3c    H15 1396   2.386   1.362   3.000
  100c3c     C8 1397   2.451   1.559   2.950
  100c3c    H16 1398   2.351   1.602   2.938
  100c3c    H17 1399   2.517   1.610   2.880
  100c3c    H18 1400   2.487   1.582   3.051
  101fsi     F1 1401   0.975   1.474   2.005
  101fsi     S1 1402   1.112   1.508   2.073
  101fsi      N 1403   1.143   1.654   2.025
  101fsi     O1 1404   1.086   1.494   2.214
  101fsi     O2 1405   1.205   1.419   2.012
  101fsi     S2 1406   1.063   1.786   2.045
  101fsi     O3 1407   0.960   1.781   2.144
  101fsi     O4 1408   1.034   1.852   1.922
  101fsi     F2 1409   1.171   1.879   2.109
  102fsi     F1 1410   2.333   1.256   1.270
  102fsi     S1 1411   2.371   1.106   1.246
  102fsi      N 1412   2.232   1.043   1.210
  102fsi     O1 1413   2.462   1.113   1.134
  102fsi     O2 1414   2.420   1.065   1.374
  102fsi     S2 1415   2.199   0.948   1.089
  102fsi     O3 1416   2.242   0.995   0.960
  102fsi     O4 1417   2.065   0.899   1.096
  102fsi     F2 1418   2.288   0.823   1.119
  103fsi     F1 1419   2.637   1.611   1.161
  103fsi     S1 1420   2.531   1.721   1.127
  103fsi      N 1421   2.395   1.654   1.160
  103fsi     O1 1422   2.567   1.830   1.214
  103fsi     O2 1423   2.553   1.746   0.988
  103fsi     S2 1424   2.337   1.637   1.305
  103fsi     O3 1425   2.438   1.626   1.406
  103fsi     O4 1426   2.227   1.544   1.309
  103fsi     F2 1427   2.270   1.775   1.333
  104fsi     F1 1428   2.507   2.927   1.640
  104fsi     S1 1429   2.499   2.845   1.773
  104fsi      N 1430   2.364   2.898   1.832
  104fsi     O1 1431   2.495   2.709   1.728
  104fsi     O2 1432   2.615   2.890   1.845
  104fsi     S2 1433   2.251   2.818   1.905
  104fsi     O3 1434   2.294   2.695   1.966
  104fsi     O4 1435   2.126   2.816   1.836
  104fsi     F2 1436   2.221   2.908   2.031
  105fsi     F1 1437   0.107   2.757   1.671
  105fsi     S1 1438   0.211   2.771   1.553
  105fsi      N 1439   0.273   2.913   1.581
  105fsi     O1 1440   0.300   2.660   1.578
  105fsi     O2 1441   0.129   2.767   1.435
  105fsi     S2 1442   0.423   2.961   1.577
  105fsi     O3 1443   0.519   2.865   1.530
  105fsi     O4 1444   0.461   3.038   1.692
  105fsi     F2 1445   0.418   3.068   1.461
  106fsi     F1 1446   0.327   2.720   2.212
  106fsi     S1 1447   0.403   2.585   2.190
  106fsi      N 1448   0.288   2.485   2.156
  106fsi     O1 1449   0.493   2.613   2.081
  106fsi     O2 1450   0.462   2.560   2.318
  106fsi     S2 1451   0.211   2.469   2.020
  106fsi     O3 1452   0.207   2.588   1.940
  106fsi     O4 1453   0.088   2.398   2.036
  106fsi     F2 1454   0.302   2.371   1.938
  107fsi     F1 1455   0.883   2.009   0.233
  107fsi     S1 1456   0.998   2.111   0.263
  107fsi      N 1457   0.947   2.189   0.390
  107fsi     O1 1458   1.115   2.031   0.283
  107fsi     O2 1459   0.997   2.196   0.147
  107fsi     S2 1460   0.954   2.153   0.543
  107fsi     O3 1461   0.870   2.043   0.581
  107fsi     O4 1462   0.943   2.270   0.626
  107fsi     F2 1463   1.102   2.105   0.568
  108fsi     F1 1464   0.928   0.979   2.040
  108fsi     S1 1465   0.860   1.109   1.985
  108fsi      N 1466   0.955   1.157   1.871
  108fsi     O1 1467   0.730   1.062   1.944
  108fsi     O2 1468   0.867   1.200   2.095
  108fsi     S2 1469   0.925   1.207   1.727
  108fsi     O3 1470   0.791   1.184   1.680
  108fsi     O4 1471   1.033   1.187   1.634
  108fsi     F2 1472   0.928   1.361   1.747
  109fsi     F1 1473   1.925   0.800   0.121
  109fsi     S1 1474   1.935   0.702   0.244
  109fsi      N 1475   1.818   0.746   0.338
  109fsi     O1 1476   1.918   0.570   0.190
  109fsi     O2 1477   2.060   0.738   0.305
  109fsi     S2 1478   1.665   0.752   0.307
  109fsi     O3 1479   1.633   0.774   0.168
  109fsi     O4 1480   1.593   0.826   0.406
  109fsi     F2 1481   1.623   0.604   0.333
  110fsi     F1 1482   1.137   0.519   2.388
  110fsi     S1 1483   1.111   0.603   2.259
  110fsi      N 1484   1.256   0.619   2.204
  110fsi     O1 1485   1.027   0.515   2.183
  110fsi     O2 1486   1.057   0.725   2.313
  110fsi     S2 1487   1.337   0.509   2.131
  110fsi     O3 1488   1.292   0.377   2.163
  110fsi     O4 1489   1.478   0.533   2.139
  110fsi     F2 1490   1.305   0.524   1.978
  111fsi     F1 1491   0.738   0.973   0.790
  111fsi     S1 1492   0.890   0.936   0.782
  111fsi      N 1493   0.883   0.783   0.812
  111fsi     O1 1494   0.929   0.970   0.648
  111fsi     O2 1495   0.952   1.009   0.889
  111fsi     S2 1496   0.899   0.670   0.707
  111fsi     O3 1497   0.820   0.688   0.588
  111fsi     O4 1498   0.897   0.539   0.765
  111fsi     F2 1499   1.047   0.689   0.659
  112fsi     F1 1500   1.810   2.478   2.005
  112fsi     S1 1501   1.889   2.610   1.988
  112fsi      N 1502   1.813   2.706   2.086
  112fsi     O1 1503   2.022   2.574   2.029
  112fsi     O2 1504   1.866   2.638   1.849
  112fsi     S2 1505   1.868   2.795   2.203
  112fsi     O3 1506   1.996   2.758   2.256
  112fsi     O4 1507   1.766   2.834   2.296
  112fsi     F2 1508   1.901   2.928   2.129
  113fsi     F1 1509   1.170   2.555   1.425
  113fsi     S1 1510   1.214   2.427   1.346
  113fsi      N 1511   1.207   2.470   1.195
  113fsi     O1 1512   1.346   2.400   1.394
  113fsi     O2 1513   1.111   2.332   1.376
  113fsi     S2 1514   1.292   2.578   1.121
  113fsi     O3 1515   1.311   2.700   1.194
  113fsi     O4 1516   1.255   2.588   0.982
  113fsi     F2 1517   1.435   2.514   1.116
  114fsi     F1 1518   1.155   1.137   2.143
  114fsi     S1 1519   1.271   1.087   2.050
  114fsi      N 1520   1.248   0.932   2.042
  114fsi     O1 1521   1.251   1.157   1.926
  114fsi     O2 1522   1.389   1.123   2.123
  114fsi     S2 1523   1.184   0.849   1.926
  114fsi     O3 1524   1.119   0.923   1.822
  114fsi     O4 1525   1.115   0.733   1.973
  114fsi     F2 1526   1.312   0.792   1.855
  115fsi     F1 1527   3.073   2.080   0.899
  115fsi     S1 1528   2.973   2.008   0.802
  115fsi      N 1529   2.845   1.990   0.892
  115fsi     O1 1530   2.959   2.098   0.691
  115fsi     O2 1531   3.042   1.884   0.776
  115fsi     S2 1532   2.734   2.098   0.918
  115fsi     O3 1533   2.782   2.233   0.920
  115fsi     O4 1534   2.648   2.058   1.025
  115fsi     F2 1535   2.644   2.086   0.791
  116fsi     F1 1536   2.429   2.203   1.501
  116fsi     S1 1537   2.542   2.099   1.470
  116fsi      N 1538   2.668   2.168   1.531
  116fsi     O1 1539   2.497   1.980   1.535
  116fsi     O2 1540   2.549   2.099   1.326
  116fsi     S2 1541   2.757   2.131   1.655
  116fsi     O3 1542   2.693   2.049   1.754
  116fsi     O4 1543   2.832   2.244   1.702
  116fsi     F2 1544   2.867   2.040   1.591
  117fsi     F1 1545   2.392   1.930   2.582
  117fsi     S1 1546   2.490   1.822   2.638
  117fsi      N 1547   2.409   1.686   2.632
  117fsi     O1 1548   2.600   1.834   2.547
  117fsi     O2 1549   2.512   1.863   2.774
  117fsi     S2 1550   2.262   1.653   2.587
  117fsi     O3 1551   2.202   1.747   2.496
  117fsi     O4 1552   2.179   1.609   2.697
  117fsi     F2 1553   2.276   1.523   2.501
  118fsi     F1 1554   2.294   1.825   0.852
  118fsi     S1 1555   2.240   1.951   0.927
  118fsi      N 1556   2.085   1.928   0.938
  118fsi     O1 1557   2.312   1.955   1.051
  118fsi     O2 1558   2.264   2.061   0.838
  118fsi     S2 1559   2.007   1.821   1.022
  118fsi     O3 1560   2.085   1.749   1.117
  118fsi     O4 1561   1.917   1.745   0.940
  118fsi     F2 1562   1.911   1.906   1.110
  119fsi     F1 1563   1.734   1.168   1.855
  119fsi     S1 1564   1.690   1.247   1.982
  119fsi      N 1565   1.810   1.345   1.997
  119fsi     O1 1566   1.567   1.311   1.944
  119fsi     O2 1567   1.687   1.146   2.084
  119fsi     S2 1568   1.841   1.462   1.899
  119fsi     O3 1569   1.780   1.448   1.770
  119fsi     O4 1570   1.978   1.504   1.903
  119fsi     F2 1571   1.764   1.581   1.967
  120fsi     F1 1572   1.726   1.773   2.755
  120fsi     S1 1573   1.706   1.714   2.899
  120fsi      N 1574   1.631   1.830   2.974
  120fsi     O1 1575   1.628   1.596   2.880
  120fsi     O2 1576   1.839   1.696   2.945
  120fsi     S2 1577   1.479   1.870   2.966
  120fsi     O3 1578   1.412   1.820   2.850
  120fsi     O4 1579   1.458   2.008   2.999
  120fsi     F2 1580   1.414   1.791   3.086
  121fsi     F1 1581   1.087   1.946   1.649
  121fsi     S1 1582   0.993   2.071   1.638
  121fsi      N 1583   0.948   2.067   1.488
  121fsi     O1 1584   0.893   2.043   1.737
  121fsi     O2 1585   1.085   2.176   1.675
  121fsi     S2 1586   0.815   2.015   1.424
  121fsi     O3 1587   0.714   1.974   1.516
  121fsi     O4 1588   0.835   1.928   1.312
  121fsi     F2 1589   0.749   2.140   1.362
  122fsi     F1 1590   1.515   1.237   1.133
  122fsi     S1 1591   1.584   1.127   1.219
  122fsi      N 1592   1.482   1.009   1.210
  122fsi     O1 1593   1.709   1.103   1.154
  122fsi     O2 1594   1.587   1.187   1.349
  122fsi     S2 1595   1.391   0.963   1.091
  122fsi     O3 1596   1.391   1.050   0.976
  122fsi     O4 1597   1.260   0.919   1.131
  122fsi     F2 1598   1.463   0.833   1.040
  123fsi     F1 1599   1.636   2.760   1.097
  123fsi     S1 1600   1.609   2.895   1.023
  123fsi      N 1601   1.627   2.861   0.870
  123fsi     O1 1602   1.474   2.930   1.057
  123fsi     O2 1603   1.712   2.983   1.069
  123fsi     S2 1604   1.558   2.744   0.792
  123fsi     O3 1605   1.554   2.618   0.860
  123fsi     O4 1606   1.604   2.742   0.655
  123fsi     F2 1607   1.409   2.789   0.780
  124fsi     F1 1608   2.850   1.702   0.992
  124fsi     S1 1609   2.993   1.679   1.052
  124fsi      N 1610   3.038   1.823   1.093
  124fsi     O1 1611   2.974   1.591   1.162
  124fsi     O2 1612   3.070   1.634   0.939
  124fsi     S2 1613   2.988   1.908   1.216
  124fsi     O3 1614   2.865   1.860   1.272
  124fsi     O4 1615   2.995   2.047   1.186
  124fsi     F2 1616   3.096   1.883   1.327
  125fsi     F1 1617   2.407   0.151   1.389
  125fsi     S1 1618   2.415   0.179   1.235
  125fsi      N 1619   2.441   0.333   1.227
  125fsi     O1 1620   2.525   0.097   1.190
  125fsi     O2 1621   2.285   0.150   1.184
  125fsi     S2 1622   2.534   0.406   1.127
  125fsi     O3 1623   2.675   0.388   1.153
  125fsi     O4 1624   2.486   0.538   1.101
  125fsi     F2 1625   2.511   0.331   0.990
  126fsi     F1 1626   2.919   0.651   2.376
  126fsi     S1 1627   2.885   0.768   2.476
  126fsi      N 1628   2.729   0.777   2.463
  126fsi     O1 1629   2.931   0.721   2.604
  126fsi     O2 1630   2.948   0.883   2.419
  126fsi     S2 1631   2.625   0.690   2.537
  126fsi     O3 1632   2.654   0.550   2.541
  126fsi     O4 1633   2.492   0.729   2.501
  126fsi     F2 1634   2.635   0.735   2.688
  127fsi     F1 1635   0.184   1.982   1.997
  127fsi     S1 1636   0.214   2.037   1.854
  127fsi      N 1637   0.362   2.088   1.866
  127fsi     O1 1638   0.198   1.924   1.767
  127fsi     O2 1639   0.119   2.144   1.839
  127fsi     S2 1640   0.492   2.004   1.848
  127fsi     O3 1641   0.489   1.878   1.915
  127fsi     O4 1642   0.611   2.083   1.863
  127fsi     F2 1643   0.491   1.970   1.696
  128fsi     F1 1644   2.971   1.561   2.419
  128fsi     S1 1645   2.940   1.689   2.505
  128fsi      N 1646   2.823   1.638   2.595
  128fsi     O1 1647   3.062   1.716   2.577
  128fsi     O2 1648   2.902   1.787   2.407
  128fsi     S2 1649   2.831   1.561   2.732
  128fsi     O3 1650   2.959   1.503   2.764
  128fsi     O4 1651   2.715   1.480   2.758
  128fsi     F2 1652   2.816   1.678   2.836
  129fsi     F1 1653   0.342   0.850   2.196
  129fsi     S1 1654   0.289   0.851   2.048
  129fsi      N 1655   0.182   0.967   2.049
  129fsi     O1 1656   0.406   0.877   1.969
  129fsi     O2 1657   0.230   0.721   2.031
  129fsi     S2 1658   0.204   1.122   2.032
  129fsi     O3 1659   0.340   1.165   2.030
  129fsi     O4 1660   0.113   1.201   2.108
  129fsi     F2 1661   0.156   1.146   1.884
  130fsi     F1 1662   0.166   2.856   1.052
  130fsi     S1 1663   0.210   2.716   0.998
  130fsi      N 1664   0.362   2.700   1.036
  130fsi     O1 1665   0.120   2.623   1.060
  130fsi     O2 1666   0.192   2.729   0.856
  130fsi     S2 1667   0.433   2.738   1.171
  130fsi     O3 1668   0.382   2.856   1.235
  130fsi     O4 1669   0.577   2.731   1.158
  130fsi     F2 1670   0.399   2.619   1.267
  131fsi     F1 1671   2.741   1.321   2.497
  131fsi     S1 1672   2.802   1.178   2.476
  131fsi      N 1673   2.892   1.164   2.604
  131fsi     O1 1674   2.685   1.094   2.473
  131fsi     O2 1675   2.877   1.193   2.355
  131fsi     S2 1676   2.878   1.076   2.733
  131fsi     O3 1677   2.765   0.988   2.740
  131fsi     O4 1678   2.911   1.146   2.855
  131fsi     F2 1679   2.994   0.975   2.718
  132fsi     F1 1680   0.713   2.303   0.242
  132fsi     S1 1681   0.611   2.278   0.359
  132fsi      N 1682   0.473   2.310   0.292
  132fsi     O1 1683   0.628   2.140   0.396
  132fsi     O2 1684   0.646   2.375   0.458
  132fsi     S2 1685   0.369   2.216   0.221
  132fsi     O3 1686   0.415   2.083   0.191
  132fsi     O4 1687   0.298   2.279   0.114
  132fsi     F2 1688   0.260   2.194   0.332
  133fsi     F1 1689   0.248   1.830   2.753
  133fsi     S1 1690   0.402   1.803   2.740
  133fsi      N 1691   0.429   1.702   2.857
  133fsi     O1 1692   0.413   1.748   2.608
  133fsi     O2 1693   0.462   1.930   2.769
  133fsi     S2 1694   0.418   1.547   2.847
  133fsi     O3 1695   0.314   1.500   2.760
  133fsi     O4 1696   0.429   1.484   2.976
  133fsi     F2 1697   0.552   1.505   2.775
  134fsi     F1 1698   2.388   1.345   2.088
  134fsi     S1 1699   2.538   1.381   2.106
  134fsi      N 1700   2.531   1.529   2.159
  134fsi     O1 1701   2.586   1.287   2.203
  134fsi     O2 1702   2.590   1.375   1.973
  134fsi     S2 1703   2.546   1.583   2.305
  134fsi     O3 1704   2.533   1.487   2.411
  134fsi     O4 1705   2.473   1.706   2.315
  134fsi     F2 1706   2.695   1.627   2.308
  135fsi     F1 1707   2.411   0.422   1.702
  135fsi     S1 1708   2.435   0.558   1.630
  135fsi      N 1709   2.555   0.620   1.711
  135fsi     O1 1710   2.458   0.518   1.494
  135fsi     O2 1711   2.314   0.629   1.659
  135fsi     S2 1712   2.707   0.640   1.677
  135fsi     O3 1713   2.755   0.568   1.563
  135fsi     O4 1714   2.788   0.636   1.795
  135fsi     F2 1715   2.714   0.790   1.636
  136fsi     F1 1716   2.275   1.584   1.946
  136fsi     S1 1717   2.248   1.736   1.921
  136fsi      N 1718   2.120   1.766   2.005
  136fsi     O1 1719   2.365   1.800   1.975
  136fsi     O2 1720   2.230   1.744   1.780
  136fsi     S2 1721   2.100   1.744   2.160
  136fsi     O3 1722   2.178   1.635   2.212
  136fsi     O4 1723   1.965   1.756   2.204
  136fsi     F2 1724   2.171   1.871   2.220
  137fsi     F1 1725   2.261   2.812   1.514
  137fsi     S1 1726   2.336   2.761   1.385
  137fsi      N 1727   2.234   2.780   1.268
  137fsi     O1 1728   2.451   2.845   1.371
  137fsi     O2 1729   2.360   2.622   1.414
  137fsi     S2 1730   2.157   2.911   1.230
  137fsi     O3 1731   2.155   3.012   1.332
  137fsi     O4 1732   2.033   2.887   1.161
  137fsi     F2 1733   2.250   2.969   1.117
  138fsi     F1 1734   1.997   0.096   2.219
  138fsi     S1 1735   2.112   0.117   2.322
  138fsi      N 1736   2.137   0.272   2.313
  138fsi     O1 1737   2.058   0.069   2.447
  138fsi     O2 1738   2.221   0.044   2.264
  138fsi     S2 1739   2.066   0.386   2.393
  138fsi     O3 1740   1.959   0.345   2.478
  138fsi     O4 1741   2.045   0.505   2.316
  138fsi     F2 1742   2.177   0.426   2.494
  139fsi     F1 1743   2.236   1.095   1.936
  139fsi     S1 1744   2.113   1.135   2.022
  139fsi      N 1745   2.138   1.054   2.155
  139fsi     O1 1746   2.125   1.277   2.032
  139fsi     O2 1747   2.003   1.082   1.946
  139fsi     S2 1748   2.179   1.103   2.298
  139fsi     O3 1749   2.232   1.236   2.309
  139fsi     O4 1750   2.247   1.001   2.373
  139fsi     F2 1751   2.040   1.112   2.371
  140fsi     F1 1752   0.463   1.433   2.002
  140fsi     S1 1753   0.607   1.390   2.038
  140fsi      N 1754   0.671   1.526   2.083
  140fsi     O1 1755   0.586   1.296   2.143
  140fsi     O2 1756   0.658   1.346   1.912
  140fsi     S2 1757   0.681   1.588   2.225
  140fsi     O3 1758   0.611   1.520   2.330
  140fsi     O4 1759   0.672   1.731   2.216
  140fsi     F2 1760   0.829   1.562   2.263
  141fsi     F1 1761   2.230   2.486   2.257
  141fsi     S1 1762   2.361   2.553   2.313
  141fsi      N 1763   2.343   2.542   2.467
  141fsi     O1 1764   2.467   2.469   2.264
  141fsi     O2 1765   2.349   2.688   2.265
  141fsi     S2 1766   2.391   2.422   2.554
  141fsi     O3 1767   2.366   2.294   2.494
  141fsi     O4 1768   2.361   2.441   2.693
  141fsi     F2 1769   2.547   2.436   2.547
  142fsi     F1 1770   2.258   2.055   1.317
  142fsi     S1 1771   2.182   2.182   1.268
  142fsi      N 1772   2.299   2.267   1.209
  142fsi     O1 1773   2.093   2.128   1.169
  142fsi     O2 1774   2.126   2.234   1.389
  142fsi     S2 1775   2.316   2.331   1.067
  142fsi     O3 1776   2.199   2.330   0.983
  142fsi     O4 1777   2.439   2.284   1.009
  142fsi     F2 1778   2.341   2.483   1.094
  143fsi     F1 1779   1.834   2.353   2.760
  143fsi     S1 1780   1.837   2.409   2.906
  143fsi      N 1781   1.973   2.486   2.911
  143fsi     O1 1782   1.721   2.493   2.913
  143fsi     O2 1783   1.837   2.290   2.987
  143fsi     S2 1784   2.009   2.610   2.822
  143fsi     O3 1785   1.933   2.624   2.702
  143fsi     O4 1786   2.151   2.625   2.819
  143fsi     F2 1787   1.964   2.730   2.912
  144fsi     F1 1788   0.407   2.071   1.413
  144fsi     S1 1789   0.382   2.221   1.449
  144fsi      N 1790   0.244   2.250   1.381
  144fsi     O1 1791   0.375   2.218   1.592
  144fsi     O2 1792   0.491   2.290   1.386
  144fsi     S2 1793   0.102   2.236   1.445
  144fsi     O3 1794   0.085   2.110   1.512
  144fsi     O4 1795  -0.002   2.280   1.356
  144fsi     F2 1796   0.101   2.344   1.560
  145fsi     F1 1797   0.620   2.331   1.685
  145fsi     S1 1798   0.618   2.488   1.685
  145fsi      N 1799   0.765   2.533   1.712
  145fsi     O1 1800   0.576   2.530   1.554
  145fsi     O2 1801   0.533   2.521   1.795
  145fsi     S2 1802   0.893   2.478   1.639
  145fsi     O3 1803   0.872   2.351   1.577
  145fsi     O4 1804   1.014   2.500   1.712
  145fsi     F2 1805   0.904   2.573   1.517
  146fsi     F1 1806   2.238   2.259   0.621
  146fsi     S1 1807   2.210   2.159   0.504
  146fsi      N 1808   2.329   2.057   0.513
  146fsi     O1 1809   2.079   2.107   0.536
  146fsi     O2 1810   2.219   2.241   0.386
  146fsi     S2 1811   2.331   1.901   0.533
  146fsi     O3 1812   2.207   1.843   0.577
  146fsi     O4 1813   2.451   1.851   0.593
  146fsi     F2 1814   2.343   1.851   0.385
  147fsi     F1 1815   1.142   0.733   0.949
  147fsi     S1 1816   1.175   0.581   0.962
  147fsi      N 1817   1.303   0.580   1.051
  147fsi     O1 1818   1.058   0.523   1.023
  147fsi     O2 1819   1.205   0.543   0.827
  147fsi     S2 1820   1.316   0.571   1.208
  147fsi     O3 1821   1.200   0.618   1.278
  147fsi     O4 1822   1.446   0.610   1.253
  147fsi     F2 1823   1.316   0.416   1.232
  148fsi     F1 1824   0.422   2.790   0.239
  148fsi     S1 1825   0.568   2.741   0.202
  148fsi      N 1826   0.657   2.861   0.249
  148fsi     O1 1827   0.585   2.621   0.280
  148fsi     O2 1828   0.564   2.727   0.059
  148fsi     S2 1829   0.730   2.882   0.387
  148fsi     O3 1830   0.675   2.801   0.493
  148fsi     O4 1831   0.757   3.020   0.416
  148fsi     F2 1832   0.871   2.819   0.361
  149fsi     F1 1833   0.454   1.042   0.722
  149fsi     S1 1834   0.336   1.138   0.763
  149fsi      N 1835   0.406   1.273   0.801
  149fsi     O1 1836   0.251   1.146   0.648
  149fsi     O2 1837   0.276   1.073   0.877
  149fsi     S2 1838   0.459   1.385   0.704
  149fsi     O3 1839   0.506   1.337   0.577
  149fsi     O4 1840   0.539   1.484   0.769
  149fsi     F2 1841   0.327   1.463   0.668
  150fsi     F1 1842   1.966   1.172   0.509
  150fsi     S1 1843   1.853   1.178   0.400
  150fsi      N 1844   1.730   1.234   0.480
  150fsi     O1 1845   1.907   1.266   0.301
  150fsi     O2 1846   1.840   1.040   0.365
  150fsi     S2 1847   1.714   1.380   0.535
  150fsi     O3 1848   1.839   1.439   0.571
  150fsi     O4 1849   1.601   1.400   0.621
  150fsi     F2 1850   1.672   1.460   0.408
  151fsi     F1 1851   2.633   2.818   0.420
  151fsi     S1 1852   2.666   2.909   0.544
  151fsi      N 1853   2.712   2.805   0.653
  151fsi     O1 1854   2.769   2.997   0.496
  151fsi     O2 1855   2.540   2.970   0.576
  151fsi     S2 1856   2.853   2.782   0.717
  151fsi     O3 1857   2.968   2.817   0.638
  151fsi     O4 1858   2.865   2.658   0.788
  151fsi     F2 1859   2.855   2.888   0.833
  152fsi     F1 1860   1.833   0.336   1.910
  152fsi     S1 1861   1.852   0.286   1.762
  152fsi      N 1862   1.992   0.216   1.764
  152fsi     O1 1863   1.743   0.195   1.740
  152fsi     O2 1864   1.858   0.406   1.684
  152fsi     S2 1865   2.036   0.087   1.841
  152fsi     O3 1866   1.943   0.045   1.941
  152fsi     O4 1867   2.175   0.090   1.878
  152fsi     F2 1868   2.028  -0.022   1.729
  153fsi     F1 1869   1.616   2.126   2.695
  153fsi     S1 1870   1.529   2.137   2.565
  153fsi      N 1871   1.628   2.088   2.456
  153fsi     O1 1872   1.417   2.052   2.594
  153fsi     O2 1873   1.506   2.279   2.554
  153fsi     S2 1874   1.690   1.946   2.436
  153fsi     O3 1875   1.617   1.845   2.508
  153fsi     O4 1876   1.832   1.947   2.452
  153fsi     F2 1877   1.664   1.915   2.285
  154fsi     F1 1878   0.750   2.449   2.119
  154fsi     S1 1879   0.870   2.395   2.036
  154fsi      N 1880   0.953   2.317   2.142
  154fsi     O1 1881   0.809   2.317   1.933
  154fsi     O2 1882   0.939   2.515   1.997
  154fsi     S2 1883   0.954   2.162   2.168
  154fsi     O3 1884   0.833   2.093   2.135
  154fsi     O4 1885   1.021   2.127   2.290
  154fsi     F2 1886   1.053   2.116   2.058
  155fsi     F1 1887   1.420   1.606   0.520
  155fsi     S1 1888   1.453   1.746   0.460
  155fsi      N 1889   1.528   1.818   0.579
  155fsi     O1 1890   1.533   1.714   0.344
  155fsi     O2 1891   1.324   1.802   0.435
  155fsi     S2 1892   1.674   1.799   0.631
  155fsi     O3 1893   1.756   1.715   0.550
  155fsi     O4 1894   1.679   1.782   0.774
  155fsi     F2 1895   1.737   1.941   0.607
  156fsi     F1 1896   0.464   0.803   2.435
  156fsi     S1 1897   0.431   0.692   2.538
  156fsi      N 1898   0.275   0.696   2.543
  156fsi     O1 1899   0.483   0.569   2.487
  156fsi     O2 1900   0.492   0.741   2.659
  156fsi     S2 1901   0.179   0.638   2.433
  156fsi     O3 1902   0.230   0.528   2.357
  156fsi     O4 1903   0.112   0.742   2.362
  156fsi     F2 1904   0.069   0.569   2.521
  157fsi     F1 1905   1.078   1.578   1.766
  157fsi     S1 1906   1.178   1.553   1.650
  157fsi      N 1907   1.082   1.532   1.528
  157fsi     O1 1908   1.251   1.677   1.642
  157fsi     O2 1909   1.251   1.437   1.691
  157fsi     S2 1910   0.990   1.641   1.464
  157fsi     O3 1911   0.940   1.737   1.558
  157fsi     O4 1912   0.893   1.594   1.370
  157fsi     F2 1913   1.089   1.725   1.375
  158fsi     F1 1914   1.762   2.149   2.189
  158fsi     S1 1915   1.904   2.192   2.141
  158fsi      N 1916   1.928   2.328   2.216
  158fsi     O1 1917   1.991   2.088   2.185
  158fsi     O2 1918   1.884   2.208   1.999
  158fsi     S2 1919   1.940   2.358   2.370
  158fsi     O3 1920   1.852   2.284   2.456
  158fsi     O4 1921   1.948   2.498   2.398
  158fsi     F2 1922   2.084   2.306   2.405
  159fsi     F1 1923   1.438   2.928   2.254
  159fsi     S1 1924   1.288   2.890   2.228
  159fsi      N 1925   1.264   2.924   2.077
  159fsi     O1 1926   1.279   2.749   2.255
  159fsi     O2 1927   1.213   2.974   2.317
  159fsi     S2 1928   1.319   2.843   1.956
  159fsi     O3 1929   1.440   2.771   1.985
  159fsi     O4 1930   1.310   2.907   1.829
  159fsi     F2 1931   1.211   2.730   1.942
  160fsi     F1 1932   1.458   1.518   2.431
  160fsi     S1 1933   1.440   1.576   2.285
  160fsi      N 1934   1.308   1.661   2.296
  160fsi     O1 1935   1.557   1.656   2.265
  160fsi     O2 1936   1.428   1.457   2.206
  160fsi     S2 1937   1.274   1.776   2.395
  160fsi     O3 1938   1.326   1.756   2.527
  160fsi     O4 1939   1.137   1.817   2.388
  160fsi     F2 1940   1.354   1.899   2.338
  161fsi     F1 1941   1.581   2.217   1.858
  161fsi     S1 1942   1.546   2.143   1.726
  161fsi      N 1943   1.506   2.001   1.779
  161fsi     O1 1944   1.438   2.217   1.669
  161fsi     O2 1945   1.674   2.148   1.661
  161fsi     S2 1946   1.404   1.971   1.895
  161fsi     O3 1947   1.288   2.056   1.893
  161fsi     O4 1948   1.467   1.948   2.022
  161fsi     F2 1949   1.347   1.832   1.854
  162fsi     F1 1950   2.251   0.438   0.865
  162fsi     S1 1951   2.184   0.574   0.903
  162fsi      N 1952   2.283   0.680   0.841
  162fsi     O1 1953   2.055   0.569   0.839
  162fsi     O2 1954   2.184   0.572   1.047
  162fsi     S2 1955   2.299   0.729   0.693
  162fsi     O3 1956   2.244   0.641   0.594
  162fsi     O4 1957   2.430   0.782   0.665
  162fsi     F2 1958   2.207   0.855   0.684
  163fsi     F1 1959   1.341   1.599   1.390
  163fsi     S1 1960   1.424   1.469   1.366
  163fsi      N 1961   1.316   1.353   1.361
  163fsi     O1 1962   1.488   1.495   1.241
  163fsi     O2 1963   1.507   1.461   1.483
  163fsi     S2 1964   1.188   1.345   1.269
  163fsi     O3 1965   1.139   1.471   1.225
  163fsi     O4 1966   1.091   1.247   1.307
  163fsi     F2 1967   1.243   1.279   1.138
  164fsi     F1 1968   2.786   2.660   1.769
  164fsi     S1 1969   2.822   2.558   1.882
  164fsi      N 1970   2.846   2.648   2.008
  164fsi     O1 1971   2.709   2.470   1.889
  164fsi     O2 1972   2.946   2.502   1.835
  164fsi     S2 1973   2.744   2.694   2.119
  164fsi     O3 1974   2.605   2.679   2.086
  164fsi     O4 1975   2.786   2.813   2.187
  164fsi     F2 1976   2.765   2.585   2.231
  165fsi     F1 1977   1.870   1.254   0.949
  165fsi     S1 1978   1.759   1.364   0.946
  165fsi      N 1979   1.735   1.404   1.095
  165fsi     O1 1980   1.815   1.472   0.870
  165fsi     O2 1981   1.647   1.295   0.888
  165fsi     S2 1982   1.831   1.466   1.202
  165fsi     O3 1983   1.970   1.460   1.167
  165fsi     O4 1984   1.799   1.433   1.337
  165fsi     F2 1985   1.796   1.618   1.189
  166fsi     F1 1986   3.082   0.402   2.757
  166fsi     S1 1987   2.934   0.351   2.744
  166fsi      N 1988   2.913   0.332   2.590
  166fsi     O1 1989   2.932   0.227   2.818
  166fsi     O2 1990   2.857   0.458   2.801
  166fsi     S2 1991   2.976   0.224   2.494
  166fsi     O3 1992   3.111   0.186   2.527
  166fsi     O4 1993   2.948   0.249   2.355
  166fsi     F2 1994   2.892   0.095   2.526
  167fsi     F1 1995   1.393   0.847   1.474
  167fsi     S1 1996   1.276   0.945   1.512
  167fsi      N 1997   1.328   1.024   1.637
  167fsi     O1 1998   1.263   1.032   1.400
  167fsi     O2 1999   1.166   0.858   1.539
  167fsi     S2 2000   1.470   1.066   1.683
  167fsi     O3 2001   1.577   1.042   1.591
  167fsi     O4 2002   1.497   1.039   1.820
  167fsi     F2 2003   1.459   1.223   1.679
  168fsi     F1 2004   2.126   1.127   1.480
  168fsi     S1 2005   2.106   1.230   1.595
  168fsi      N 2006   2.240   1.219   1.676
  168fsi     O1 2007   2.090   1.352   1.522
  168fsi     O2 2008   1.989   1.181   1.663
  168fsi     S2 2009   2.375   1.294   1.653
  168fsi     O3 2010   2.386   1.360   1.525
  168fsi     O4 2011   2.491   1.222   1.699
  168fsi     F2 2012   2.365   1.414   1.753
  169fsi     F1 2013   2.379   2.727   0.592
  169fsi     S1 2014   2.350   2.573   0.586
  169fsi      N 2015   2.494   2.511   0.579
  169fsi     O1 2016   2.282   2.547   0.710
  169fsi     O2 2017   2.277   2.557   0.463
  169fsi     S2 2018   2.576   2.451   0.699
  169fsi     O3 2019   2.553   2.519   0.825
  169fsi     O4 2020   2.711   2.420   0.662
  169fsi     F2 2021   2.510   2.311   0.717
  170fsi     F1 2022   2.917   1.979   2.688
  170fsi     S1 2023   2.917   2.132   2.654
  170fsi      N 2024   2.765   2.168   2.641
  170fsi     O1 2025   2.981   2.196   2.766
  170fsi     O2 2026   2.985   2.141   2.528
  170fsi     S2 2027   2.664   2.188   2.758
  170fsi     O3 2028   2.700   2.132   2.885
  170fsi     O4 2029   2.529   2.171   2.713
  170fsi     F2 2030   2.673   2.344   2.784
  171fsi     F1 2031   1.398   0.134   2.070
  171fsi     S1 2032   1.544   0.192   2.062
  171fsi      N 2033   1.563   0.259   2.201
  171fsi     O1 2034   1.624   0.074   2.042
  171fsi     O2 2035   1.541   0.289   1.956
  171fsi     S2 2036   1.672   0.241   2.309
  171fsi     O3 2037   1.733   0.111   2.313
  171fsi     O4 2038   1.635   0.301   2.435
  171fsi     F2 2039   1.785   0.335   2.254
  172fsi     F1 2040   0.735   1.532   1.709
  172fsi     S1 2041   0.655   1.660   1.748
  172fsi      N 2042   0.628   1.722   1.607
  172fsi     O1 2043   0.535   1.614   1.811
  172fsi     O2 2044   0.747   1.738   1.827
  172fsi     S2 2045   0.518   1.680   1.506
  172fsi     O3 2046   0.457   1.555   1.538
  172fsi     O4 2047   0.563   1.699   1.370
  172fsi     F2 2048   0.404   1.786   1.525
  173fsi     F1 2049   0.334   2.165   2.178
  173fsi     S1 2050   0.491   2.164   2.193
  173fsi      N 2051   0.514   2.200   2.344
  173fsi     O1 2052   0.529   2.031   2.159
  173fsi     O2 2053   0.533   2.270   2.105
  173fsi     S2 2054   0.511   2.096   2.461
  173fsi     O3 2055   0.397   2.009   2.455
  173fsi     O4 2056   0.540   2.158   2.587
  173fsi     F2 2057   0.636   2.006   2.433
  174fsi     F1 2058   0.853   0.590   1.909
  174fsi     S1 2059   0.835   0.665   1.772
  174fsi      N 2060   0.980   0.674   1.713
  174fsi     O1 2061   0.747   0.582   1.694
  174fsi     O2 2062   0.780   0.792   1.807
  174fsi     S2 2063   1.081   0.558   1.678
  174fsi     O3 2064   1.038   0.430   1.726
  174fsi     O4 2065   1.220   0.590   1.688
  174fsi     F2 2066   1.061   0.549   1.523
  175fsi     F1 2067   0.495   1.717   0.921
  175fsi     S1 2068   0.389   1.824   0.879
  175fsi      N 2069   0.295   1.834   1.004
  175fsi     O1 2070   0.466   1.941   0.849
  175fsi     O2 2071   0.317   1.763   0.770
  175fsi     S2 2072   0.326   1.902   1.142
  175fsi     O3 2073   0.455   1.966   1.149
  175fsi     O4 2074   0.285   1.820   1.252
  175fsi     F2 2075   0.224   2.021   1.143
  176fsi     F1 2076   0.410   0.719   0.283
  176fsi     S1 2077   0.565   0.749   0.281
  176fsi      N 2078   0.627   0.605   0.269
  176fsi     O1 2079   0.584   0.830   0.163
  176fsi     O2 2080   0.588   0.810   0.408
  176fsi     S2 2081   0.655   0.522   0.139
  176fsi     O3 2082   0.594   0.577   0.021
  176fsi     O4 2083   0.646   0.380   0.159
  176fsi     F2 2084   0.808   0.547   0.114
  177fsi     F1 2085   1.966   0.100   0.359
  177fsi     S1 2086   2.051   0.230   0.386
  177fsi      N 2087   1.941   0.339   0.411
  177fsi     O1 2088   2.130   0.197   0.501
  177fsi     O2 2089   2.121   0.252   0.262
  177fsi     S2 2090   1.889   0.399   0.546
  177fsi     O3 2091   1.902   0.318   0.663
  177fsi     O4 2092   1.761   0.461   0.522
  177fsi     F2 2093   1.983   0.522   0.567
  178fsi     F1 2094   2.073   0.385   2.038
  178fsi     S1 2095   2.194   0.446   1.959
  178fsi      N 2096   2.205   0.591   2.014
  178fsi     O1 2097   2.304   0.360   1.994
  178fsi     O2 2098   2.149   0.453   1.824
  178fsi     S2 2099   2.290   0.640   2.136
  178fsi     O3 2100   2.334   0.536   2.224
  178fsi     O4 2101   2.238   0.759   2.195
  178fsi     F2 2102   2.422   0.686   2.067
  179fsi     F1 2103   1.509   1.813   1.483
  179fsi     S1 2104   1.516   1.893   1.348
  179fsi      N 2105   1.367   1.900   1.303
  179fsi     O1 2106   1.571   2.020   1.386
  179fsi     O2 2107   1.594   1.810   1.260
  179fsi     S2 2108   1.268   2.019   1.326
  179fsi     O3 2109   1.267   2.056   1.464
  179fsi     O4 2110   1.144   2.000   1.257
  179fsi     F2 2111   1.335   2.138   1.250
  180fsi     F1 2112   1.659   0.173   0.477
  180fsi     S1 2113   1.532   0.144   0.389
  180fsi      N 2114   1.520   0.275   0.304
  180fsi     O1 2115   1.570   0.027   0.316
  180fsi     O2 2116   1.426   0.134   0.486
  180fsi     S2 2117   1.588   0.299   0.166
  180fsi     O3 2118   1.726   0.258   0.167
  180fsi     O4 2119   1.563   0.430   0.113
  180fsi     F2 2120   1.514   0.202   0.068
  181fsi     F1 2121   1.059   1.852   0.677
  181fsi     S1 2122   0.999   1.742   0.583
  181fsi      N 2123   0.849   1.732   0.630
  181fsi     O1 2124   1.018   1.794   0.451
  181fsi     O2 2125   1.073   1.625   0.618
  181fsi     S2 2126   0.719   1.748   0.545
  181fsi     O3 2127   0.730   1.827   0.426
  181fsi     O4 2128   0.608   1.777   0.630
  181fsi     F2 2129   0.692   1.602   0.495
  182fsi     F1 2130   0.836   2.828   1.562
  182fsi     S1 2131   0.986   2.871   1.540
  182fsi      N 2132   1.020   2.820   1.395
  182fsi     O1 2133   0.984   3.012   1.554
  182fsi     O2 2134   1.059   2.801   1.642
  182fsi     S2 2135   0.988   2.884   1.256
  182fsi     O3 2136   0.880   2.979   1.259
  182fsi     O4 2137   0.976   2.788   1.151
  182fsi     F2 2138   1.116   2.965   1.219
  183fsi     F1 2139   1.393   0.117   1.806
  183fsi     S1 2140   1.288   0.123   1.693
  183fsi      N 2141   1.158   0.059   1.756
  183fsi     O1 2142   1.279   0.261   1.654
  183fsi     O2 2143   1.342   0.030   1.598
  183fsi     S2 2144   1.061   0.108   1.870
  183fsi     O3 2145   1.112   0.210   1.956
  183fsi     O4 2146   0.999  -0.004   1.934
  183fsi     F2 2147   0.942   0.173   1.791
  184fsi     F1 2148   1.229   2.602   2.574
  184fsi     S1 2149   1.155   2.489   2.655
  184fsi      N 2150   1.273   2.400   2.709
  184fsi     O1 2151   1.083   2.562   2.756
  184fsi     O2 2152   1.080   2.425   2.551
  184fsi     S2 2153   1.329   2.376   2.854
  184fsi     O3 2154   1.281   2.467   2.955
  184fsi     O4 2155   1.470   2.352   2.851
  184fsi     F2 2156   1.269   2.237   2.895
  185fsi     F1 2157   1.004   2.569   0.791
  185fsi     S1 2158   0.917   2.660   0.696
  185fsi      N 2159   0.828   2.743   0.795
  185fsi     O1 2160   1.013   2.734   0.620
  185fsi     O2 2161   0.837   2.565   0.623
  185fsi     S2 2162   0.846   2.892   0.842
  185fsi     O3 2163   0.981   2.938   0.856
  185fsi     O4 2164   0.755   2.924   0.950
  185fsi     F2 2165   0.788   2.975   0.722
  186fsi     F1 2166   0.918   0.312   2.382
  186fsi     S1 2167   0.975   0.205   2.480
  186fsi      N 2168   1.108   0.164   2.408
  186fsi     O1 2169   0.991   0.272   2.606
  186fsi     O2 2170   0.877   0.100   2.478
  186fsi     S2 2171   1.256   0.187   2.457
  186fsi     O3 2172   1.285   0.314   2.517
  186fsi     O4 2173   1.352   0.133   2.366
  186fsi     F2 2174   1.264   0.089   2.578
  187fsi     F1 2175   1.136   1.040   0.163
  187fsi     S1 2176   1.287   1.011   0.195
  187fsi      N 2177   1.359   1.133   0.127
  187fsi     O1 2178   1.290   1.007   0.338
  187fsi     O2 2179   1.311   0.888   0.125
  187fsi     S2 2180   1.456   1.241   0.188
  187fsi     O3 2181   1.461   1.250   0.330
  187fsi     O4 2182   1.446   1.368   0.122
  187fsi     F2 2183   1.598   1.189   0.149
  188fsi     F1 2184   0.872   1.870   2.563
  188fsi     S1 2185   0.801   1.733   2.594
  188fsi      N 2186   0.909   1.632   2.543
  188fsi     O1 2187   0.781   1.730   2.736
  188fsi     O2 2188   0.685   1.737   2.511
  188fsi     S2 2189   1.029   1.583   2.628
  188fsi     O3 2190   1.080   1.679   2.723
  188fsi     O4 2191   1.123   1.514   2.546
  188fsi     F2 2192   0.966   1.470   2.717
  189fsi     F1 2193   1.663   0.847   2.543
  189fsi     S1 2194   1.648   0.990   2.481
  189fsi      N 2195   1.517   0.977   2.396
  189fsi     O1 2196   1.635   1.076   2.596
  189fsi     O2 2197   1.767   1.002   2.403
  189fsi     S2 2198   1.368   1.007   2.436
  189fsi     O3 2199   1.344   0.999   2.576
  189fsi     O4 2200   1.271   0.943   2.353
  189fsi     F2 2201   1.351   1.161   2.404
  190fsi     F1 2202   2.098   2.997   0.538
  190fsi     S1 2203   2.008   2.868   0.546
  190fsi      N 2204   2.071   2.790   0.666
  190fsi     O1 2205   1.875   2.918   0.571
  190fsi     O2 2206   2.031   2.804   0.419
  190fsi     S2 2207   2.064   2.822   0.820
  190fsi     O3 2208   2.001   2.947   0.850
  190fsi     O4 2209   2.186   2.787   0.887
  190fsi     F2 2210   1.961   2.715   0.873
  191fsi     F1 2211   2.524   3.030   2.348
  191fsi     S1 2212   2.564   3.112   2.222
  191fsi      N 2213   2.507   3.255   2.253
  191fsi     O1 2214   2.707   3.108   2.221
  191fsi     O2 2215   2.493   3.046   2.117
  191fsi     S2 2216   2.556   3.349   2.368
  191fsi     O3 2217   2.624   3.283   2.475
  191fsi     O4 2218   2.449   3.438   2.403
  191fsi     F2 2219   2.662   3.442   2.298
  192fsi     F1 2220   1.310   0.071   2.944
  192fsi     S1 2221   1.203   0.187   2.936
  192fsi      N 2222   1.067   0.108   2.929
  192fsi     O1 2223   1.224   0.265   3.054
  192fsi     O2 2224   1.234   0.251   2.812
  192fsi     S2 2225   0.975   0.069   3.049
  192fsi     O3 2226   1.044   0.029   3.168
  192fsi     O4 2227   0.867  -0.015   3.003
  192fsi     F2 2228   0.905   0.205   3.087
  193fsi     F1 2229   1.885   2.641   1.199
  193fsi     S1 2230   1.964   2.571   1.316
  193fsi      N 2231   1.855   2.480   1.379
  193fsi     O1 2232   2.072   2.504   1.248
  193fsi     O2 2233   1.996   2.678   1.406
  193fsi     S2 2234   1.794   2.348   1.327
  193fsi     O3 2235   1.862   2.295   1.213
  193fsi     O4 2236   1.651   2.352   1.324
  193fsi     F2 2237   1.828   2.246   1.441
  194fsi     F1 2238   2.625   1.342   1.204
  194fsi     S1 2239   2.755   1.258   1.230
  194fsi      N 2240   2.789   1.197   1.088
  194fsi     O1 2241   2.850   1.355   1.276
  194fsi     O2 2242   2.715   1.159   1.325
  194fsi     S2 2243   2.916   1.226   1.002
  194fsi     O3 2244   2.939   1.362   0.968
  194fsi     O4 2245   2.940   1.133   0.895
  194fsi     F2 2246   3.032   1.188   1.101
  195fsi     F1 2247   2.050   0.990   2.871
  195fsi     S1 2248   2.011   0.967   2.721
  195fsi      N 2249   2.108   0.850   2.682
  195fsi     O1 2250   1.874   0.926   2.733
  195fsi     O2 2251   2.042   1.091   2.658
  195fsi     S2 2252   2.089   0.737   2.574
  195fsi     O3 2253   2.020   0.625   2.632
  195fsi     O4 2254   2.209   0.711   2.502
  195fsi     F2 2255   1.990   0.796   2.468
  196fsi     F1 2256   0.580   0.672   2.245
  196fsi     S1 2257   0.729   0.638   2.275
  196fsi      N 2258   0.753   0.691   2.423
  196fsi     O1 2259   0.730   0.495   2.260
  196fsi     O2 2260   0.794   0.717   2.175
  196fsi     S2 2261   0.795   0.613   2.554
  196fsi     O3 2262   0.765   0.473   2.557
  196fsi     O4 2263   0.769   0.683   2.677
  196fsi     F2 2264   0.950   0.618   2.549
  197fsi     F1 2265   0.990   1.258   0.730
  197fsi     S1 2266   0.847   1.312   0.697
  197fsi      N 2267   0.755   1.253   0.808
  197fsi     O1 2268   0.857   1.454   0.710
  197fsi     O2 2269   0.818   1.261   0.565
  197fsi     S2 2270   0.771   1.261   0.963
  197fsi     O3 2271   0.906   1.274   1.012
  197fsi     O4 2272   0.685   1.166   1.027
  197fsi     F2 2273   0.705   1.400   0.998
  198fsi     F1 2274   2.039   0.675   1.564
  198fsi     S1 2275   2.107   0.792   1.484
  198fsi      N 2276   1.987   0.849   1.403
  198fsi     O1 2277   2.158   0.873   1.591
  198fsi     O2 2278   2.202   0.724   1.398
  198fsi     S2 2279   1.852   0.905   1.458
  198fsi     O3 2280   1.845   0.910   1.602
  198fsi     O4 2281   1.739   0.852   1.387
  198fsi     F2 2282   1.857   1.056   1.416
  199fsi     F1 2283   2.973   0.940   1.280
  199fsi     S1 2284   2.909   0.822   1.364
  199fsi      N 2285   2.757   0.864   1.366
  199fsi     O1 2286   2.944   0.707   1.284
  199fsi     O2 2287   2.977   0.836   1.490
  199fsi     S2 2288   2.623   0.791   1.322
  199fsi     O3 2289   2.576   0.823   1.190
  199fsi     O4 2290   2.521   0.788   1.423
  199fsi     F2 2291   2.665   0.642   1.308
  200fsi     F1 2292   1.178   2.821   0.365
  200fsi     S1 2293   1.303   2.916   0.360
  200fsi      N 2294   1.400   2.839   0.263
  200fsi     O1 2295   1.250   3.038   0.308
  200fsi     O2 2296   1.351   2.913   0.496
  200fsi     S2 2297   1.401   2.838   0.106
  200fsi     O3 2298   1.273   2.852   0.044
  200fsi     O4 2299   1.478   2.727   0.055
  200fsi     F2 2300   1.483   2.965   0.064
   3.08570   3.08570   3.08570
