simbox
 2300
    1Li      Li    1   1.640   1.503   1.225  0.1082 -0.4412  0.7516
    2Li      Li    2   1.461   1.743   0.600 -0.5488  0.1500  0.5460
    3Li      Li    3   2.192   2.911   1.706 -0.4922  1.1644  0.7379
    4Li      Li    4   1.060   2.687   1.966 -1.2090  0.1605  1.4872
    5Li      Li    5   1.526   1.888   0.048 -0.2285  0.2679  0.3381
    6Li      Li    6   2.055   0.443   1.322 -1.0350  0.1339  0.7647
    7Li      Li    7   2.364   2.199   0.930  0.3870 -0.3112 -0.4919
    8Li      Li    8   0.696   0.846   0.054  0.3775 -2.0722 -0.3404
    9Li      Li    9   1.250   2.370   0.264  1.0374  1.1971 -0.4816
   10Li      Li   10   1.919   2.048   1.197 -0.7353  0.2319 -0.2542
   11Li      Li   11   2.871   2.722   1.222  0.3498 -0.6656 -0.1752
   12Li      Li   12   1.342   1.358   1.621  0.5570 -0.8940 -1.6211
   13Li      Li   13   1.808   2.426   1.705 -0.4595  1.2767 -0.2790
   14Li      Li   14   2.650   1.342   2.983 -0.7184  0.5127 -0.5281
   15Li      Li   15   0.672   2.183   1.811 -0.1402  0.0614  0.1783
   16Li      Li   16   0.328   1.938   0.290 -0.0640 -0.2094  1.1479
   17Li      Li   17   1.203   0.886   1.812 -1.4792 -1.1685 -0.0590
   18Li      Li   18   1.208   2.656   2.539 -0.1567 -0.0313  0.2501
   19Li      Li   19   2.354   1.780   2.977 -0.0625  0.5321 -0.1371
   20Li      Li   20   0.890   1.628   2.161 -0.4993 -0.9920 -0.4000
   21Li      Li   21   2.560   0.223   1.044  0.0599  0.1007  1.0644
   22Li      Li   22   1.585   1.152   0.684 -0.2819  1.1367  0.7249
   23Li      Li   23   0.023   1.208   1.304 -0.9305  0.3524  0.3250
   24Li      Li   24   1.822   2.306   0.585 -1.1009  0.4533  0.3272
   25Li      Li   25   1.742   0.895   1.300 -0.6881  0.4161  0.1051
   26Li      Li   26   0.469   0.506   0.435  0.6221 -0.6088  0.8614
   27Li      Li   27   0.487   0.912   0.590 -0.1606  0.0539  0.3949
   28Li      Li   28   1.567   0.822   2.262 -1.0614 -0.0728  0.0500
   29Li      Li   29   1.532   2.986   2.814  0.6481 -0.3621 -1.0672
   30Li      Li   30   2.083   1.994   0.128  0.3641  0.6186  0.2434
   31Li      Li   31   2.504   2.468   1.498  0.1659  0.7340 -0.4143
   32Li      Li   32   0.251   1.392   0.819  0.3124 -0.2990  0.3126
   33Li      Li   33   1.640   2.918   0.388  0.1181 -0.7843 -0.3722
   34Li      Li   34   2.574   1.489   1.699  0.5244 -0.2055 -0.7537
   35Li      Li   35   2.389   2.223   2.511 -0.1345  0.5182 -1.0251
   36Li      Li   36   0.789   2.844   2.961 -0.2978 -0.6439 -0.0053
   37Li      Li   37   2.110   1.095   0.996  0.1817  0.3557  0.5773
   38Li      Li   38   2.538   2.240   0.295 -0.7707  0.0088  0.2298
   39Li      Li   39   1.570   2.530   2.361  0.6688  0.1861  0.6728
   40Li      Li   40   2.166   0.660   0.786 -0.0479  0.0371 -0.5010
   41Li      Li   41   0.213   1.133   0.342  0.1314  0.4900  0.1342
   42Li      Li   42   2.885   2.880   0.569  0.2207  0.9089  0.6662
   43Li      Li   43   2.660   2.984   2.417  0.5084  0.2661 -1.1647
   44Li      Li   44   2.858   0.285   0.879 -0.6286 -0.6690 -0.6132
   45Li      Li   45   0.114   0.590   0.776 -0.0382 -0.5791 -0.7262
   46Li      Li   46   1.699   1.339   2.165 -0.1582  0.3600 -0.6489
   47Li      Li   47   1.255   0.570   1.486  0.1500 -0.5152 -0.3677
   48Li      Li   48   0.492   0.509   2.509  0.7104  0.5563  0.6236
   49Li      Li   49   2.748   0.508   2.275  0.2633  0.4457 -0.2479
   50Li      Li   50   1.989   1.780   1.816  0.0577  0.2102  0.6167
   51c3c      N   51   1.245   1.446   2.826 -0.3130  0.1199  0.3278
   51c3c     C1   52   1.185   1.429   2.958  0.1519 -0.0285 -0.1992
   51c3c     C2   53   1.393   1.463   2.854 -0.8218  0.1297 -0.9191
   51c3c     C3   54   1.283   1.333   3.036  0.2846  0.2243  0.4971
   51c3c     C4   55   1.417   1.373   2.976 -0.1643 -0.3653  0.0758
   51c3c     C5   56   1.217   1.326   2.740 -0.0598  0.3412 -0.7043
   51c3c     C6   57   1.194   1.565   2.756 -0.0135  0.4574 -0.9503
   51c3c     H1   58   1.083   1.400   2.938  0.2467  0.3601 -1.2552
   51c3c     H2   59   1.178   1.519   3.020  0.3073  0.8522 -1.4541
   51c3c     H3   60   1.448   1.426   2.767 -0.9377 -1.5519 -0.3074
   51c3c     H4   61   1.413   1.570   2.849 -3.8153  0.6980 -2.3919
   51c3c     H5   62   1.250   1.230   3.023 -0.9715  0.5441  1.0325
   51c3c     H6   63   1.281   1.357   3.142 -0.1053  1.1031  0.3003
   51c3c     H7   64   1.493   1.295   2.969 -1.0573 -1.2498  0.1011
   51c3c     H8   65   1.456   1.447   3.045  0.3947 -0.4304 -0.1608
   51c3c     H9   66   1.115   1.289   2.739  0.0602 -0.0443  0.6439
   51c3c    H10   67   1.231   1.349   2.634 -0.3155  1.3717 -0.5223
   51c3c    H11   68   1.285   1.243   2.760  0.8386  1.2190 -0.0593
   51c3c    H12   69   1.255   1.564   2.665  1.0718 -0.7941 -0.2199
   51c3c    H13   70   1.090   1.552   2.727 -0.1705 -0.7793  0.1193
   51c3c     C7   71   1.202   1.699   2.834  0.2957  0.2278  0.8778
   51c3c    H14   72   1.301   1.734   2.864  0.3305  0.0568  0.9627
   51c3c    H15   73   1.134   1.695   2.919  0.8419  1.1962  1.3792
   51c3c     C8   74   1.147   1.814   2.758 -0.6515 -0.1043 -0.4758
   51c3c    H16   75   1.039   1.804   2.745 -1.2487  2.3332  2.1896
   51c3c    H17   76   1.186   1.818   2.656  0.5818 -1.5851 -0.0760
   51c3c    H18   77   1.176   1.915   2.787  1.4199 -0.9905  0.6053
   52c3c      N   78   1.356   2.406   1.071  0.9841 -0.0053  0.1246
   52c3c     C1   79   1.301   2.325   1.178  0.0439 -0.1505  0.6434
   52c3c     C2   80   1.470   2.476   1.137  0.1581  1.1260  0.4719
   52c3c     C3   81   1.420   2.279   1.264 -0.5422  0.1235 -0.1553
   52c3c     C4   82   1.533   2.375   1.223  0.1770 -0.6158  0.0456
   52c3c     C5   83   1.407   2.314   0.966 -0.4618 -0.2562 -0.2539
   52c3c     C6   84   1.255   2.489   1.013 -0.2057 -0.3921 -0.6663
   52c3c     H1   85   1.243   2.238   1.150 -0.7149  0.8651 -0.9751
   52c3c     H2   86   1.244   2.384   1.250 -2.9078 -1.3145 -0.6980
   52c3c     H3   87   1.540   2.506   1.059 -1.1598 -0.4061 -1.3342
   52c3c     H4   88   1.442   2.566   1.193  1.4282  1.2001  0.9969
   52c3c     H5   89   1.446   2.177   1.234 -1.2209  0.1424 -0.8371
   52c3c     H6   90   1.402   2.285   1.371  1.3480 -1.8214  0.3094
   52c3c     H7   91   1.608   2.315   1.172 -1.7851 -1.9614 -1.3004
   52c3c     H8   92   1.568   2.430   1.310 -1.2784 -1.3745  1.1175
   52c3c     H9   93   1.327   2.256   0.921 -0.5631 -0.2703 -0.0583
   52c3c    H10   94   1.448   2.371   0.883  1.4979 -1.3949 -0.1199
   52c3c    H11   95   1.482   2.243   1.002 -0.6079  0.2020  0.9677
   52c3c    H12   96   1.304   2.544   0.932  0.4726 -0.4280 -0.2811
   52c3c    H13   97   1.176   2.427   0.969 -0.0096 -0.4584 -0.9262
   52c3c     C7   98   1.170   2.585   1.107 -0.0562  0.1441  0.3299
   52c3c    H14   99   1.244   2.653   1.149  0.4443 -0.1579 -0.0556
   52c3c    H15  100   1.119   2.543   1.194 -1.5191  0.9883 -0.1061
   52c3c     C8  101   1.063   2.669   1.028 -0.4449 -0.5777  0.2561
   52c3c    H16  102   0.990   2.610   0.974  0.6469 -2.1509  0.4647
   52c3c    H17  103   1.117   2.732   0.957 -0.4083 -0.5102  0.3438
   52c3c    H18  104   1.010   2.732   1.099  0.9098 -0.3911  1.1223
   53c3c      N  105   1.847   1.194   2.645  0.2335 -0.4644  0.3730
   53c3c     C1  106   1.721   1.212   2.716  0.4561  0.2176 -0.6560
   53c3c     C2  107   1.822   1.087   2.552 -0.1728 -0.1369 -0.0890
   53c3c     C3  108   1.602   1.168   2.623 -0.8725  0.3687  0.3371
   53c3c     C4  109   1.679   1.108   2.510 -0.3211  0.1532  0.5483
   53c3c     C5  110   1.862   1.325   2.580  0.4426  0.3993 -0.3305
   53c3c     C6  111   1.961   1.169   2.739 -0.2988  0.3520  0.4240
   53c3c     H1  112   1.710   1.307   2.769  2.5093 -0.4372  1.0431
   53c3c     H2  113   1.714   1.135   2.794 -1.2578 -0.2241 -1.2156
   53c3c     H3  114   1.907   1.088   2.484 -2.4034  1.9139 -2.9749
   53c3c     H4  115   1.825   0.990   2.601 -1.1602  0.4368  1.1473
   53c3c     H5  116   1.528   1.242   2.593 -1.4080 -0.7795 -1.2533
   53c3c     H6  117   1.543   1.084   2.660 -1.1156  0.3580 -0.0721
   53c3c     H7  118   1.676   1.186   2.433 -0.9620  0.0717  0.4919
   53c3c     H8  119   1.626   1.018   2.482 -1.5702 -0.0140  3.3257
   53c3c     H9  120   1.876   1.402   2.657 -2.3153 -0.9170  1.5769
   53c3c    H10  121   1.954   1.348   2.526  0.5568  0.8158  0.0340
   53c3c    H11  122   1.777   1.357   2.520  0.6682  2.6101  0.4669
   53c3c    H12  123   2.049   1.197   2.682  0.5922  1.6915  2.3640
   53c3c    H13  124   1.957   1.251   2.811  1.6377  1.3084 -0.5176
   53c3c     C7  125   1.969   1.029   2.807 -0.4158 -0.3091  0.4802
   53c3c    H14  126   2.003   0.950   2.741 -2.8958 -1.1625  0.1719
   53c3c    H15  127   1.874   0.993   2.848 -0.2946  1.0766  2.0183
   53c3c     C8  128   2.059   1.043   2.926 -0.5051 -0.7757 -0.1998
   53c3c    H16  129   2.156   1.087   2.903 -0.5826  1.4048  3.1791
   53c3c    H17  130   2.063   0.958   2.994  0.9193  0.2094  0.9833
   53c3c    H18  131   2.024   1.130   2.983  1.3169  0.8699 -1.5490
   54c3c      N  132   1.949   2.632   1.053 -0.1942  0.3324 -0.2269
   54c3c     C1  133   1.851   2.717   1.126  0.3937  0.6463 -0.8294
   54c3c     C2  134   2.024   2.576   1.168  0.5198  0.1325 -0.0618
   54c3c     C3  135   1.816   2.654   1.258 -0.3728 -1.1827 -0.0185
   54c3c     C4  136   1.923   2.553   1.284 -0.2465 -0.1342 -0.4421
   54c3c     C5  137   1.881   2.516   0.993 -0.4535 -0.5468 -0.4226
   54c3c     C6  138   2.035   2.695   0.948 -0.0227  0.5179  0.0286
   54c3c     H1  139   1.768   2.742   1.061  1.1444  3.7131 -0.7021
   54c3c     H2  140   1.894   2.815   1.148 -0.0241  0.7820 -0.6092
   54c3c     H3  141   2.073   2.482   1.142 -2.0547 -1.8404  1.9764
   54c3c     H4  142   2.096   2.646   1.211  0.0795  1.5210 -1.5262
   54c3c     H5  143   1.716   2.612   1.257 -0.2241 -1.5305 -1.9664
   54c3c     H6  144   1.822   2.730   1.336  0.1981 -0.2606 -0.9382
   54c3c     H7  145   1.879   2.454   1.295  2.1843 -1.0008  1.8088
   54c3c     H8  146   1.985   2.574   1.371 -0.2286  0.3923 -0.5747
   54c3c     H9  147   1.818   2.549   0.911  0.1789 -2.9482 -1.9158
   54c3c    H10  148   1.947   2.443   0.947  1.6024  0.2720  1.1484
   54c3c    H11  149   1.817   2.452   1.053 -0.3229  0.4966  0.8553
   54c3c    H12  150   2.096   2.620   0.898  1.6152  1.4002  0.6801
   54c3c    H13  151   1.960   2.724   0.874 -0.5063  1.2969  0.8027
   54c3c     C7  152   2.133   2.814   0.989 -0.5447  0.1151 -0.0005
   54c3c    H14  153   2.205   2.783   1.065 -2.1567  2.3262  2.5641
   54c3c    H15  154   2.083   2.898   1.039  0.8647  0.5437  0.7133
   54c3c     C8  155   2.208   2.874   0.871  0.4944  0.2768 -0.6428
   54c3c    H16  156   2.277   2.948   0.910  1.5256 -0.8040 -0.3872
   54c3c    H17  157   2.140   2.924   0.802 -1.3776  0.5002  1.2991
   54c3c    H18  158   2.269   2.799   0.819  1.9663  0.2999  1.0172
   55c3c      N  159   0.666   2.452   0.262  0.2401 -0.1696 -0.2370
   55c3c     C1  160   0.644   2.326   0.193  0.6673 -0.8476  0.2971
   55c3c     C2  161   0.770   2.518   0.176  0.0513 -0.4131 -0.2598
   55c3c     C3  162   0.667   2.355   0.045  0.4142 -0.6637 -0.6330
   55c3c     C4  163   0.724   2.493   0.033 -0.3786  0.2159  0.3535
   55c3c     C5  164   0.542   2.526   0.256 -0.5509 -0.1504  0.3487
   55c3c     C6  165   0.698   2.447   0.408  0.0184  0.1077  0.6940
   55c3c     H1  166   0.552   2.272   0.212 -0.3895  1.0271  0.6423
   55c3c     H2  167   0.722   2.256   0.225  0.6176 -0.9292  0.2397
   55c3c     H3  168   0.771   2.620   0.215 -0.9632 -0.2138 -0.7688
   55c3c     H4  169   0.873   2.482   0.186  0.3326  0.4935  0.1758
   55c3c     H5  170   0.576   2.350  -0.014  0.2299  0.5137 -0.4570
   55c3c     H6  171   0.730   2.275   0.006 -0.3096 -2.0458  0.9530
   55c3c     H7  172   0.643   2.560   0.005  0.9353  2.0827  0.8458
   55c3c     H8  173   0.806   2.497  -0.039 -1.2106  0.5941 -0.5785
   55c3c     H9  174   0.456   2.470   0.295 -0.8300  0.3386  0.4364
   55c3c    H10  175   0.520   2.615   0.315 -1.7321 -1.1538  1.4872
   55c3c    H11  176   0.504   2.554   0.158  1.7499  0.3677 -0.4323
   55c3c    H12  177   0.704   2.543   0.460 -0.0888  0.5454 -0.0825
   55c3c    H13  178   0.618   2.392   0.457  0.6876  0.4054  2.1549
   55c3c     C7  179   0.828   2.374   0.452  0.0566 -0.4561  0.1099
   55c3c    H14  180   0.913   2.409   0.393  0.5411  0.1316  1.1412
   55c3c    H15  181   0.810   2.269   0.428  0.2525 -0.1440 -1.5222
   55c3c     C8  182   0.841   2.377   0.602  0.1255 -0.5755 -0.4785
   55c3c    H16  183   0.853   2.482   0.628 -1.6268  0.4033 -3.3857
   55c3c    H17  184   0.929   2.321   0.634  0.6391  0.0332 -0.7954
   55c3c    H18  185   0.753   2.340   0.654 -0.5532  0.6356 -0.7527
   56c3c      N  186   1.316   2.150   1.776 -0.5944  0.5725  0.0030
   56c3c     C1  187   1.215   2.249   1.831  0.1916  0.0448 -0.5038
   56c3c     C2  188   1.289   2.156   1.634  0.1724 -0.1822  0.6272
   56c3c     C3  189   1.213   2.366   1.728 -0.1847  0.6425 -0.1323
   56c3c     C4  190   1.279   2.308   1.611  0.7743 -0.2218 -0.0811
   56c3c     C5  191   1.452   2.197   1.827  1.0341 -0.0441 -0.0334
   56c3c     C6  192   1.298   2.013   1.835  0.2404  0.5941 -0.3254
   56c3c     H1  193   1.236   2.287   1.932  0.3124  1.6407 -1.1104
   56c3c     H2  194   1.113   2.213   1.838  0.1530  0.3034  0.3094
   56c3c     H3  195   1.363   2.101   1.576 -0.7919 -1.9932  1.0674
   56c3c     H4  196   1.183   2.128   1.627  0.3375 -0.9111  1.0530
   56c3c     H5  197   1.267   2.452   1.768 -0.7294  2.0005 -2.2941
   56c3c     H6  198   1.110   2.395   1.709 -0.2896  0.4891  0.1936
   56c3c     H7  199   1.379   2.351   1.604  1.1062 -0.6943  1.6101
   56c3c     H8  200   1.233   2.341   1.518  1.6122  0.8635 -0.1312
   56c3c     H9  201   1.471   2.190   1.935 -2.9194 -1.1572  0.6981
   56c3c    H10  202   1.540   2.154   1.779  1.4125  2.0699 -1.2886
   56c3c    H11  203   1.460   2.301   1.796 -0.6830 -0.2479 -1.2322
   56c3c    H12  204   1.373   1.946   1.794  0.2748  0.9504 -0.8471
   56c3c    H13  205   1.310   2.012   1.944  1.3382  0.7210 -0.4302
   56c3c     C7  206   1.167   1.938   1.817 -0.3096 -0.1090  0.1417
   56c3c    H14  207   1.147   1.919   1.712 -1.2186  0.4631  0.2073
   56c3c    H15  208   1.081   2.001   1.841  0.0915  0.6686 -0.4375
   56c3c     C8  209   1.147   1.797   1.886  0.2844  0.1851  0.0057
   56c3c    H16  210   1.146   1.825   1.991  1.4432  1.4469 -0.3040
   56c3c    H17  211   1.230   1.731   1.863  2.8371  2.3451  2.6666
   56c3c    H18  212   1.057   1.738   1.870  0.2581 -0.2885  1.8171
   57c3c      N  213   2.255   1.648   1.316  0.1389 -0.1594  0.4861
   57c3c     C1  214   2.183   1.690   1.196 -0.7714 -0.0464 -0.2095
   57c3c     C2  215   2.340   1.540   1.269 -1.0110  0.3356  0.5050
   57c3c     C3  216   2.286   1.680   1.079 -0.7942  0.4492 -0.0442
   57c3c     C4  217   2.382   1.585   1.130  0.1253 -0.0144 -0.0509
   57c3c     C5  218   2.344   1.757   1.362 -0.1099 -0.1862  0.1265
   57c3c     C6  219   2.176   1.610   1.430  0.5075 -0.3630 -0.4291
   57c3c     H1  220   2.143   1.791   1.200 -1.4927 -0.1474 -3.2803
   57c3c     H2  221   2.096   1.626   1.181  1.2704 -3.3741  1.4788
   57c3c     H3  222   2.432   1.517   1.324 -1.0576  1.3668  1.0164
   57c3c     H4  223   2.273   1.454   1.266  0.9222 -1.1934 -1.2128
   57c3c     H5  224   2.330   1.778   1.057  0.4810  0.0489  0.6556
   57c3c     H6  225   2.248   1.653   0.981  0.8957 -0.8723 -0.3615
   57c3c     H7  226   2.485   1.619   1.116  1.0389 -3.3961 -2.2804
   57c3c     H8  227   2.372   1.516   1.046  1.0071 -1.7538  1.2356
   57c3c     H9  228   2.286   1.842   1.399  1.2554  0.4653  0.7737
   57c3c    H10  229   2.405   1.726   1.446 -0.1270  1.4908  0.7797
   57c3c    H11  230   2.417   1.780   1.285  0.1590  0.2276  0.5040
   57c3c    H12  231   2.231   1.580   1.520 -1.2209  0.3285  0.8880
   57c3c    H13  232   2.128   1.705   1.451  0.6087 -1.0191  3.1097
   57c3c     C7  233   2.053   1.522   1.410 -0.3443  0.0340 -0.0796
   57c3c    H14  234   2.074   1.441   1.341  0.6606  0.6265 -0.4712
   57c3c    H15  235   1.969   1.586   1.380 -0.3007  0.3170  0.3901
   57c3c     C8  236   2.011   1.455   1.543 -0.4755 -0.0820 -0.9357
   57c3c    H16  237   1.931   1.382   1.529  0.2005 -1.2824  1.3116
   57c3c    H17  238   1.974   1.535   1.607 -1.2834  0.0578 -1.5574
   57c3c    H18  239   2.093   1.399   1.587 -0.2323  1.1094  0.1552
   58c3c      N  240   0.920   0.117   1.676  0.2296 -0.4274 -1.0023
   58c3c     C1  241   0.949   0.011   1.772 -0.2935  0.2971 -0.0590
   58c3c     C2  242   0.977   0.238   1.734 -0.2729  0.1129 -0.3644
   58c3c     C3  243   1.086   0.048   1.842  0.4627  0.5970 -0.2930
   58c3c     C4  244   1.102   0.196   1.802 -0.1472 -0.3901  0.7904
   58c3c     C5  245   0.994   0.090   1.549 -1.0128 -0.0361 -0.6002
   58c3c     C6  246   0.780   0.127   1.626 -0.7846  0.7899  0.3220
   58c3c     H1  247   0.934  -0.089   1.734 -0.1118  0.0285  0.5582
   58c3c     H2  248   0.870   0.021   1.847 -0.1663  0.6645  0.0262
   58c3c     H3  249   0.992   0.312   1.655  0.5326  1.4923  1.0623
   58c3c     H4  250   0.919   0.280   1.816 -0.9998 -2.3312  0.4247
   58c3c     H5  251   1.166  -0.019   1.810 -0.5898 -0.3357 -1.0123
   58c3c     H6  252   1.074   0.036   1.949  1.9294  0.9665 -0.0657
   58c3c     H7  253   1.183   0.213   1.731 -1.9641  1.3451 -0.9255
   58c3c     H8  254   1.125   0.252   1.893  1.7093  0.6773 -0.3080
   58c3c     H9  255   1.099   0.060   1.556 -0.9886  0.6575  2.3662
   58c3c    H10  256   0.950   0.005   1.495  0.7775  0.1145 -2.3708
   58c3c    H11  257   0.985   0.174   1.480  4.5140 -0.4294 -2.0282
   58c3c    H12  258   0.775   0.201   1.546  2.5809 -0.9729 -1.6070
   58c3c    H13  259   0.748   0.039   1.571  1.9331 -0.4700  0.6383
   58c3c     C7  260   0.678   0.160   1.738  0.6520 -0.7240 -0.4271
   58c3c    H14  261   0.708   0.249   1.793  1.1669 -2.0312  1.4400
   58c3c    H15  262   0.680   0.084   1.816 -2.4340 -1.6212 -1.1420
   58c3c     C8  263   0.542   0.198   1.679  0.1612 -0.0595 -0.8650
   58c3c    H16  264   0.519   0.122   1.605 -0.0561  0.0563 -0.9146
   58c3c    H17  265   0.545   0.293   1.626  1.8847 -0.5323 -1.6424
   58c3c    H18  266   0.455   0.217   1.741  0.2261 -1.0570 -0.4541
   59c3c      N  267   1.482   0.864   0.213  0.2360  0.2658  0.7345
   59c3c     C1  268   1.455   0.727   0.158 -0.5273  0.8168 -0.9146
   59c3c     C2  269   1.431   0.952   0.107  0.1224 -0.0522  0.1369
   59c3c     C3  270   1.315   0.735   0.092 -0.0695  0.0716 -0.0755
   59c3c     C4  271   1.310   0.884   0.057 -0.0939  0.4106 -0.0980
   59c3c     C5  272   1.398   0.881   0.337  0.2049 -0.2071  0.2634
   59c3c     C6  273   1.625   0.879   0.240  0.1252 -0.2877 -0.0680
   59c3c     H1  274   1.468   0.641   0.224  0.6731  0.4436 -1.6186
   59c3c     H2  275   1.530   0.701   0.083  0.0214 -0.2994  0.0004
   59c3c     H3  276   1.397   1.044   0.155 -0.3376 -0.0519 -0.1789
   59c3c     H4  277   1.500   0.970   0.024  0.5173  3.7004  1.1799
   59c3c     H5  278   1.235   0.701   0.157  1.4862 -1.5095  1.0525
   59c3c     H6  279   1.306   0.674   0.002 -3.0136 -1.1096  0.9730
   59c3c     H7  280   1.227   0.929   0.111  0.7686  2.2886 -0.3076
   59c3c     H8  281   1.295   0.901  -0.050  0.9811 -0.2479 -0.3628
   59c3c     H9  282   1.442   0.830   0.423  2.0578  2.9050  1.2500
   59c3c    H10  283   1.386   0.987   0.359 -1.9273 -0.2468 -0.6113
   59c3c    H11  284   1.297   0.840   0.341  0.1108  0.2202  2.5124
   59c3c    H12  285   1.640   0.975   0.289 -1.9158 -0.3538  0.7271
   59c3c    H13  286   1.649   0.805   0.315  0.5307  0.5339  0.6276
   59c3c     C7  287   1.738   0.857   0.132 -0.2808 -0.8733 -0.0103
   59c3c    H14  288   1.734   0.915   0.040  1.9551 -2.3921 -1.1034
   59c3c    H15  289   1.744   0.751   0.108  1.9232 -0.7824  0.0098
   59c3c     C8  290   1.877   0.886   0.194  0.1599 -0.1542 -0.7723
   59c3c    H16  291   1.887   0.844   0.294  0.9974  0.6140 -0.5209
   59c3c    H17  292   1.894   0.993   0.211  2.4584 -0.8638  1.8733
   59c3c    H18  293   1.961   0.841   0.140  0.1744 -0.7956 -0.2242
   60c3c      N  294   2.872   2.292   0.793 -0.1361 -0.1994 -0.2081
   60c3c     C1  295   2.996   2.372   0.810  0.5817 -0.9401  0.5995
   60c3c     C2  296   2.914   2.168   0.730 -0.1629  0.0980 -0.3565
   60c3c     C3  297   3.106   2.265   0.831  0.3961 -0.3394  0.2245
   60c3c     C4  298   3.044   2.126   0.804 -0.2693 -0.7918 -0.4169
   60c3c     C5  299   2.813   2.265   0.922 -0.4313 -0.3336  0.1555
   60c3c     C6  300   2.761   2.359   0.718 -0.1193  0.0028  0.0734
   60c3c     H1  301   2.993   2.446   0.890  0.5359 -1.6970  1.3171
   60c3c     H2  302   3.032   2.421   0.720 -1.2059 -2.5415 -1.0465
   60c3c     H3  303   2.840   2.089   0.723  0.5955 -0.5039 -1.5776
   60c3c     H4  304   2.938   2.188   0.626  0.7886 -0.5913 -0.2769
   60c3c     H5  305   3.145   2.253   0.932 -0.8840  1.5385  0.9745
   60c3c     H6  306   3.190   2.274   0.762 -1.1833 -0.4960 -1.7698
   60c3c     H7  307   3.028   2.067   0.894  0.5118  2.2844  1.8140
   60c3c     H8  308   3.100   2.055   0.743 -0.2478 -1.0136 -0.1398
   60c3c     H9  309   2.775   2.352   0.976  0.5273 -1.0196  1.9745
   60c3c    H10  310   2.730   2.195   0.910 -0.4159 -0.8051  2.5727
   60c3c    H11  311   2.883   2.216   0.989 -1.0936 -0.3328  0.8583
   60c3c    H12  312   2.674   2.295   0.706  1.3188 -1.7692 -1.1071
   60c3c    H13  313   2.722   2.438   0.782  1.1338  0.1882  0.6113
   60c3c     C7  314   2.790   2.431   0.589  0.5456  0.4680 -0.2307
   60c3c    H14  315   2.848   2.374   0.517  1.7637  0.3115  0.8583
   60c3c    H15  316   2.851   2.520   0.604  0.5568  0.3866  0.2157
   60c3c     C8  317   2.655   2.482   0.533  0.2385  0.3169 -0.0163
   60c3c    H16  318   2.654   2.560   0.456 -1.4688  1.6636  1.3259
   60c3c    H17  319   2.596   2.523   0.615 -0.0891 -0.8715  0.3530
   60c3c    H18  320   2.592   2.405   0.488  0.9516 -0.3099  0.0519
   61c3c      N  321   0.969   0.218   0.752  0.1543  0.4689 -0.6606
   61c3c     C1  322   0.892   0.233   0.882 -0.2578 -0.0957  0.0013
   61c3c     C2  323   0.889   0.285   0.653 -0.4565  0.1065  0.8580
   61c3c     C3  324   0.846   0.379   0.877  0.2417 -0.0906 -0.3800
   61c3c     C4  325   0.815   0.400   0.728  0.1933  0.3185 -0.1617
   61c3c     C5  326   1.111   0.273   0.762  0.2957  0.0598  0.2989
   61c3c     C6  327   0.980   0.074   0.723  0.0211 -0.1651  0.1291
   61c3c     H1  328   0.950   0.216   0.972  0.9739 -0.2020 -0.7984
   61c3c     H2  329   0.796   0.182   0.890 -0.3472  0.1098  0.2364
   61c3c     H3  330   0.943   0.320   0.565 -0.8900 -1.7782 -0.1974
   61c3c     H4  331   0.809   0.232   0.601 -1.9431  1.1175  2.0812
   61c3c     H5  332   0.925   0.452   0.896  1.9168 -1.5302 -1.6413
   61c3c     H6  333   0.762   0.400   0.942  1.3350  2.0149  0.4345
   61c3c     H7  334   0.854   0.496   0.695  0.6207  0.2928  0.2593
   61c3c     H8  335   0.707   0.387   0.720  0.1043  0.2584  1.0515
   61c3c     H9  336   1.167   0.228   0.844  0.0900 -0.5346  0.1174
   61c3c    H10  337   1.158   0.253   0.666  2.4150  1.6148  0.9730
   61c3c    H11  338   1.117   0.382   0.763  2.3691 -0.0357  1.8375
   61c3c    H12  339   1.030   0.065   0.626  0.6432 -0.4165  0.4728
   61c3c    H13  340   1.060   0.035   0.786  0.3699 -2.1745 -1.5079
   61c3c     C7  341   0.855  -0.020   0.722  0.8049  0.3842 -0.0106
   61c3c    H14  342   0.793   0.006   0.636 -2.4310 -1.0907  1.7946
   61c3c    H15  343   0.791  -0.010   0.809 -1.7553 -3.5105 -1.3106
   61c3c     C8  344   0.899  -0.169   0.703 -0.0061  0.1403 -0.5424
   61c3c    H16  345   0.896  -0.213   0.603 -0.1465 -1.7659  0.2793
   61c3c    H17  346   0.839  -0.243   0.755 -3.4572  1.8751 -1.9031
   61c3c    H18  347   1.001  -0.182   0.740 -0.7018  0.2465  1.4666
   62c3c      N  348   0.437   2.771   0.773 -0.6180  0.7545 -0.0485
   62c3c     C1  349   0.497   2.704   0.652 -0.0049  0.1067  0.5705
   62c3c     C2  350   0.296   2.732   0.776 -0.0902  0.4750  0.4532
   62c3c     C3  351   0.426   2.573   0.646  0.7703  0.5259  0.4505
   62c3c     C4  352   0.284   2.604   0.696  0.9962 -0.5455 -0.9994
   62c3c     C5  353   0.497   2.710   0.892 -0.4895 -0.2618 -0.4341
   62c3c     C6  354   0.473   2.916   0.769  0.1560  0.3844  0.6762
   62c3c     H1  355   0.603   2.682   0.665  0.5591  2.1706 -0.4479
   62c3c     H2  356   0.483   2.748   0.553  1.2084  2.2436  1.3347
   62c3c     H3  357   0.256   2.726   0.877  0.9759  1.1074  0.9279
   62c3c     H4  358   0.239   2.809   0.722 -0.6498 -1.2024 -1.4121
   62c3c     H5  359   0.478   2.501   0.709 -0.4703 -2.9819 -2.3789
   62c3c     H6  360   0.427   2.521   0.551 -2.1028 -1.2079  1.3141
   62c3c     H7  361   0.241   2.516   0.744  0.6882 -0.7950 -1.7342
   62c3c     H8  362   0.221   2.628   0.611  0.7422  3.8197  0.2934
   62c3c     H9  363   0.606   2.712   0.885 -0.4675 -0.7267 -0.2574
   62c3c    H10  364   0.466   2.762   0.982  0.1678 -0.8191  0.1141
   62c3c    H11  365   0.463   2.609   0.914 -2.7143  0.4919 -0.2934
   62c3c    H12  366   0.439   2.961   0.862 -1.0467  0.0631  0.4041
   62c3c    H13  367   0.581   2.921   0.773  0.3980  1.2690 -3.9948
   62c3c     C7  368   0.411   2.991   0.656 -0.6463  0.8695 -0.1863
   62c3c    H14  369   0.303   2.999   0.660 -0.6580  0.0852  1.3689
   62c3c    H15  370   0.446   2.954   0.560  0.1926  2.2176 -0.4204
   62c3c     C8  371   0.459   3.139   0.660 -0.2350  0.5058  0.2028
   62c3c    H16  372   0.415   3.198   0.580  0.6916  2.6257  1.2090
   62c3c    H17  373   0.567   3.150   0.648 -0.6437  3.3420 -1.4726
   62c3c    H18  374   0.439   3.200   0.749 -3.3962 -0.4772  0.1992
   63c3c      N  375   2.419   3.009   3.009 -0.3698 -0.0010 -0.0402
   63c3c     C1  376   2.308   3.057   3.091 -0.3443 -0.4257 -0.2556
   63c3c     C2  377   2.525   3.100   3.052 -0.0233 -0.1971 -0.2969
   63c3c     C3  378   2.365   3.093   3.230 -0.5883 -0.5520 -0.5522
   63c3c     C4  379   2.507   3.132   3.203  0.8562  0.2582  0.0375
   63c3c     C5  380   2.461   2.871   3.042  0.2193 -0.3454 -0.4600
   63c3c     C6  381   2.392   3.015   2.866  0.1953 -0.8281 -0.1594
   63c3c     H1  382   2.218   2.996   3.098 -0.1143 -0.7375 -0.0460
   63c3c     H2  383   2.269   3.152   3.052  0.2461 -0.7794 -1.7355
   63c3c     H3  384   2.623   3.062   3.025  1.3654  2.3978  0.8888
   63c3c     H4  385   2.510   3.192   2.996 -1.6835  0.2123  0.7939
   63c3c     H5  386   2.359   2.997   3.282 -0.6633 -0.3396 -0.1681
   63c3c     H6  387   2.300   3.165   3.281  0.3703 -0.5428  0.6890
   63c3c     H7  388   2.574   3.068   3.260  0.7921  0.3293  0.1938
   63c3c     H8  389   2.540   3.234   3.224 -0.2630  0.8546 -1.0400
   63c3c     H9  390   2.562   2.844   3.012  1.1984 -0.0070  2.4005
   63c3c    H10  391   2.457   2.852   3.149  0.3403  1.0453 -0.1955
   63c3c    H11  392   2.397   2.788   3.012  1.8181 -2.6638  2.3847
   63c3c    H12  393   2.477   2.984   2.806  0.3607 -0.7012  0.0101
   63c3c    H13  394   2.308   2.946   2.863 -0.5784  0.0531  0.6100
   63c3c     C7  395   2.341   3.148   2.800 -0.1845  0.4964 -0.2102
   63c3c    H14  396   2.427   3.214   2.789 -1.2911  1.6969 -1.8382
   63c3c    H15  397   2.260   3.198   2.853 -0.7276  0.3917 -0.9336
   63c3c     C8  398   2.268   3.139   2.661 -0.0858 -0.0182 -0.1468
   63c3c    H16  399   2.163   3.122   2.686  0.3332 -1.3490  0.7858
   63c3c    H17  400   2.304   3.060   2.595  0.2199 -0.7215  0.8428
   63c3c    H18  401   2.266   3.237   2.613 -0.2822  0.5515  0.9967
   64c3c      N  402   2.980   2.502   2.179  0.0389 -0.2756 -0.1042
   64c3c     C1  403   2.989   2.406   2.060  0.3572 -0.5807  0.3759
   64c3c     C2  404   3.081   2.597   2.132  0.0514 -0.0938 -0.0571
   64c3c     C3  405   3.004   2.495   1.928  0.9088 -0.2589  0.2393
   64c3c     C4  406   3.055   2.623   1.980  0.2980  0.1066 -0.6073
   64c3c     C5  407   2.847   2.559   2.191  0.7603  0.0757 -0.4318
   64c3c     C6  408   3.015   2.448   2.314 -0.1167 -0.1110  0.4043
   64c3c     H1  409   2.900   2.343   2.062 -1.0126  1.1263 -2.6560
   64c3c     H2  410   3.086   2.358   2.068 -0.4174 -1.9250  1.9296
   64c3c     H3  411   3.078   2.685   2.197 -0.0778  0.0286 -0.2286
   64c3c     H4  412   3.183   2.559   2.134 -0.3610 -1.1429  1.1308
   64c3c     H5  413   2.910   2.506   1.874  0.9629  1.1946  0.4454
   64c3c     H6  414   3.086   2.462   1.864  0.4492  1.8571 -1.5191
   64c3c     H7  415   2.984   2.706   1.975  1.8318  1.4041 -0.9067
   64c3c     H8  416   3.154   2.646   1.942 -0.5863  2.4187 -1.5459
   64c3c     H9  417   2.831   2.632   2.270  0.9547 -0.9903  0.5982
   64c3c    H10  418   2.814   2.614   2.102  0.2899  0.1252 -0.2316
   64c3c    H11  419   2.772   2.482   2.205  0.7409 -0.0407 -1.1590
   64c3c    H12  420   3.026   2.530   2.384  0.7629 -0.4626  0.6773
   64c3c    H13  421   2.939   2.384   2.359  0.7711 -0.5205  1.3269
   64c3c     C7  422   3.140   2.359   2.322  0.2378 -0.3811  0.2572
   64c3c    H14  423   3.230   2.410   2.288 -0.4189  0.4033 -0.3318
   64c3c    H15  424   3.132   2.275   2.252 -0.1702 -0.1220 -0.0117
   64c3c     C8  425   3.160   2.297   2.465  0.6727 -0.2652  0.1043
   64c3c    H16  426   3.209   2.360   2.539  0.9122  1.2659 -1.3410
   64c3c    H17  427   3.224   2.209   2.460  0.6466 -0.2425 -0.7453
   64c3c    H18  428   3.065   2.261   2.505  0.6745 -0.2152  0.1529
   65c3c      N  429   0.809   2.255   2.465 -0.2515  0.1099  0.3594
   65c3c     C1  430   0.872   2.174   2.361 -0.0860 -0.0595  0.2190
   65c3c     C2  431   0.723   2.163   2.536  0.2437 -0.2953  0.1311
   65c3c     C3  432   0.906   2.041   2.428  0.1869 -0.4560 -0.4487
   65c3c     C4  433   0.806   2.035   2.553 -0.1012 -0.1589 -0.2994
   65c3c     C5  434   0.914   2.308   2.551  0.8636  0.1696 -0.3180
   65c3c     C6  435   0.739   2.371   2.411 -0.6302  0.7762 -0.1937
   65c3c     H1  436   0.956   2.218   2.308  0.6973 -1.0097  0.6560
   65c3c     H2  437   0.794   2.156   2.287 -0.3031 -1.8954  0.8719
   65c3c     H3  438   0.688   2.194   2.634  1.7727  0.5625  0.4143
   65c3c     H4  439   0.629   2.144   2.484  1.4845 -1.2474 -1.8232
   65c3c     H5  440   1.006   2.042   2.472 -0.1693 -2.2721  0.4631
   65c3c     H6  441   0.897   1.955   2.362  0.8531 -0.8914  0.0165
   65c3c     H7  442   0.855   2.039   2.650  0.6549 -1.9752 -0.5792
   65c3c     H8  443   0.736   1.952   2.540 -0.0834  0.3485 -4.2504
   65c3c     H9  444   0.974   2.370   2.484 -2.3671  0.6347 -2.8773
   65c3c    H10  445   0.864   2.367   2.627 -1.9855 -0.8800 -1.3147
   65c3c    H11  446   0.981   2.235   2.597 -0.5500 -0.5795  0.5750
   65c3c    H12  447   0.705   2.434   2.493  1.1566  2.3554 -0.6053
   65c3c    H13  448   0.801   2.445   2.361 -0.2965  0.9150  0.4172
   65c3c     C7  449   0.626   2.348   2.308  0.0172  0.0500  0.9298
   65c3c    H14  450   0.546   2.282   2.343 -1.4529  1.0247 -0.5547
   65c3c    H15  451   0.666   2.295   2.222  0.9928  1.0476  0.7715
   65c3c     C8  452   0.553   2.478   2.263  0.0678 -0.2474 -0.5400
   65c3c    H16  453   0.490   2.508   2.346 -0.8446  0.8628 -1.6258
   65c3c    H17  454   0.486   2.455   2.181  0.1801 -0.5358 -0.5511
   65c3c    H18  455   0.623   2.557   2.235  0.5427 -0.7448 -0.7651
   66c3c      N  456   0.369   1.413   1.882 -0.6072  0.1836 -0.7759
   66c3c     C1  457   0.374   1.266   1.867  0.0742 -0.3934 -0.2050
   66c3c     C2  458   0.504   1.445   1.933  0.2665  0.3847 -1.1539
   66c3c     C3  459   0.514   1.236   1.816  0.8636  0.6654  0.1937
   66c3c     C4  460   0.604   1.354   1.857 -0.4108 -0.2041  0.5250
   66c3c     C5  461   0.353   1.483   1.755 -0.3592  0.2231 -0.2271
   66c3c     C6  462   0.259   1.463   1.960  0.3349 -0.4888  0.2013
   66c3c     H1  463   0.295   1.228   1.802 -0.6145  0.2161  0.2652
   66c3c     H2  464   0.372   1.206   1.959  1.6694  0.4778  0.4086
   66c3c     H3  465   0.537   1.549   1.934  0.7857  0.2378  1.1098
   66c3c     H4  466   0.511   1.397   2.031 -0.6540 -0.1090 -1.3217
   66c3c     H5  467   0.502   1.235   1.708 -0.9692 -1.0739  0.3825
   66c3c     H6  468   0.542   1.134   1.840  2.7173  1.3407  1.0053
   66c3c     H7  469   0.637   1.408   1.768  0.2342 -0.3566  0.6733
   66c3c     H8  470   0.680   1.341   1.934 -0.5023 -1.4074  0.4065
   66c3c     H9  471   0.428   1.465   1.677  0.8556  1.6888  0.5831
   66c3c    H10  472   0.260   1.448   1.710  1.2857  0.5377 -4.0854
   66c3c    H11  473   0.336   1.590   1.763 -1.7454 -0.0651  0.9120
   66c3c    H12  474   0.271   1.570   1.977  1.6319 -0.9256  2.3019
   66c3c    H13  475   0.166   1.462   1.902 -1.7423  0.8645  3.3351
   66c3c     C7  476   0.236   1.400   2.089 -0.2149  0.0978 -0.6568
   66c3c    H14  477   0.333   1.403   2.139  0.2938  2.4471 -1.6921
   66c3c    H15  478   0.206   1.295   2.091 -1.4565  0.4771  1.5514
   66c3c     C8  479   0.137   1.473   2.178  1.0218  0.2928 -0.4864
   66c3c    H16  480   0.112   1.413   2.265  0.6800 -0.3119 -0.9892
   66c3c    H17  481   0.040   1.483   2.128  1.6904  1.0737 -1.6664
   66c3c    H18  482   0.161   1.574   2.208 -2.6123  1.4002 -1.0928
   67c3c      N  483   2.662   0.843   1.230 -0.6793  0.7040  0.3878
   67c3c     C1  484   2.687   0.894   1.367  0.7772  0.3248 -0.3767
   67c3c     C2  485   2.679   0.696   1.250  0.4507  0.0850  0.4626
   67c3c     C3  486   2.621   0.795   1.462  0.0346 -0.5159  0.2289
   67c3c     C4  487   2.641   0.663   1.402 -0.0523  0.3580  0.9687
   67c3c     C5  488   2.525   0.861   1.181  0.2585 -0.0049 -0.0118
   67c3c     C6  489   2.753   0.892   1.129  0.1221  0.0779  0.7791
   67c3c     H1  490   2.648   0.996   1.379  0.3960  0.0404  0.9647
   67c3c     H2  491   2.792   0.900   1.396  0.5370  1.0131  0.4171
   67c3c     H3  492   2.613   0.636   1.187 -0.8129  1.7669  0.1449
   67c3c     H4  493   2.776   0.659   1.217 -0.1575 -0.4078 -0.8096
   67c3c     H5  494   2.516   0.824   1.462 -0.0299 -0.7594 -0.6493
   67c3c     H6  495   2.648   0.801   1.568  3.5127 -1.3834 -0.5618
   67c3c     H7  496   2.546   0.612   1.413 -0.3609  0.2929 -1.6204
   67c3c     H8  497   2.723   0.605   1.444 -2.1035 -2.9591  0.5815
   67c3c     H9  498   2.508   0.820   1.081 -0.7335 -1.8361  0.8877
   67c3c    H10  499   2.448   0.811   1.239 -0.4727  1.2429  0.1187
   67c3c    H11  500   2.493   0.965   1.174 -0.3657 -0.3461 -2.6707
   67c3c    H12  501   2.730   0.831   1.042  1.5871 -1.3458  1.3770
   67c3c    H13  502   2.729   0.993   1.095  0.9653 -0.2427 -0.8441
   67c3c     C7  503   2.899   0.887   1.174  0.7053 -0.2658  0.0738
   67c3c    H14  504   2.917   0.801   1.238  0.7957  0.3013  0.8206
   67c3c    H15  505   2.918   0.970   1.243  1.2908 -1.3260  1.2143
   67c3c     C8  506   2.999   0.895   1.060 -0.1343 -0.4465 -0.1176
   67c3c    H16  507   3.093   0.911   1.114 -2.0801 -0.2327  3.3803
   67c3c    H17  508   2.975   0.976   0.991 -0.2612  1.0514  1.6369
   67c3c    H18  509   3.001   0.803   1.002 -0.1729  0.0453 -0.9027
   68c3c      N  510   2.421   1.690   2.407  0.1150  0.2837  0.7513
   68c3c     C1  511   2.319   1.672   2.504  0.1599  0.1181 -0.4362
   68c3c     C2  512   2.344   1.745   2.294  0.1341 -0.0841  0.1306
   68c3c     C3  513   2.218   1.791   2.501  0.0552  0.4526 -0.6253
   68c3c     C4  514   2.217   1.826   2.353 -0.6525 -0.1323 -0.0817
   68c3c     C5  515   2.514   1.791   2.460 -0.0074  0.4792 -0.4392
   68c3c     C6  516   2.491   1.565   2.361  0.2546  0.0107  0.0548
   68c3c     H1  517   2.359   1.665   2.605  0.0322  1.5956 -0.2765
   68c3c     H2  518   2.270   1.575   2.503  0.9626 -0.3273  1.4603
   68c3c     H3  519   2.406   1.800   2.224 -0.1545 -1.2873 -1.0929
   68c3c     H4  520   2.312   1.664   2.228 -0.0420  0.5642 -0.5843
   68c3c     H5  521   2.271   1.870   2.553 -0.7604  0.5032  0.1287
   68c3c     H6  522   2.119   1.780   2.544  1.0655  2.5269  2.3748
   68c3c     H7  523   2.220   1.935   2.350 -2.7784 -0.0939 -1.5666
   68c3c     H8  524   2.136   1.778   2.300 -1.5292 -1.5441  2.4448
   68c3c     H9  525   2.557   1.762   2.555 -0.6149  0.4769 -0.1596
   68c3c    H10  526   2.598   1.802   2.391  0.4312  2.2513  0.3566
   68c3c    H11  527   2.476   1.892   2.475  2.5121  1.2324  1.0531
   68c3c    H12  528   2.554   1.587   2.276 -1.8235  0.1361 -1.4826
   68c3c    H13  529   2.558   1.524   2.437 -1.2675 -1.6227  0.5771
   68c3c     C7  530   2.407   1.439   2.320 -0.1128  0.3425 -0.3420
   68c3c    H14  531   2.346   1.456   2.231  0.9158 -1.6914 -1.4924
   68c3c    H15  532   2.342   1.400   2.399 -1.4990  1.8205 -0.7233
   68c3c     C8  533   2.506   1.316   2.291 -0.5071  0.4069 -0.1586
   68c3c    H16  534   2.564   1.326   2.199  0.1378 -0.6554  0.1290
   68c3c    H17  535   2.434   1.236   2.274  0.5238 -0.7935  1.0874
   68c3c    H18  536   2.574   1.291   2.372  1.3909  1.5095 -1.3715
   69c3c      N  537   2.053   1.452   0.639  0.0599  0.5057 -0.6266
   69c3c     C1  538   2.121   1.356   0.543 -0.1015 -0.4093 -0.4375
   69c3c     C2  539   1.971   1.531   0.548 -0.1111 -0.2506 -0.0881
   69c3c     C3  540   2.003   1.311   0.448 -0.0988  0.3644  0.0444
   69c3c     C4  541   1.910   1.431   0.447 -0.0354 -0.1812  0.3895
   69c3c     C5  542   1.971   1.373   0.731  0.2550  0.3642 -0.6097
   69c3c     C6  543   2.145   1.544   0.716 -0.6237 -0.0839 -0.0884
   69c3c     H1  544   2.162   1.267   0.591  0.1444  0.0067  0.1336
   69c3c     H2  545   2.198   1.411   0.489 -0.8191  1.5370  0.4460
   69c3c     H3  546   1.895   1.593   0.595  0.5832  0.5679 -0.0268
   69c3c     H4  547   2.028   1.606   0.494  0.4067 -0.4143  0.2188
   69c3c     H5  548   1.954   1.218   0.478 -1.3122  0.2682 -2.1560
   69c3c     H6  549   2.041   1.297   0.347  1.9732 -1.3388  1.0191
   69c3c     H7  550   1.809   1.414   0.485 -0.0073 -0.3207  0.3999
   69c3c     H8  551   1.902   1.473   0.346 -0.5225 -0.1298  0.4508
   69c3c     H9  552   2.034   1.309   0.792 -0.7837 -2.5406 -2.4725
   69c3c    H10  553   1.917   1.429   0.807 -0.4960 -0.5146 -0.4843
   69c3c    H11  554   1.901   1.306   0.681  0.6237  0.4385 -1.2255
   69c3c    H12  555   2.095   1.597   0.796 -0.5994  0.3739 -0.3728
   69c3c    H13  556   2.211   1.471   0.764 -1.0349 -0.8028 -0.6099
   69c3c     C7  557   2.252   1.639   0.649  0.4455  0.1383 -0.0844
   69c3c    H14  558   2.202   1.719   0.593 -1.4011  0.9026  2.5818
   69c3c    H15  559   2.317   1.580   0.584  1.4265  0.6962  0.3827
   69c3c     C8  560   2.349   1.710   0.746  0.7066 -0.6187  0.1565
   69c3c    H16  561   2.292   1.777   0.811 -2.2238 -1.9099 -0.9557
   69c3c    H17  562   2.428   1.750   0.683 -0.4036  0.5068 -0.5416
   69c3c    H18  563   2.393   1.632   0.809  1.2451  0.5592  1.2681
   70c3c      N  564   1.662   0.044   1.888  0.0675  0.1356 -0.2555
   70c3c     C1  565   1.622   0.154   1.796 -0.0568  0.6726 -0.2926
   70c3c     C2  566   1.560   0.060   1.988 -0.0178 -0.1922 -0.1660
   70c3c     C3  567   1.472   0.164   1.784 -0.4684  0.4438 -0.6064
   70c3c     C4  568   1.430   0.105   1.919  0.1674  0.1468 -0.3278
   70c3c     C5  569   1.641  -0.079   1.812  0.5554 -0.2622  0.3162
   70c3c     C6  570   1.799   0.042   1.942 -0.5356 -0.2064  0.6632
   70c3c     H1  571   1.669   0.137   1.700 -0.3700  2.4575 -0.7836
   70c3c     H2  572   1.658   0.247   1.841 -0.4563 -0.7066  3.0262
   70c3c     H3  573   1.540  -0.025   2.053 -0.5500  1.6430  2.1670
   70c3c     H4  574   1.583   0.138   2.061 -1.2752 -0.2275  0.2726
   70c3c     H5  575   1.436   0.099   1.705  1.1523 -0.5274 -0.5726
   70c3c     H6  576   1.440   0.265   1.759  0.4386  1.1229  0.8668
   70c3c     H7  577   1.381   0.014   1.884  3.2179 -0.9136 -2.0953
   70c3c     H8  578   1.367   0.165   1.984 -1.0325  1.3050 -2.4937
   70c3c     H9  579   1.707  -0.072   1.726 -0.4241  1.3831 -0.3157
   70c3c    H10  580   1.672  -0.164   1.873 -0.8148  0.0339  1.4580
   70c3c    H11  581   1.534  -0.091   1.795  0.5894 -1.5827  0.9872
   70c3c    H12  582   1.817  -0.045   2.005  0.9369 -0.1317  0.3513
   70c3c    H13  583   1.862   0.038   1.854 -0.1931  1.1599  0.8332
   70c3c     C7  584   1.846   0.178   2.003  0.3818  0.3532 -0.2797
   70c3c    H14  585   1.782   0.208   2.086 -1.1754  0.3833 -1.4830
   70c3c    H15  586   1.843   0.257   1.928 -1.8470  1.8935  1.3496
   70c3c     C8  587   1.984   0.161   2.058  0.1468 -0.0659 -0.2109
   70c3c    H16  588   1.985   0.105   2.151 -0.2150 -0.6689 -0.5631
   70c3c    H17  589   2.043   0.251   2.077  0.8858 -1.1713  2.9832
   70c3c    H18  590   2.038   0.092   1.993  3.1335  2.5310 -0.5944
   71c3c      N  591   2.619   0.892   0.429 -0.4261 -0.6095  0.1501
   71c3c     C1  592   2.707   0.981   0.351  0.5035 -0.3164 -0.4474
   71c3c     C2  593   2.671   0.756   0.396  0.8333 -0.5168 -0.6974
   71c3c     C3  594   2.843   0.916   0.353 -0.4257  0.5786  0.3272
   71c3c     C4  595   2.821   0.771   0.396 -0.1234  0.2220  0.0892
   71c3c     C5  596   2.639   0.928   0.573 -0.7502  0.2938 -0.4817
   71c3c     C6  597   2.472   0.896   0.395 -0.4327 -0.1040  0.7168
   71c3c     H1  598   2.692   1.079   0.396  0.1950  0.1443 -1.5267
   71c3c     H2  599   2.669   0.977   0.249  3.6279  0.2778 -1.6810
   71c3c     H3  600   2.639   0.676   0.462 -1.1659 -0.7672 -1.9241
   71c3c     H4  601   2.631   0.724   0.299 -1.3776  0.4014 -0.0987
   71c3c     H5  602   2.907   0.972   0.421 -1.4253  0.6285  1.2478
   71c3c     H6  603   2.889   0.915   0.254 -1.9514  0.9950 -0.4125
   71c3c     H7  604   2.874   0.756   0.491  0.2385  2.2985  0.2407
   71c3c     H8  605   2.857   0.707   0.316  0.1106 -0.0899  0.4423
   71c3c     H9  606   2.617   1.031   0.600  0.9366  0.3704  0.6478
   71c3c    H10  607   2.593   0.858   0.643 -1.1495  0.1082 -0.9256
   71c3c    H11  608   2.743   0.905   0.594 -0.6620  1.5619  0.4960
   71c3c    H12  609   2.465   0.853   0.296 -0.0446  2.1804 -0.3387
   71c3c    H13  610   2.406   0.832   0.453 -2.0391 -0.8269 -1.8458
   71c3c     C7  611   2.409   1.034   0.387  0.7670 -0.1201 -0.1029
   71c3c    H14  612   2.475   1.097   0.328 -1.7100  1.0526 -1.6707
   71c3c    H15  613   2.405   1.082   0.485  1.1519 -2.0386  0.8905
   71c3c     C8  614   2.268   1.024   0.317 -0.6027 -0.0406 -0.2659
   71c3c    H16  615   2.277   1.005   0.210  0.1993 -1.5229  0.0556
   71c3c    H17  616   2.209   1.115   0.331 -1.2373 -0.9474  3.3519
   71c3c    H18  617   2.213   0.943   0.364 -0.9975  1.6102  2.1581
   72c3c      N  618   1.592   0.158   1.012  0.0095  0.2722 -0.3111
   72c3c     C1  619   1.498   0.270   0.995 -0.3696  0.0237 -0.1868
   72c3c     C2  620   1.605   0.111   0.871  1.0340  0.2494 -0.1282
   72c3c     C3  621   1.533   0.346   0.867  0.1462  0.7624 -0.1397
   72c3c     C4  622   1.605   0.231   0.783  0.6078  0.3866 -0.0361
   72c3c     C5  623   1.719   0.204   1.067  0.1374  0.5708 -0.8149
   72c3c     C6  624   1.545   0.058   1.106  0.0164 -0.1828  0.2520
   72c3c     H1  625   1.477   0.338   1.077  3.2754  0.5797  0.3447
   72c3c     H2  626   1.398   0.235   0.968 -0.7238 -0.5584  1.8133
   72c3c     H3  627   1.695   0.052   0.860  0.0187 -1.8477  2.3519
   72c3c     H4  628   1.519   0.048   0.850 -1.2047  3.1236  0.0225
   72c3c     H5  629   1.598   0.427   0.900  1.0716 -0.3241  0.7610
   72c3c     H6  630   1.448   0.393   0.817 -0.6467 -1.2021 -0.6626
   72c3c     H7  631   1.705   0.266   0.758 -0.1267  2.2314 -0.5265
   72c3c     H8  632   1.549   0.200   0.695  1.1534  1.9817 -0.9668
   72c3c     H9  633   1.707   0.257   1.161  0.0148  0.0534 -0.5365
   72c3c    H10  634   1.792   0.126   1.089 -1.5221 -0.6848  0.3405
   72c3c    H11  635   1.780   0.266   1.001 -0.0624  1.2613 -0.3527
   72c3c    H12  636   1.605  -0.031   1.126 -2.3574 -2.1939 -1.3226
   72c3c    H13  637   1.552   0.106   1.203  1.6488  0.4064 -0.1424
   72c3c     C7  638   1.393   0.018   1.092 -0.7470 -0.4445 -0.5078
   72c3c    H14  639   1.380  -0.034   0.997 -0.6596 -2.2596  0.4452
   72c3c    H15  640   1.317   0.093   1.111  1.4705  1.6102  0.5051
   72c3c     C8  641   1.363  -0.097   1.196  0.3231 -0.2750  0.7320
   72c3c    H16  642   1.422  -0.187   1.180  0.7402 -0.0672  1.0925
   72c3c    H17  643   1.257  -0.123   1.192  0.7219 -1.8360  0.1295
   72c3c    H18  644   1.373  -0.054   1.296  1.3034  0.7119  0.2205
   73c3c      N  645   0.126   1.907   1.284  0.6814  0.0286  0.6004
   73c3c     C1  646   0.226   1.960   1.379 -0.0302 -0.3217  0.1652
   73c3c     C2  647   0.105   1.766   1.310 -0.1584  0.2663 -1.0761
   73c3c     C3  648   0.203   1.870   1.502 -0.2962  0.6615 -0.0929
   73c3c     C4  649   0.125   1.746   1.465  0.6286 -0.6852  0.6675
   73c3c     C5  650  -0.003   1.976   1.313  0.1294  0.4566 -0.2998
   73c3c     C6  651   0.153   1.943   1.141  0.4702 -1.0845 -0.0096
   73c3c     H1  652   0.216   2.067   1.399  1.7301 -0.2632  0.7860
   73c3c     H2  653   0.325   1.951   1.333 -0.9262 -0.4213 -1.7983
   73c3c     H3  654   0.007   1.728   1.282 -2.1899  2.0767  3.0972
   73c3c     H4  655   0.186   1.712   1.262 -1.1763 -0.0834 -2.4416
   73c3c     H5  656   0.146   1.924   1.578 -1.3360  0.4861 -0.7416
   73c3c     H6  657   0.297   1.843   1.549  0.6089  1.3658 -1.4612
   73c3c     H7  658   0.029   1.736   1.516  0.8887  1.4019  1.6236
   73c3c     H8  659   0.169   1.651   1.492  0.9319  0.0253  2.7422
   73c3c     H9  660   0.007   2.085   1.315  2.2231  0.2628  1.4343
   73c3c    H10  661  -0.072   1.942   1.236  0.7294 -1.4698 -0.0093
   73c3c    H11  662  -0.049   1.956   1.410  1.0011  2.0041  0.4711
   73c3c    H12  663   0.065   1.927   1.079  0.5063 -0.0499 -0.3267
   73c3c    H13  664   0.169   2.051   1.138  0.5923 -1.0743  0.7299
   73c3c     C7  665   0.270   1.878   1.066  0.0716  0.3585  0.3182
   73c3c    H14  666   0.267   1.769   1.071 -2.7650  0.3724 -0.4024
   73c3c    H15  667   0.360   1.901   1.123  1.0787 -0.2963 -1.0149
   73c3c     C8  668   0.285   1.924   0.922 -0.1091  0.6327 -0.7344
   73c3c    H16  669   0.217   1.873   0.854  0.9158  0.1657 -1.4175
   73c3c    H17  670   0.383   1.907   0.878  0.8598  2.6251  0.5464
   73c3c    H18  671   0.261   2.028   0.901  1.2774  0.9214 -0.9205
   74c3c      N  672   0.044   0.191   0.033 -0.2100 -0.3900 -0.0028
   74c3c     C1  673   0.169   0.195   0.114  0.3593  0.7919  0.2033
   74c3c     C2  674   0.075   0.273  -0.087  0.1193 -0.2728 -0.0519
   74c3c     C3  675   0.286   0.210   0.011  0.1093  0.0750  0.0774
   74c3c     C4  676   0.216   0.245  -0.128 -0.2057 -0.0801 -0.5881
   74c3c     C5  677   0.022   0.051  -0.009 -0.0558 -0.2359 -0.1878
   74c3c     C6  678  -0.074   0.238   0.106  0.5153  0.0304  0.4154
   74c3c     H1  679   0.192   0.109   0.176 -0.3162 -0.1899 -0.8988
   74c3c     H2  680   0.176   0.277   0.186  4.8436 -0.4225  1.2896
   74c3c     H3  681   0.002   0.253  -0.166 -0.6886  0.8415  0.4060
   74c3c     H4  682   0.073   0.381  -0.070  1.2247  0.0790 -1.9858
   74c3c     H5  683   0.356   0.127   0.005 -1.3646 -1.2609  0.8046
   74c3c     H6  684   0.351   0.288   0.050 -0.8903  0.9587 -0.0023
   74c3c     H7  685   0.214   0.160  -0.197 -2.3400 -0.5335 -0.0049
   74c3c     H8  686   0.258   0.334  -0.173  1.3180 -0.0816  0.7979
   74c3c     H9  687  -0.002   0.003   0.086  0.9559 -0.6806 -0.1502
   74c3c    H10  688  -0.069   0.034  -0.066  0.3520 -1.1990 -0.5580
   74c3c    H11  689   0.110  -0.003  -0.044  1.0212  1.9788 -0.9691
   74c3c    H12  690  -0.166   0.181   0.091  1.7457 -2.2006  1.1590
   74c3c    H13  691  -0.056   0.216   0.211  0.1464  0.2975  0.5356
   74c3c     C7  692  -0.096   0.390   0.099 -0.2509 -0.3654  0.0186
   74c3c    H14  693  -0.124   0.421  -0.001 -0.4881  1.3191  0.5987
   74c3c    H15  694  -0.002   0.439   0.122  0.7139 -1.7140 -0.9341
   74c3c     C8  695  -0.200   0.449   0.203  0.1349  0.0685  0.2608
   74c3c    H16  696  -0.230   0.552   0.186  1.0950  0.2442 -0.4228
   74c3c    H17  697  -0.136   0.451   0.291 -0.3310 -0.2139  0.6086
   74c3c    H18  698  -0.293   0.392   0.207  0.4755 -0.5068  0.2051
   75c3c      N  699   0.465   0.637   1.296  0.4271  0.2272 -0.1637
   75c3c     C1  700   0.593   0.590   1.248  0.4706  0.0646  0.2185
   75c3c     C2  701   0.493   0.708   1.424  0.0814 -0.7701  0.5823
   75c3c     C3  702   0.685   0.706   1.285  0.8897  0.3269 -0.4846
   75c3c     C4  703   0.621   0.785   1.407  0.2166 -0.1625  0.6264
   75c3c     C5  704   0.399   0.730   1.197 -0.0575 -0.6466 -0.3941
   75c3c     C6  705   0.377   0.518   1.309  0.3001  0.4332  0.6003
   75c3c     H1  706   0.599   0.577   1.140 -0.7916  3.4065 -0.3028
   75c3c     H2  707   0.626   0.500   1.300  1.7081 -0.0168 -0.6989
   75c3c     H3  708   0.408   0.772   1.449 -0.0196  0.0379 -1.7411
   75c3c     H4  709   0.515   0.644   1.509  0.8228  0.1137  1.0650
   75c3c     H5  710   0.708   0.776   1.205  0.0219  0.1115 -0.9230
   75c3c     H6  711   0.780   0.666   1.323  0.8097  0.0750 -0.5474
   75c3c     H7  712   0.608   0.889   1.379 -0.8710 -0.5758 -0.4325
   75c3c     H8  713   0.684   0.765   1.494 -1.8957 -2.6558  1.6520
   75c3c     H9  714   0.359   0.677   1.112 -2.3429  1.2479 -0.5611
   75c3c    H10  715   0.314   0.781   1.242  0.2499 -0.2242 -0.2824
   75c3c    H11  716   0.458   0.810   1.152  2.2253 -0.3715  2.8194
   75c3c    H12  717   0.279   0.558   1.334  0.8032  1.0307  1.6874
   75c3c    H13  718   0.377   0.466   1.213 -2.5758 -0.8588  1.2438
   75c3c     C7  719   0.401   0.417   1.427 -0.7157  0.2320 -0.4895
   75c3c    H14  720   0.378   0.468   1.520  1.3745 -0.2538  0.3179
   75c3c    H15  721   0.507   0.391   1.431 -0.8993 -0.3179  0.8139
   75c3c     C8  722   0.307   0.297   1.407  0.2087  0.1850 -0.2067
   75c3c    H16  723   0.330   0.204   1.459 -2.1859 -2.0128 -2.9318
   75c3c    H17  724   0.294   0.273   1.302  1.6596 -0.5857 -0.2256
   75c3c    H18  725   0.207   0.321   1.443  1.0144  1.2991  1.3679
   76c3c      N  726   1.166   0.398   2.279  0.5757 -0.0445 -0.9036
   76c3c     C1  727   1.125   0.340   2.151 -0.0352 -0.3163 -0.7352
   76c3c     C2  728   1.188   0.541   2.259 -0.2738 -0.4393 -0.8486
   76c3c     C3  729   1.041   0.454   2.089  0.6065  1.0339  0.1590
   76c3c     C4  730   1.086   0.581   2.157 -0.4494  0.0224  0.2836
   76c3c     C5  731   1.056   0.375   2.380 -0.4331 -0.4367  0.0305
   76c3c     C6  732   1.282   0.332   2.341  0.3452 -0.0100  0.0746
   76c3c     H1  733   1.083   0.240   2.163 -0.4951  0.2341  2.6206
   76c3c     H2  734   1.210   0.329   2.083  0.7009  2.6398 -0.3735
   76c3c     H3  735   1.201   0.609   2.343  0.0785 -1.2942 -0.2133
   76c3c     H4  736   1.290   0.546   2.221  0.6259 -4.5180  0.8132
   76c3c     H5  737   0.935   0.432   2.102  0.3459  2.2468  0.1347
   76c3c     H6  738   1.063   0.458   1.982 -1.4097 -1.0175 -0.3591
   76c3c     H7  739   0.997   0.624   2.204  0.0007 -0.1727  1.3206
   76c3c     H8  740   1.125   0.655   2.087  1.1030 -0.2266  0.8677
   76c3c     H9  741   1.022   0.272   2.387 -0.4378 -0.5047 -0.9406
   76c3c    H10  742   1.095   0.419   2.473 -1.3875  1.1146 -0.2813
   76c3c    H11  743   0.973   0.441   2.356 -1.5540 -2.1621 -0.8614
   76c3c    H12  744   1.328   0.378   2.428 -1.7044  0.1976  1.0721
   76c3c    H13  745   1.246   0.234   2.374 -1.6255  0.6470 -0.0662
   76c3c     C7  746   1.386   0.288   2.240  0.1557 -0.2049  0.2566
   76c3c    H14  747   1.390   0.356   2.156  0.0611  0.1551  0.5414
   76c3c    H15  748   1.363   0.191   2.196 -0.3865 -0.3868  0.9316
   76c3c     C8  749   1.525   0.271   2.309  0.0424  0.0396 -0.1776
   76c3c    H16  750   1.557   0.354   2.372  0.6847 -0.9518  0.8306
   76c3c    H17  751   1.603   0.256   2.235 -0.8629  1.9479 -1.5459
   76c3c    H18  752   1.524   0.184   2.375 -0.2756 -0.5137 -0.9091
   77c3c      N  753   0.901   1.120   2.260  0.2088  0.1643  0.7825
   77c3c     C1  754   1.002   1.068   2.351 -0.1718 -0.0663  0.2530
   77c3c     C2  755   0.784   1.150   2.345  0.8763 -0.3805 -0.3976
   77c3c     C3  756   0.987   1.147   2.477 -0.4565 -0.0359 -0.4863
   77c3c     C4  757   0.839   1.167   2.485  0.1587  0.6806  0.3467
   77c3c     C5  758   0.945   1.249   2.207  0.0938 -0.5842  0.1002
   77c3c     C6  759   0.871   1.039   2.135 -0.4360 -0.2317 -0.6422
   77c3c     H1  760   1.098   1.074   2.301 -0.5018 -1.6255 -0.5720
   77c3c     H2  761   0.976   0.967   2.382  1.2330 -1.2033 -2.1194
   77c3c     H3  762   0.728   1.238   2.315  0.6119  0.1044  1.4351
   77c3c     H4  763   0.710   1.070   2.342  0.6846 -0.2232  0.0036
   77c3c     H5  764   1.049   1.236   2.485 -2.0656  1.0298  0.1468
   77c3c     H6  765   1.031   1.094   2.562 -0.9020  2.2194  1.1822
   77c3c     H7  766   0.835   1.269   2.524  1.4112  1.0179 -0.3654
   77c3c     H8  767   0.787   1.093   2.545  1.4943  1.0142  1.9330
   77c3c     H9  768   1.039   1.241   2.154 -1.0758  0.9845 -2.3248
   77c3c    H10  769   0.872   1.304   2.147 -0.2050 -1.7034 -0.5763
   77c3c    H11  770   0.970   1.319   2.287  0.0140 -1.7512  1.1657
   77c3c    H12  771   0.782   1.082   2.091  0.9217  1.0204 -2.2454
   77c3c    H13  772   0.951   1.054   2.063 -0.9538  1.0304 -0.9666
   77c3c     C7  773   0.851   0.888   2.156 -0.1899  0.1971 -0.5445
   77c3c    H14  774   0.780   0.867   2.236  0.0896 -1.0528 -0.6272
   77c3c    H15  775   0.947   0.851   2.193 -1.0176 -1.6694 -0.2214
   77c3c     C8  776   0.812   0.804   2.043 -0.1753 -0.1071 -0.1134
   77c3c    H16  777   0.716   0.829   1.998  0.0223  2.6996  0.8871
   77c3c    H17  778   0.793   0.701   2.071  1.2126  0.2527  2.3336
   77c3c    H18  779   0.889   0.811   1.967 -0.0616 -2.1293 -0.2000
   78c3c      N  780   2.456   0.809   2.644 -0.3261 -0.8339  0.6691
   78c3c     C1  781   2.499   0.824   2.506 -0.3175 -0.1278 -0.0103
   78c3c     C2  782   2.544   0.905   2.714 -0.6917 -0.7965 -0.7987
   78c3c     C3  783   2.535   0.976   2.477  0.0939 -0.8365 -0.6975
   78c3c     C4  784   2.572   1.029   2.614  0.4868  0.3271  0.9254
   78c3c     C5  785   2.316   0.848   2.665 -0.2922 -0.2260 -0.5287
   78c3c     C6  786   2.469   0.673   2.700  0.2445  0.0573  0.4891
   78c3c     H1  787   2.427   0.779   2.438  1.4078 -2.1345 -0.5714
   78c3c     H2  788   2.597   0.782   2.484 -0.2403 -0.7843  1.5553
   78c3c     H3  789   2.505   0.935   2.811 -0.8503 -0.3162 -1.0036
   78c3c     H4  790   2.642   0.867   2.742 -0.6255 -1.2996 -1.6825
   78c3c     H5  791   2.446   1.023   2.437  1.3130  0.4474 -1.9443
   78c3c     H6  792   2.613   0.992   2.403 -0.5056  1.1574 -0.9370
   78c3c     H7  793   2.511   1.118   2.629 -1.3480 -0.4694 -1.5558
   78c3c     H8  794   2.680   1.048   2.614  0.2415  1.8665 -0.4134
   78c3c     H9  795   2.241   0.794   2.608  0.2069 -1.4573 -0.0417
   78c3c    H10  796   2.291   0.840   2.771 -0.9671  0.6762 -0.6153
   78c3c    H11  797   2.294   0.953   2.647  1.9891  0.6568  1.5157
   78c3c    H12  798   2.429   0.675   2.801  1.0415 -1.4917  0.8427
   78c3c    H13  799   2.408   0.607   2.639 -0.5664  1.8809 -0.7367
   78c3c     C7  800   2.605   0.607   2.710  0.1789 -0.2742  0.1201
   78c3c    H14  801   2.662   0.659   2.787  0.2351  1.1244 -0.8437
   78c3c    H15  802   2.649   0.621   2.612  0.4606  3.9610  0.7645
   78c3c     C8  803   2.592   0.456   2.742  0.6639 -0.6604 -0.6152
   78c3c    H16  804   2.534   0.407   2.664  0.1154 -2.3346  0.8333
   78c3c    H17  805   2.552   0.431   2.840 -0.3218  0.9994 -0.5753
   78c3c    H18  806   2.696   0.423   2.739  0.9387 -0.0293  1.3341
   79c3c      N  807   2.197   0.832   1.775 -0.1234  0.2253  0.4135
   79c3c     C1  808   2.229   0.765   1.650 -0.0606 -0.9437  0.4680
   79c3c     C2  809   2.127   0.723   1.846 -0.8309 -0.4804 -0.1946
   79c3c     C3  810   2.251   0.614   1.678 -0.5145 -0.1090  0.2680
   79c3c     C4  811   2.216   0.594   1.826 -0.7516  0.5615  0.2922
   79c3c     C5  812   2.323   0.864   1.841  0.3557  0.7331  0.4535
   79c3c     C6  813   2.115   0.949   1.770  0.2806  0.1198  0.5654
   79c3c     H1  814   2.301   0.822   1.591 -0.2429  0.3482  1.4661
   79c3c     H2  815   2.137   0.773   1.592 -1.5736  0.0116  2.9312
   79c3c     H3  816   2.096   0.744   1.948 -1.4932 -1.4403 -0.1942
   79c3c     H4  817   2.032   0.702   1.796 -1.2431 -1.2234  0.9019
   79c3c     H5  818   2.356   0.589   1.659 -0.6374 -0.4595  0.0399
   79c3c     H6  819   2.187   0.562   1.607 -1.7157  2.0623 -0.2634
   79c3c     H7  820   2.309   0.595   1.883 -0.8960 -1.7355  0.6381
   79c3c     H8  821   2.167   0.497   1.838  1.4199 -0.6174 -0.1979
   79c3c     H9  822   2.370   0.950   1.794  0.7415 -0.2702 -1.0103
   79c3c    H10  823   2.301   0.898   1.942  2.1976  2.8780  0.1651
   79c3c    H11  824   2.402   0.790   1.853  0.1533  0.4260 -0.0918
   79c3c    H12  825   2.090   0.989   1.868  1.3852 -0.1939  0.9768
   79c3c    H13  826   2.180   1.028   1.731  1.3622  0.2009  2.4531
   79c3c     C7  827   1.977   0.948   1.696 -0.1387  0.2557 -0.3076
   79c3c    H14  828   1.907   0.870   1.727 -0.2207  1.3428  2.4503
   79c3c    H15  829   1.990   0.942   1.588 -0.7786  0.6590 -0.4115
   79c3c     C8  830   1.902   1.077   1.721  0.3493 -0.2654 -0.3675
   79c3c    H16  831   1.811   1.062   1.663  0.7813  0.1933 -1.1726
   79c3c    H17  832   1.956   1.162   1.678 -0.3471  0.2464 -0.2393
   79c3c    H18  833   1.875   1.096   1.825 -1.1880  1.4063 -1.0458
   80c3c      N  834   2.767   0.053   1.608  0.1361 -0.3250 -0.3131
   80c3c     C1  835   2.813   0.061   1.746 -0.1222 -0.6344 -0.3364
   80c3c     C2  836   2.884   0.092   1.526  0.2037 -0.0215 -1.0043
   80c3c     C3  837   2.958   0.029   1.749 -0.9159 -0.1520  0.2732
   80c3c     C4  838   3.002   0.043   1.605 -0.1306  0.2867 -0.0383
   80c3c     C5  839   2.733  -0.086   1.579  0.0398 -0.5549 -0.4412
   80c3c     C6  840   2.645   0.128   1.589  0.5424 -0.5139 -0.3276
   80c3c     H1  841   2.762  -0.014   1.807  0.3741 -2.1607 -1.7382
   80c3c     H2  842   2.800   0.161   1.786 -1.6650 -1.3546  1.0066
   80c3c     H3  843   2.873   0.051   1.426 -3.2339 -0.5189 -0.4647
   80c3c     H4  844   2.881   0.200   1.508 -1.2960  0.4196  1.6535
   80c3c     H5  845   2.958  -0.076   1.779  0.4615  0.1548  1.3955
   80c3c     H6  846   3.020   0.092   1.812  1.1874 -0.6991 -1.2116
   80c3c     H7  847   3.046  -0.054   1.582 -2.8525 -0.4921 -2.1469
   80c3c     H8  848   3.085   0.114   1.603  1.2994 -1.3711 -1.1160
   80c3c     H9  849   2.660  -0.135   1.643  0.4251  0.0810  0.4975
   80c3c    H10  850   2.678  -0.101   1.486  2.3487 -1.6900 -1.6786
   80c3c    H11  851   2.809  -0.163   1.594 -1.2371 -1.4422  1.5620
   80c3c    H12  852   2.617   0.128   1.483 -2.8699  1.5579  0.5254
   80c3c    H13  853   2.566   0.083   1.649  2.1986 -0.6831  1.7618
   80c3c     C7  854   2.651   0.289   1.617 -0.3305  0.4950  1.0976
   80c3c    H14  855   2.738   0.330   1.566 -0.1472 -4.2720 -2.8414
   80c3c    H15  856   2.666   0.303   1.724 -0.5211 -1.0587  1.3511
   80c3c     C8  857   2.513   0.348   1.570 -0.2667 -0.6737  0.2632
   80c3c    H16  858   2.496   0.362   1.463  2.6557 -0.3507 -0.1934
   80c3c    H17  859   2.504   0.439   1.629 -0.0250 -1.2488  1.2012
   80c3c    H18  860   2.429   0.291   1.610 -0.7466 -1.3153 -1.5700
   81c3c      N  861   0.265   0.968   2.757  0.1692 -0.2034  0.9039
   81c3c     C1  862   0.259   1.078   2.857  0.7843 -0.1642 -0.3930
   81c3c     C2  863   0.167   1.005   2.645  0.2820  0.2617 -0.2184
   81c3c     C3  864   0.251   1.205   2.765 -0.6940  0.0410 -0.7628
   81c3c     C4  865   0.210   1.154   2.624 -0.0255 -0.4256 -0.5145
   81c3c     C5  866   0.404   0.953   2.706 -0.0094 -0.3469 -0.3953
   81c3c     C6  867   0.223   0.830   2.797 -0.1050 -0.0272  0.3177
   81c3c     H1  868   0.351   1.073   2.914  0.1819  1.2396  0.7391
   81c3c     H2  869   0.175   1.074   2.926  2.3244  0.2802  1.5501
   81c3c     H3  870   0.174   0.946   2.554  0.6188  0.8341 -0.5642
   81c3c     H4  871   0.063   1.003   2.680 -0.0388  0.8558 -1.1233
   81c3c     H5  872   0.350   1.249   2.757 -0.9516  0.8633  0.4290
   81c3c     H6  873   0.191   1.287   2.804  1.5583  0.8994  0.9961
   81c3c     H7  874   0.291   1.154   2.551  1.1401 -0.2340  0.7470
   81c3c     H8  875   0.129   1.223   2.602  0.2447  0.4231  1.0771
   81c3c     H9  876   0.404   0.874   2.631  0.4908 -1.9622  1.2311
   81c3c    H10  877   0.451   1.042   2.667 -1.4892  0.9543  0.7101
   81c3c    H11  878   0.480   0.920   2.778  0.8659  0.0096 -1.1457
   81c3c    H12  879   0.231   0.763   2.711 -1.4043 -0.4950  0.5360
   81c3c    H13  880   0.300   0.787   2.861 -0.7303 -1.5510  0.0771
   81c3c     C7  881   0.083   0.818   2.868 -0.0220 -0.1685 -0.1796
   81c3c    H14  882  -0.002   0.844   2.804 -1.8023 -1.1333  1.6964
   81c3c    H15  883   0.081   0.892   2.948 -0.5547  0.2908 -0.6089
   81c3c     C8  884   0.035   0.675   2.902 -0.4061 -0.1027 -0.4919
   81c3c    H16  885   0.089   0.624   2.981 -1.5577 -0.5984 -0.0066
   81c3c    H17  886   0.048   0.617   2.810 -1.5972  0.2226 -0.8759
   81c3c    H18  887  -0.068   0.660   2.936 -0.4962 -0.0309 -0.7299
   82c3c      N  888   2.948   2.413   2.863  0.0431 -0.1726 -0.0942
   82c3c     C1  889   2.990   2.509   2.970 -0.3077 -0.2754  0.2528
   82c3c     C2  890   2.971   2.490   2.741 -0.1500 -0.2563  0.0224
   82c3c     C3  891   3.115   2.578   2.912 -0.8057 -0.2192 -0.8924
   82c3c     C4  892   3.102   2.567   2.764 -0.0846 -0.4134 -0.1243
   82c3c     C5  893   3.025   2.293   2.871  0.2717  0.0246  0.1270
   82c3c     C6  894   2.808   2.380   2.887 -0.1436  0.5704 -0.2676
   82c3c     H1  895   3.017   2.463   3.065 -1.1003  1.6193  1.4302
   82c3c     H2  896   2.929   2.594   3.002 -0.4008  0.0811 -0.8675
   82c3c     H3  897   2.968   2.425   2.653  0.1373  1.6439 -1.4065
   82c3c     H4  898   2.892   2.564   2.728  0.9964  1.1294  0.9426
   82c3c     H5  899   3.208   2.535   2.948 -1.3133  0.2589  1.0161
   82c3c     H6  900   3.112   2.683   2.942  1.4264 -0.4549  0.2609
   82c3c     H7  901   3.191   2.512   2.736  0.0610 -0.4981  0.4949
   82c3c     H8  902   3.114   2.660   2.708 -0.7535  0.2875  0.8784
   82c3c     H9  903   2.982   2.247   2.960 -0.1485  0.2173  0.0249
   82c3c    H10  904   3.006   2.221   2.791  2.9198 -0.6850  0.0846
   82c3c    H11  905   3.133   2.308   2.879 -0.1738  2.2608  2.6967
   82c3c    H12  906   2.782   2.303   2.814  0.3309  1.7669 -1.7320
   82c3c    H13  907   2.782   2.333   2.981 -0.2095 -0.7496 -0.9331
   82c3c     C7  908   2.700   2.488   2.877 -0.0179 -0.0384 -0.5475
   82c3c    H14  909   2.703   2.528   2.776  1.4025 -2.3501 -1.4449
   82c3c    H15  910   2.718   2.565   2.952  2.3377 -2.0532  1.0188
   82c3c     C8  911   2.560   2.435   2.906 -0.1893 -0.3105 -0.0118
   82c3c    H16  912   2.528   2.346   2.852  1.7379 -0.7851 -0.4042
   82c3c    H17  913   2.483   2.509   2.885  0.1439  0.3452  1.0470
   82c3c    H18  914   2.552   2.417   3.013  0.4190  0.4881  0.1712
   83c3c      N  915   0.911   1.969   0.854  0.5152 -0.1664 -0.0872
   83c3c     C1  916   1.034   2.040   0.896 -0.0812 -0.2151 -0.4491
   83c3c     C2  917   0.820   1.997   0.965 -0.1683 -0.0787 -0.0009
   83c3c     C3  918   0.987   2.163   0.985  0.3338 -0.1062  0.1964
   83c3c     C4  919   0.841   2.141   1.002 -0.5355  0.9399  0.1416
   83c3c     C5  920   0.851   2.030   0.734  0.1420  0.0947 -0.8210
   83c3c     C6  921   0.929   1.827   0.837 -0.3630  0.0218 -0.1759
   83c3c     H1  922   1.096   2.072   0.813  0.2400 -2.2135 -1.0039
   83c3c     H2  923   1.102   1.984   0.960  0.8901  1.2257 -0.2028
   83c3c     H3  924   0.714   1.983   0.949 -0.1892  0.2029 -0.1185
   83c3c     H4  925   0.848   1.942   1.055 -1.6492 -1.3972 -0.3277
   83c3c     H5  926   1.009   2.252   0.925  0.5991  3.2558  4.9620
   83c3c     H6  927   1.029   2.175   1.085 -0.4780 -0.2062  0.5457
   83c3c     H7  928   0.787   2.215   0.942 -1.6701 -0.5595 -0.6991
   83c3c     H8  929   0.811   2.162   1.104  1.7636  1.4759  0.7392
   83c3c     H9  930   0.755   1.982   0.717  0.0463 -0.3365  0.8766
   83c3c    H10  931   0.847   2.138   0.749  0.1789  0.0234 -0.2924
   83c3c    H11  932   0.903   2.017   0.639  2.4216  0.6824  0.3032
   83c3c    H12  933   0.836   1.793   0.793 -0.8402  2.1321 -0.8457
   83c3c    H13  934   0.987   1.806   0.747  0.1825  0.4869  0.0621
   83c3c     C7  935   0.979   1.733   0.952 -0.1802  0.1172  0.4252
   83c3c    H14  936   0.899   1.706   1.022  0.2961 -1.3442  0.4191
   83c3c    H15  937   1.060   1.770   1.015  0.1613 -1.3048  0.8482
   83c3c     C8  938   1.032   1.595   0.889  0.5071  0.4045  0.6649
   83c3c    H16  939   1.034   1.516   0.964 -0.2370  0.0280  0.2978
   83c3c    H17  940   1.123   1.617   0.834  1.4496 -1.1432  1.5592
   83c3c    H18  941   0.959   1.550   0.822  1.2215 -3.0044  2.0602
   84c3c      N  942   0.632   2.593   1.445 -0.2436  0.6067  0.1754
   84c3c     C1  943   0.767   2.657   1.472  1.3026 -0.1506 -0.1051
   84c3c     C2  944   0.622   2.595   1.301 -0.5667  0.4647 -0.6279
   84c3c     C3  945   0.855   2.601   1.359 -0.1136  0.0063 -0.4256
   84c3c     C4  946   0.759   2.549   1.255  0.5935  0.8149 -0.2356
   84c3c     C5  947   0.638   2.456   1.502 -0.1608  0.3213 -0.1353
   84c3c     C6  948   0.526   2.663   1.520  0.1053  0.0721 -0.6027
   84c3c     H1  949   0.804   2.637   1.573 -0.3472  2.4256  1.0569
   84c3c     H2  950   0.773   2.765   1.458  0.3731 -0.1542 -0.5382
   84c3c     H3  951   0.540   2.531   1.269  0.0090  1.1236 -3.5489
   84c3c     H4  952   0.606   2.689   1.248  0.0154  0.5808 -0.5972
   84c3c     H5  953   0.916   2.517   1.391 -2.0765 -0.9215  1.0003
   84c3c     H6  954   0.922   2.683   1.332 -0.9658  0.1423 -2.1900
   84c3c     H7  955   0.754   2.440   1.248  0.7199  0.8508 -0.9328
   84c3c     H8  956   0.786   2.583   1.154  2.0455  0.9648  0.1854
   84c3c     H9  957   0.665   2.455   1.607  0.1378  1.9424 -0.1763
   84c3c    H10  958   0.541   2.406   1.492 -1.1623  1.7780  1.9191
   84c3c    H11  959   0.716   2.393   1.459 -1.2417 -0.1262 -1.4814
   84c3c    H12  960   0.442   2.598   1.545 -0.6517  1.7090  1.2476
   84c3c    H13  961   0.566   2.685   1.619  0.3387  0.8636 -0.8664
   84c3c     C7  962   0.471   2.783   1.459  0.7187 -0.2140  0.8168
   84c3c    H14  963   0.413   2.751   1.373  0.7841 -2.5376  1.5838
   84c3c    H15  964   0.553   2.851   1.437 -0.0681  1.4730  2.8520
   84c3c     C8  965   0.380   2.872   1.549 -0.5349 -0.3115 -0.4159
   84c3c    H16  966   0.435   2.919   1.631  4.1000 -0.7648 -3.1103
   84c3c    H17  967   0.299   2.809   1.587 -1.9038  0.7394 -1.5116
   84c3c    H18  968   0.325   2.946   1.490  0.8764  0.4157 -0.8254
   85c3c      N  969   1.743   2.452   2.997  0.0440 -0.4564  0.1303
   85c3c     C1  970   1.787   2.486   3.131 -0.1658 -0.0904 -0.2112
   85c3c     C2  971   1.743   2.304   2.990 -0.1633 -0.5066  0.1090
   85c3c     C3  972   1.738   2.374   3.216  0.0768  0.1577  0.6752
   85c3c     C4  973   1.697   2.256   3.125  0.5275 -0.1780  0.2658
   85c3c     C5  974   1.606   2.497   2.968  0.6494  0.0287 -0.4829
   85c3c     C6  975   1.831   2.524   2.898  0.3260 -0.5512  0.1222
   85c3c     H1  976   1.743   2.583   3.156 -0.1236  0.1223 -0.9569
   85c3c     H2  977   1.892   2.495   3.160 -0.2251 -0.2835  0.0715
   85c3c     H3  978   1.698   2.266   2.899  0.5563 -0.8907 -0.0941
   85c3c     H4  979   1.843   2.261   2.981  0.2219  0.3730  0.1602
   85c3c     H5  980   1.651   2.417   3.266  0.6440  0.3510  1.5124
   85c3c     H6  981   1.818   2.341   3.282 -0.1575 -0.3635  0.7039
   85c3c     H7  982   1.590   2.257   3.146  0.2344  1.1182 -1.2908
   85c3c     H8  983   1.741   2.161   3.156  1.0011  0.1374  0.5693
   85c3c     H9  984   1.604   2.601   2.999 -0.0268  0.2511 -1.2822
   85c3c    H10  985   1.578   2.488   2.863  0.0046  0.0510 -0.3114
   85c3c    H11  986   1.527   2.442   3.019  0.6237  0.4080 -0.1096
   85c3c    H12  987   1.800   2.515   2.794  1.1125  1.6185 -0.3282
   85c3c    H13  988   1.829   2.632   2.910  2.4700 -0.0513 -3.2583
   85c3c     C7  989   1.976   2.479   2.893 -0.3085 -0.0683 -0.6085
   85c3c    H14  990   1.986   2.372   2.872 -3.9045 -0.1939 -2.1630
   85c3c    H15  991   2.018   2.504   2.990 -1.6188  0.3403 -0.1279
   85c3c     C8  992   2.069   2.562   2.800 -0.4043  0.2762  0.2179
   85c3c    H16  993   2.045   2.562   2.694  0.5714 -2.0959 -0.0215
   85c3c    H17  994   2.173   2.532   2.814 -0.4314  0.6621  1.3064
   85c3c    H18  995   2.063   2.669   2.818  1.5731  0.2478  1.2287
   86c3c      N  996   2.811   1.605   0.555  0.3345 -0.4762  0.1301
   86c3c     C1  997   2.796   1.458   0.521 -0.5837 -0.2546  0.1819
   86c3c     C2  998   2.680   1.637   0.616 -0.6297 -0.0582 -0.0478
   86c3c     C3  999   2.709   1.398   0.628  0.6225 -0.0042 -0.1755
   86c3c     C4 1000   2.644   1.518   0.706 -0.0462 -0.1726 -0.2011
   86c3c     C5 1001   2.919   1.628   0.655 -0.2170  0.3532 -0.2158
   86c3c     C6 1002   2.840   1.689   0.439 -0.1417  0.2092  0.7244
   86c3c     H1 1003   2.893   1.410   0.507  0.1750  1.0161  0.8526
   86c3c     H2 1004   2.741   1.439   0.429  0.0726  0.0417 -0.2839
   86c3c     H3 1005   2.668   1.739   0.651  0.8041  0.5818 -1.3696
   86c3c     H4 1006   2.604   1.622   0.539  0.7884  0.3956 -1.5681
   86c3c     H5 1007   2.768   1.349   0.705  0.9387 -1.0528 -1.0809
   86c3c     H6 1008   2.630   1.335   0.588  0.5494  0.5660 -0.9485
   86c3c     H7 1009   2.682   1.529   0.807  0.6947  0.3774 -0.5321
   86c3c     H8 1010   2.536   1.501   0.698 -0.0657  0.3888 -1.2414
   86c3c     H9 1011   3.011   1.592   0.609  0.3199  2.7282 -1.0560
   86c3c    H10 1012   2.931   1.733   0.682  2.0154 -0.2856  1.3694
   86c3c    H11 1013   2.899   1.581   0.751  0.0057 -1.7359 -1.1628
   86c3c    H12 1014   2.821   1.792   0.469  0.4037  0.7002 -0.5901
   86c3c    H13 1015   2.946   1.681   0.416 -0.4539  0.8252 -1.0236
   86c3c     C7 1016   2.756   1.664   0.309  0.7426 -0.9696 -0.3395
   86c3c    H14 1017   2.647   1.666   0.318  0.5882 -1.4597 -1.9782
   86c3c    H15 1018   2.772   1.565   0.267  0.5289 -1.1434 -0.0154
   86c3c     C8 1019   2.787   1.768   0.207 -0.3117 -0.1514  0.0549
   86c3c    H16 1020   2.769   1.865   0.252 -0.2352 -0.6325  1.1250
   86c3c    H17 1021   2.724   1.767   0.118  0.4189  0.4108 -0.4849
   86c3c    H18 1022   2.891   1.761   0.172 -0.2741 -0.2675  0.1920
   87c3c      N 1023   0.125   1.780   2.480 -0.7575 -0.4117  0.5617
   87c3c     C1 1024   0.065   1.911   2.449  0.0919 -0.4726 -0.1330
   87c3c     C2 1025   0.008   1.696   2.434  0.6234 -0.4289  1.0023
   87c3c     C3 1026   0.004   1.900   2.300  0.0041  0.2649 -0.6914
   87c3c     C4 1027  -0.050   1.755   2.303 -1.2739  0.5921 -0.4734
   87c3c     C5 1028   0.245   1.769   2.394 -0.1474 -1.1152  0.1120
   87c3c     C6 1029   0.168   1.748   2.615 -0.5143  1.0090  0.1527
   87c3c     H1 1030   0.131   1.997   2.463 -0.0643 -0.4263  0.3088
   87c3c     H2 1031  -0.015   1.938   2.518  0.1561 -1.2921  0.2715
   87c3c     H3 1032   0.023   1.589   2.417  1.2591 -0.2420  0.3408
   87c3c     H4 1033  -0.075   1.705   2.503 -2.0852 -0.9951 -2.0444
   87c3c     H5 1034   0.083   1.910   2.226 -1.1329 -1.6362 -2.1998
   87c3c     H6 1035  -0.070   1.975   2.272  0.1955  0.5277 -0.4995
   87c3c     H7 1036  -0.011   1.707   2.213  0.7164 -0.0718  0.7211
   87c3c     H8 1037  -0.159   1.755   2.302 -1.2775  0.7196 -0.0735
   87c3c     H9 1038   0.310   1.856   2.405 -2.1485  0.5662 -1.0898
   87c3c    H10 1039   0.303   1.678   2.409 -1.6607 -1.8500  1.6891
   87c3c    H11 1040   0.231   1.778   2.286  1.9953  0.8514 -0.0481
   87c3c    H12 1041   0.193   1.642   2.614 -1.3106  0.8166  1.2389
   87c3c    H13 1042   0.263   1.794   2.643  1.5653 -3.0461  0.2344
   87c3c     C7 1043   0.065   1.778   2.724 -0.3543  0.5949  0.5863
   87c3c    H14 1044  -0.036   1.749   2.694 -0.9540  2.4041  0.7473
   87c3c    H15 1045   0.056   1.887   2.726  1.6966  0.8484 -1.8796
   87c3c     C8 1046   0.104   1.724   2.864 -0.4949  0.3214 -0.4179
   87c3c    H16 1047   0.116   1.616   2.863  1.3059  0.4497  1.6995
   87c3c    H17 1048   0.045   1.757   2.950 -1.0192 -1.1517 -0.1958
   87c3c    H18 1049   0.207   1.754   2.884 -1.0637  2.0292  0.0563
   88c3c      N 1050   2.087   2.722   2.247 -0.2845 -0.1708  0.0895
   88c3c     C1 1051   2.191   2.814   2.282 -0.4894 -0.1829 -0.8084
   88c3c     C2 1052   2.032   2.678   2.376  0.1364 -0.2877 -0.4352
   88c3c     C3 1053   2.136   2.899   2.398 -0.0053  0.1100  0.6033
   88c3c     C4 1054   2.032   2.805   2.460 -0.0520  0.3538 -0.2746
   88c3c     C5 1055   1.987   2.799   2.170 -0.8208  0.2577 -0.1253
   88c3c     C6 1056   2.142   2.613   2.162  0.2845  0.1995 -0.0734
   88c3c     H1 1057   2.233   2.874   2.202  0.1942  0.2719 -0.1170
   88c3c     H2 1058   2.266   2.753   2.331 -0.1955  2.3776  2.0929
   88c3c     H3 1059   1.942   2.616   2.373 -1.1714  1.5816 -0.7480
   88c3c     H4 1060   2.106   2.617   2.428 -0.5081 -2.7358 -2.2888
   88c3c     H5 1061   2.086   2.989   2.364  2.4811  0.6381 -1.7483
   88c3c     H6 1062   2.212   2.937   2.467  0.2473 -0.0422  0.4109
   88c3c     H7 1063   1.945   2.870   2.453  0.4629  1.0484 -0.3005
   88c3c     H8 1064   2.048   2.781   2.566  1.6330 -2.5599 -1.1327
   88c3c     H9 1065   1.903   2.736   2.140 -0.6945 -0.0274  0.1182
   88c3c    H10 1066   1.961   2.895   2.215  0.8507  0.3346  0.7338
   88c3c    H11 1067   2.017   2.837   2.073  1.7945  1.5711  1.1299
   88c3c    H12 1068   2.063   2.549   2.121 -0.2764 -1.2399  3.1499
   88c3c    H13 1069   2.186   2.653   2.070  1.0852 -3.2328 -1.2697
   88c3c     C7 1070   2.241   2.516   2.230 -0.3846 -0.6732  0.3337
   88c3c    H14 1071   2.180   2.465   2.305  1.4597 -0.2470  2.1925
   88c3c    H15 1072   2.329   2.567   2.271 -0.3646 -0.5543  0.1441
   88c3c     C8 1073   2.297   2.406   2.143  0.5237 -0.0246 -0.0363
   88c3c    H16 1074   2.220   2.334   2.115 -0.6031  1.2175 -0.1798
   88c3c    H17 1075   2.381   2.353   2.187 -1.2408 -0.6250  2.6674
   88c3c    H18 1076   2.322   2.440   2.042  1.0987  0.9207  0.4199
   89c3c      N 1077   0.689   1.738   2.947 -0.3286 -0.3544 -0.6759
   89c3c     C1 1078   0.613   1.837   2.876 -0.0265 -0.3057 -0.5301
   89c3c     C2 1079   0.593   1.642   2.999  0.9211 -0.1247 -0.1130
   89c3c     C3 1080   0.497   1.757   2.816 -0.0079  0.1366 -0.2697
   89c3c     C4 1081   0.490   1.624   2.886 -0.1053  0.6866 -0.6631
   89c3c     C5 1082   0.788   1.670   2.865  0.3593  0.6201 -0.0525
   89c3c     C6 1083   0.768   1.802   3.051 -0.3367 -0.2704 -0.2966
   89c3c     H1 1084   0.671   1.897   2.805  1.2695  0.0179  0.7608
   89c3c     H2 1085   0.567   1.913   2.939  2.9930  0.4608  0.8526
   89c3c     H3 1086   0.638   1.553   3.042 -0.1367 -0.6272 -0.0312
   89c3c     H4 1087   0.541   1.693   3.080 -1.9254  0.5612 -2.2799
   89c3c     H5 1088   0.506   1.754   2.707  0.4329  2.2999 -0.3057
   89c3c     H6 1089   0.403   1.813   2.807 -0.5876 -0.2976  2.7699
   89c3c     H7 1090   0.497   1.543   2.813  0.0955  2.3768 -2.5685
   89c3c     H8 1091   0.391   1.619   2.932 -0.8349 -2.4914 -2.4669
   89c3c     H9 1092   0.857   1.739   2.817  2.1033  1.5084  3.5594
   89c3c    H10 1093   0.866   1.611   2.913  0.3597  0.5618 -0.1231
   89c3c    H11 1094   0.742   1.601   2.794  0.3948 -1.0026  1.4577
   89c3c    H12 1095   0.831   1.727   3.097 -2.0202 -2.8600 -2.0676
   89c3c    H13 1096   0.836   1.876   3.008  0.8182 -1.8314 -1.2084
   89c3c     C7 1097   0.691   1.880   3.163 -0.7862 -0.9578 -0.1533
   89c3c    H14 1098   0.627   1.812   3.220 -1.9921 -1.1531 -1.7023
   89c3c    H15 1099   0.645   1.969   3.122  2.8245  0.4164 -1.4451
   89c3c     C8 1100   0.789   1.929   3.268  0.4658  0.1879 -0.0008
   89c3c    H16 1101   0.845   1.852   3.322  0.7408  0.8550  0.6640
   89c3c    H17 1102   0.734   1.975   3.351  0.6462  0.2859  0.0639
   89c3c    H18 1103   0.861   1.996   3.222  0.3185 -0.3170 -0.9826
   90c3c      N 1104   2.853   1.137   1.973  0.0989 -0.0543  0.1911
   90c3c     C1 1105   2.710   1.176   1.975  0.4191 -0.3382  0.0124
   90c3c     C2 1106   2.841   1.000   1.926 -0.3579  0.2016 -0.2686
   90c3c     C3 1107   2.634   1.111   1.860  0.1726 -0.9063  0.1538
   90c3c     C4 1108   2.728   1.002   1.822  0.3967 -0.0183  0.6280
   90c3c     C5 1109   2.913   1.228   1.874  0.3075 -0.4958  0.0125
   90c3c     C6 1110   2.929   1.150   2.097  0.1759 -0.7267 -0.4543
   90c3c     H1 1111   2.695   1.284   1.979  0.0146 -0.3761 -0.4177
   90c3c     H2 1112   2.655   1.142   2.063 -2.1534  1.1175 -0.9751
   90c3c     H3 1113   2.932   0.956   1.885 -0.5141  0.0179 -0.4230
   90c3c     H4 1114   2.795   0.938   2.003  4.0060 -0.4776  1.9462
   90c3c     H5 1115   2.618   1.179   1.776 -0.3066  0.3408  1.2373
   90c3c     H6 1116   2.536   1.075   1.892  0.0960 -2.2903 -1.5891
   90c3c     H7 1117   2.776   1.023   1.727 -1.9711  0.4829 -0.5001
   90c3c     H8 1118   2.671   0.912   1.800  1.4782 -0.2201 -1.4464
   90c3c     H9 1119   2.898   1.333   1.898 -0.8939 -0.5785 -0.3767
   90c3c    H10 1120   3.021   1.215   1.869  0.3397 -0.0502 -0.4999
   90c3c    H11 1121   2.876   1.212   1.773  2.5602 -1.1965 -0.7439
   90c3c    H12 1122   3.030   1.112   2.083  0.7823  1.2276 -1.5893
   90c3c    H13 1123   2.942   1.255   2.121  0.4451 -0.5427 -1.3873
   90c3c     C7 1124   2.877   1.079   2.225  0.0346  0.6017  0.6131
   90c3c    H14 1125   2.885   0.971   2.217  0.7000  0.6078  1.0779
   90c3c    H15 1126   2.770   1.088   2.244  0.4325  2.1802  2.2686
   90c3c     C8 1127   2.945   1.126   2.357 -0.1584 -0.6464  0.6831
   90c3c    H16 1128   2.939   1.232   2.382  0.6508 -0.3045 -0.5018
   90c3c    H17 1129   3.052   1.107   2.347 -0.3124 -0.7139 -1.0156
   90c3c    H18 1130   2.911   1.069   2.443 -0.5909  0.9184  1.5669
   91c3c      N 1131   1.188   0.874   0.979  0.3396  0.4054 -0.1076
   91c3c     C1 1132   1.135   0.761   0.905 -0.6646 -0.0779  0.8846
   91c3c     C2 1133   1.267   0.804   1.080  0.1573  0.3397  0.3854
   91c3c     C3 1134   1.245   0.652   0.900  0.6610 -0.5300 -0.1102
   91c3c     C4 1135   1.334   0.686   1.019  0.6000  0.0330 -0.2155
   91c3c     C5 1136   1.281   0.960   0.906 -0.0856 -0.2383  0.0025
   91c3c     C6 1137   1.088   0.967   1.032  0.2503 -0.7754  0.6195
   91c3c     H1 1138   1.098   0.799   0.810 -1.5960  1.2725  1.7692
   91c3c     H2 1139   1.043   0.709   0.933 -0.1919 -2.5732 -1.9416
   91c3c     H3 1140   1.333   0.867   1.140  0.9661 -2.2382  2.3100
   91c3c     H4 1141   1.209   0.764   1.163 -1.3570 -0.8907 -1.2349
   91c3c     H5 1142   1.307   0.656   0.810 -1.2704  1.7060 -1.3931
   91c3c     H6 1143   1.195   0.555   0.905  0.9673 -0.6285  1.1531
   91c3c     H7 1144   1.434   0.714   0.987 -0.7311  1.8360 -3.0202
   91c3c     H8 1145   1.335   0.594   1.077  0.0551 -0.0635 -0.3542
   91c3c     H9 1146   1.370   0.906   0.876 -0.7764 -1.2774 -0.2128
   91c3c    H10 1147   1.234   0.991   0.813 -0.2835 -0.8591 -0.1084
   91c3c    H11 1148   1.299   1.047   0.969 -0.3323 -1.2363  1.4934
   91c3c    H12 1149   1.124   1.059   1.079 -0.3741  1.1712 -2.5711
   91c3c    H13 1150   1.033   0.993   0.942  0.8917 -1.3274  0.0586
   91c3c     C7 1151   0.989   0.914   1.138  0.0236 -0.7941  0.6431
   91c3c    H14 1152   1.033   0.880   1.232  0.8948  0.8317  0.8447
   91c3c    H15 1153   0.939   0.830   1.089 -1.7648 -0.6273  2.1417
   91c3c     C8 1154   0.882   1.021   1.197 -0.1693  0.0050 -0.1534
   91c3c    H16 1155   0.804   1.046   1.126 -0.8078 -0.2303  0.4646
   91c3c    H17 1156   0.930   1.117   1.216 -2.5659  1.3619 -0.8303
   91c3c    H18 1157   0.848   0.996   1.298  1.4037  2.8192  1.1289
   92c3c      N 1158   0.201   0.547   1.956  0.0829 -0.5972  0.2405
   92c3c     C1 1159   0.262   0.443   1.870 -0.2130 -0.6346 -0.0318
   92c3c     C2 1160   0.063   0.571   1.898 -0.0011  0.2615  0.3840
   92c3c     C3 1161   0.148   0.344   1.845  0.4779 -0.3376  0.2726
   92c3c     C4 1162   0.020   0.428   1.861  0.8185 -0.3214  0.8046
   92c3c     C5 1163   0.183   0.496   2.095 -0.0465  0.2534  0.5538
   92c3c     C6 1164   0.292   0.667   1.964  0.0016  0.0698  0.3111
   92c3c     H1 1165   0.349   0.389   1.909  1.0914  0.7087 -1.0475
   92c3c     H2 1166   0.294   0.479   1.773  0.7183 -1.8834 -0.2033
   92c3c     H3 1167  -0.010   0.618   1.963 -1.5345 -0.1346 -1.0228
   92c3c     H4 1168   0.057   0.633   1.808 -0.8825 -1.4764 -0.8061
   92c3c     H5 1169   0.149   0.260   1.914  1.0092 -0.7791 -0.2688
   92c3c     H6 1170   0.151   0.299   1.746  1.3597 -1.8027  0.9517
   92c3c     H7 1171  -0.046   0.381   1.934  1.3466 -0.1386  1.4009
   92c3c     H8 1172  -0.038   0.429   1.769  1.8048  1.5284  0.1738
   92c3c     H9 1173   0.133   0.561   2.166  0.7212 -0.4422  1.7575
   92c3c    H10 1174   0.143   0.395   2.105  0.4498 -0.0372 -0.3328
   92c3c    H11 1175   0.287   0.483   2.128 -0.3988  1.5657  2.2512
   92c3c    H12 1176   0.257   0.728   2.048 -2.1261  0.0416 -0.5143
   92c3c    H13 1177   0.390   0.632   1.997  0.2572  1.2349  0.8258
   92c3c     C7 1178   0.316   0.745   1.835  0.1278  0.3783  0.1593
   92c3c    H14 1179   0.214   0.780   1.820  0.2348  1.4145  1.6982
   92c3c    H15 1180   0.348   0.679   1.755  0.8817 -0.3634  1.0548
   92c3c     C8 1181   0.411   0.867   1.837 -0.0006 -0.5986  0.4329
   92c3c    H16 1182   0.404   0.926   1.745 -0.4607 -1.8904 -0.3665
   92c3c    H17 1183   0.518   0.852   1.853  0.5329  2.6278  0.2532
   92c3c    H18 1184   0.380   0.946   1.906 -0.7074 -0.1592 -0.3677
   93c3c      N 1185   2.604   2.076   1.789 -0.2089  0.1565 -0.1487
   93c3c     C1 1186   2.593   1.991   1.664 -0.3399  0.8468 -0.6284
   93c3c     C2 1187   2.524   2.193   1.749  0.2360  0.3842  0.0193
   93c3c     C3 1188   2.461   2.022   1.592  0.3019 -0.3542  0.0620
   93c3c     C4 1189   2.401   2.141   1.669  0.6495  0.0738  0.1525
   93c3c     C5 1190   2.541   2.005   1.900 -0.0647  0.4890  0.1205
   93c3c     C6 1191   2.742   2.110   1.825 -0.4630 -0.3226 -0.5079
   93c3c     H1 1192   2.594   1.884   1.687  0.5876  1.1257  0.7394
   93c3c     H2 1193   2.679   2.008   1.600  0.0932  0.2171 -0.2281
   93c3c     H3 1194   2.489   2.235   1.843 -2.9818  1.4087 -1.5911
   93c3c     H4 1195   2.581   2.271   1.700  1.7566 -0.1795  0.8443
   93c3c     H5 1196   2.385   1.944   1.588  0.7059 -0.8341  1.5009
   93c3c     H6 1197   2.479   2.029   1.485  0.3667 -1.3849  0.0018
   93c3c     H7 1198   2.328   2.119   1.746  0.9675  1.4402  0.8713
   93c3c     H8 1199   2.365   2.229   1.615 -2.2668 -1.0388  0.2108
   93c3c     H9 1200   2.600   1.916   1.922 -1.5326 -1.5596 -3.6729
   93c3c    H10 1201   2.548   2.060   1.994  1.6571  0.6684 -0.0888
   93c3c    H11 1202   2.444   1.964   1.874 -0.9405  2.2188  0.5669
   93c3c    H12 1203   2.743   2.166   1.919  0.1682  0.5801 -1.0443
   93c3c    H13 1204   2.798   2.017   1.826 -0.2148 -0.1969 -2.0013
   93c3c     C7 1205   2.823   2.202   1.724  1.0298  0.4029  0.0347
   93c3c    H14 1206   2.800   2.306   1.747 -1.5426 -0.5452  2.0294
   93c3c    H15 1207   2.804   2.179   1.619 -0.1963  1.6778 -0.0326
   93c3c     C8 1208   2.978   2.191   1.749  0.4483  0.2822 -0.0677
   93c3c    H16 1209   3.025   2.262   1.682 -1.4822 -0.7874 -2.6449
   93c3c    H17 1210   3.018   2.095   1.717 -0.2438 -0.5243  1.4232
   93c3c    H18 1211   3.010   2.215   1.851 -0.1353 -1.5445  0.5599
   94c3c      N 1212   1.864   0.328   0.429  0.3887  0.0087  0.1400
   94c3c     C1 1213   1.925   0.260   0.314 -0.3270 -0.1445  0.4048
   94c3c     C2 1214   1.894   0.470   0.405 -0.1695  1.0820 -0.3916
   94c3c     C3 1215   1.900   0.352   0.193  0.1102 -0.2834 -0.1208
   94c3c     C4 1216   1.886   0.487   0.250 -0.5124  0.5676  1.2500
   94c3c     C5 1217   1.715   0.299   0.425 -0.2355 -0.4164 -0.4732
   94c3c     C6 1218   1.913   0.283   0.561 -0.5753 -0.9505 -0.5922
   94c3c     H1 1219   1.881   0.162   0.300 -0.1735 -0.0653 -0.6522
   94c3c     H2 1220   2.033   0.243   0.314 -0.3131 -0.1964  3.1395
   94c3c     H3 1221   1.829   0.532   0.467 -0.3822  0.4649  0.0066
   94c3c     H4 1222   1.996   0.487   0.439 -1.1778  1.9137  2.3425
   94c3c     H5 1223   1.812   0.331   0.132  1.6104 -0.6592 -2.1871
   94c3c     H6 1224   1.988   0.342   0.130  0.8170  1.5601  0.5534
   94c3c     H7 1225   1.806   0.550   0.210  1.0986  1.4586 -0.6761
   94c3c     H8 1226   1.974   0.534   0.205  0.2750 -1.7620  0.2753
   94c3c     H9 1227   1.691   0.196   0.452 -3.7592  0.3564 -0.3213
   94c3c    H10 1228   1.672   0.365   0.500 -0.9115  0.5205 -1.6483
   94c3c    H11 1229   1.662   0.322   0.332 -1.5957  1.5148  0.7353
   94c3c    H12 1230   1.881   0.354   0.638  0.6965  1.5038 -2.2567
   94c3c    H13 1231   1.875   0.185   0.590  2.2773 -1.7445  0.5929
   94c3c     C7 1232   2.066   0.258   0.567  0.0802  0.0155 -0.5558
   94c3c    H14 1233   2.122   0.337   0.518  1.1840 -1.0516 -1.0514
   94c3c    H15 1234   2.077   0.170   0.503  2.4016 -1.0104  1.1930
   94c3c     C8 1235   2.122   0.224   0.703 -0.4161  0.5214 -0.1330
   94c3c    H16 1236   2.226   0.189   0.700 -1.3695 -2.4841  0.0565
   94c3c    H17 1237   2.066   0.140   0.744  0.2592 -0.0660 -0.3983
   94c3c    H18 1238   2.112   0.311   0.769 -0.3953 -0.4944  1.2482
   95c3c      N 1239   1.693   1.825   2.351 -0.0455  0.3982  0.5501
   95c3c     C1 1240   1.665   1.922   2.242 -0.0923 -0.3510 -0.0154
   95c3c     C2 1241   1.639   1.693   2.317  0.4561 -0.3031  0.2114
   95c3c     C3 1242   1.675   1.828   2.116 -0.3670 -0.1916  0.7666
   95c3c     C4 1243   1.647   1.686   2.163  0.2577 -0.1930 -0.0596
   95c3c     C5 1244   1.842   1.807   2.364  0.1355  0.1206 -0.4256
   95c3c     C6 1245   1.655   1.869   2.483 -0.1822 -0.0914  0.8805
   95c3c     H1 1246   1.736   2.003   2.230  0.6383 -1.1049 -0.8199
   95c3c     H2 1247   1.563   1.959   2.249  0.2119  0.6347 -0.8549
   95c3c     H3 1248   1.683   1.608   2.370  0.5334 -0.6178 -0.3606
   95c3c     H4 1249   1.532   1.682   2.334  0.1543  0.3561 -1.1595
   95c3c     H5 1250   1.765   1.842   2.056  0.8753 -0.0686  2.6142
   95c3c     H6 1251   1.589   1.857   2.056  0.0860 -1.4637 -0.5148
   95c3c     H7 1252   1.736   1.632   2.133  1.8540  0.3038  3.4866
   95c3c     H8 1253   1.565   1.630   2.119 -0.9429  0.0154  1.8376
   95c3c     H9 1254   1.855   1.730   2.441 -4.1549  1.4906  1.8478
   95c3c    H10 1255   1.900   1.789   2.274  1.2118  1.8680 -0.0950
   95c3c    H11 1256   1.889   1.896   2.406  0.5040  1.1749 -3.0161
   95c3c    H12 1257   1.695   1.797   2.555 -0.6081 -1.0964  0.1315
   95c3c    H13 1258   1.711   1.959   2.509  2.0825 -0.4948 -2.2344
   95c3c     C7 1259   1.501   1.891   2.507 -0.6601 -0.6151 -0.1839
   95c3c    H14 1260   1.441   1.800   2.503  0.0600 -1.1451  0.6911
   95c3c    H15 1261   1.457   1.954   2.431  0.8796 -0.1154 -0.6798
   95c3c     C8 1262   1.472   1.966   2.640 -0.3355  0.8375 -0.0413
   95c3c    H16 1263   1.369   1.989   2.665 -0.2027  0.2518  1.0899
   95c3c    H17 1264   1.536   2.055   2.648 -0.4632  1.0744 -1.5139
   95c3c    H18 1265   1.507   1.904   2.723  0.9161  1.5016 -0.0489
   96c3c      N 1266   0.349   2.961   2.337 -0.5505  0.6228 -0.1822
   96c3c     C1 1267   0.216   2.987   2.381  0.4479  0.8658 -0.2967
   96c3c     C2 1268   0.411   3.098   2.346 -0.2839 -0.2690 -0.2438
   96c3c     C3 1269   0.222   3.081   2.501  0.1170 -0.5630 -0.5373
   96c3c     C4 1270   0.346   3.163   2.468  0.9206  0.5209 -0.4600
   96c3c     C5 1271   0.419   2.867   2.425 -0.2387  0.0759 -0.0331
   96c3c     C6 1272   0.354   2.904   2.201  0.1183 -0.6229 -0.1781
   96c3c     H1 1273   0.168   2.895   2.414  4.3137 -1.9571 -2.1739
   96c3c     H2 1274   0.150   3.035   2.309 -0.3970 -0.0563 -0.1408
   96c3c     H3 1275   0.518   3.080   2.358 -0.4267  0.2102  2.1450
   96c3c     H4 1276   0.391   3.156   2.256  1.0404  0.2287 -0.2280
   96c3c     H5 1277   0.244   3.026   2.593 -2.5939 -1.5856 -0.4636
   96c3c     H6 1278   0.134   3.144   2.514 -0.8568 -2.3920  2.2154
   96c3c     H7 1279   0.413   3.155   2.553  0.4373  1.3800  0.0055
   96c3c     H8 1280   0.323   3.266   2.443  0.8704  0.5010 -0.4956
   96c3c     H9 1281   0.437   2.897   2.528 -1.2333 -1.7309  0.6966
   96c3c    H10 1282   0.394   2.761   2.434 -2.2660  0.4704 -0.6795
   96c3c    H11 1283   0.515   2.859   2.374 -0.4499  0.7242 -0.5430
   96c3c    H12 1284   0.456   2.898   2.162 -0.1676 -2.4836 -0.7092
   96c3c    H13 1285   0.324   2.801   2.220 -1.5317  0.3481  2.6971
   96c3c     C7 1286   0.252   2.961   2.094  0.2538  0.7839  1.1627
   96c3c    H14 1287   0.252   3.070   2.097  0.2059  0.7668  2.0116
   96c3c    H15 1288   0.150   2.940   2.126 -0.3087  0.6931 -0.6260
   96c3c     C8 1289   0.283   2.923   1.952 -0.3228  0.4126 -0.0253
   96c3c    H16 1290   0.207   2.957   1.882  1.6035  0.0468 -2.3843
   96c3c    H17 1291   0.291   2.819   1.922  1.1898  1.0983 -2.1671
   96c3c    H18 1292   0.379   2.964   1.920  1.6485 -2.5308  1.9532
   97c3c      N 1293   0.770   1.615   1.412  0.2879  0.4113  0.7882
   97c3c     C1 1294   0.899   1.573   1.359  0.1932 -0.0334 -0.1868
   97c3c     C2 1295   0.714   1.501   1.486 -0.5813 -0.2061 -0.4685
   97c3c     C3 1296   0.880   1.427   1.327  0.6794  0.4172 -0.2741
   97c3c     C4 1297   0.759   1.380   1.401 -0.2623  0.2494  0.2134
   97c3c     C5 1298   0.796   1.730   1.504  0.3540  0.2534 -0.3208
   97c3c     C6 1299   0.686   1.677   1.307  0.2927  0.0610  0.4654
   97c3c     H1 1300   0.978   1.578   1.434 -1.1830 -0.2528  1.3092
   97c3c     H2 1301   0.943   1.644   1.289  0.6584  0.2910  0.4252
   97c3c     H3 1302   0.764   1.516   1.582 -0.4900 -0.2777 -0.5038
   97c3c     H4 1303   0.608   1.499   1.509 -0.8641  1.4081 -1.5469
   97c3c     H5 1304   0.967   1.383   1.375  0.2569  2.9501  2.9850
   97c3c     H6 1305   0.875   1.398   1.221 -2.8465  0.8905 -0.2996
   97c3c     H7 1306   0.782   1.302   1.474  0.0691  1.4709  1.4630
   97c3c     H8 1307   0.686   1.336   1.335  0.0548 -0.6558  0.4618
   97c3c     H9 1308   0.833   1.824   1.463 -2.9252  1.5145 -0.5759
   97c3c    H10 1309   0.712   1.764   1.564 -1.1472 -0.8472 -1.7357
   97c3c    H11 1310   0.875   1.707   1.576 -1.9528  0.4178  2.3481
   97c3c    H12 1311   0.593   1.723   1.340  0.8591  1.1706  0.5298
   97c3c    H13 1312   0.739   1.764   1.268  2.7955 -2.3673 -1.7288
   97c3c     C7 1313   0.646   1.593   1.186  0.1666  0.7249 -0.5004
   97c3c    H14 1314   0.589   1.502   1.206 -0.6879  1.5264  0.7821
   97c3c    H15 1315   0.737   1.565   1.134  0.6038 -1.3883  1.3334
   97c3c     C8 1316   0.553   1.665   1.081 -0.2524 -0.1277  0.4407
   97c3c    H16 1317   0.451   1.675   1.117 -1.6849 -0.9407 -3.1325
   97c3c    H17 1318   0.553   1.605   0.990  1.6430  1.7823 -0.8722
   97c3c    H18 1319   0.583   1.767   1.055 -0.4231 -0.0036  0.7318
   98c3c      N 1320   0.952   1.375   0.448 -0.4610 -0.2790 -0.0018
   98c3c     C1 1321   0.812   1.409   0.462  0.6752 -0.2167 -0.1307
   98c3c     C2 1322   0.975   1.343   0.304  0.0100  0.0274 -0.6085
   98c3c     C3 1323   0.770   1.476   0.333  0.1467  0.1408 -0.4348
   98c3c     C4 1324   0.858   1.404   0.233 -0.1297 -0.5028 -0.4939
   98c3c     C5 1325   1.033   1.492   0.474  0.0885  0.1060  0.0830
   98c3c     C6 1326   1.006   1.273   0.538  0.6593 -0.1116  0.0591
   98c3c     H1 1327   0.797   1.464   0.556 -1.0744  0.1269 -0.5914
   98c3c     H2 1328   0.741   1.331   0.490  1.7348 -1.2597 -0.3578
   98c3c     H3 1329   1.072   1.378   0.268  0.6098 -0.3853  0.5479
   98c3c     H4 1330   0.981   1.236   0.289 -1.9109 -0.2062  0.1375
   98c3c     H5 1331   0.787   1.584   0.329  1.5166 -0.0901 -1.2872
   98c3c     H6 1332   0.664   1.465   0.313 -0.0085  1.1972 -0.2018
   98c3c     H7 1333   0.896   1.481   0.166 -0.1350  0.9298  1.1132
   98c3c     H8 1334   0.802   1.330   0.178 -0.1952 -0.4788 -0.4596
   98c3c     H9 1335   1.030   1.522   0.578 -0.9006  0.5274 -0.0641
   98c3c    H10 1336   1.141   1.477   0.461 -0.0414 -2.0373  1.3221
   98c3c    H11 1337   1.000   1.584   0.425  1.8014  2.5476  3.3223
   98c3c    H12 1338   1.115   1.273   0.529  0.6080 -0.2575 -0.6250
   98c3c    H13 1339   0.981   1.301   0.640 -0.4013 -1.4876  0.2003
   98c3c     C7 1340   0.944   1.128   0.532  0.7653  0.2610 -0.1706
   98c3c    H14 1341   0.951   1.086   0.432 -1.2319 -1.9286  0.5760
   98c3c    H15 1342   0.836   1.135   0.544  0.6684 -1.5132 -0.0007
   98c3c     C8 1343   1.002   1.026   0.631 -0.3991  0.2574 -0.1702
   98c3c    H16 1344   1.107   1.004   0.610 -0.0463 -0.4779  2.2332
   98c3c    H17 1345   0.959   0.926   0.625 -0.9512  0.5231 -0.6563
   98c3c    H18 1346   0.991   1.066   0.731  1.5253  2.4823 -0.8018
   99c3c      N 1347   1.902   0.437   2.544  0.3525 -0.2381  0.4915
   99c3c     C1 1348   2.023   0.450   2.464 -0.4018  0.5991  0.2555
   99c3c     C2 1349   1.805   0.526   2.480  0.5651  0.2593  0.6354
   99c3c     C3 1350   1.969   0.464   2.322 -0.5311  0.8257  0.0302
   99c3c     C4 1351   1.825   0.512   2.327  0.0008  0.1229  0.1976
   99c3c     C5 1352   1.852   0.298   2.533  0.0693  0.6317 -0.8815
   99c3c     C6 1353   1.903   0.480   2.684 -0.2126  0.3166 -0.3068
   99c3c     H1 1354   2.095   0.371   2.485  2.9440  4.0851  2.4353
   99c3c     H2 1355   2.074   0.541   2.496 -1.6391  0.9302  1.3383
   99c3c     H3 1356   1.699   0.507   2.498  0.2733  1.1726 -0.0927
   99c3c     H4 1357   1.826   0.633   2.484  0.2498  0.3965 -1.1170
   99c3c     H5 1358   1.980   0.368   2.270  0.7942  0.5391  0.7906
   99c3c     H6 1359   2.015   0.536   2.255  2.4667 -1.1266 -0.1315
   99c3c     H7 1360   1.759   0.444   2.272  0.2616 -1.5116  1.8685
   99c3c     H8 1361   1.810   0.611   2.283  0.2490 -0.3820 -1.0322
   99c3c     H9 1362   1.918   0.230   2.587 -1.1958  1.0593  1.2673
   99c3c    H10 1363   1.758   0.280   2.586  0.7435  0.2518  0.2140
   99c3c    H11 1364   1.852   0.246   2.437  2.2489 -0.6639 -0.2139
   99c3c    H12 1365   1.801   0.472   2.723  0.4636  2.3599  1.9734
   99c3c    H13 1366   1.954   0.401   2.739 -2.9715 -0.9709  0.4787
   99c3c     C7 1367   1.969   0.616   2.721  0.1186 -0.3648 -0.9106
   99c3c    H14 1368   1.918   0.699   2.672 -1.8098 -0.6126  0.6542
   99c3c    H15 1369   2.073   0.621   2.686  0.9599  2.5890  1.8095
   99c3c     C8 1370   1.964   0.640   2.871  0.2704 -0.1597 -0.5449
   99c3c    H16 1371   1.983   0.745   2.894 -0.4262 -0.4358  1.3603
   99c3c    H17 1372   2.034   0.581   2.931  0.6497 -2.3439 -3.0122
   99c3c    H18 1373   1.863   0.624   2.909  0.3888  0.0467 -0.1404
  100c3c      N 1374   1.004   0.243   0.082 -0.2506 -0.4553  0.0015
  100c3c     C1 1375   0.977   0.242   0.229 -0.2263 -0.3686 -0.0753
  100c3c     C2 1376   1.149   0.220   0.071 -0.2821  0.7754  0.1787
  100c3c     C3 1377   1.071   0.133   0.285  0.1516  0.5947 -0.2641
  100c3c     C4 1378   1.182   0.106   0.175  0.1669 -0.1109 -0.2716
  100c3c     C5 1379   0.931   0.131   0.018  0.0031 -0.0681  0.6176
  100c3c     C6 1380   0.959   0.367   0.017  0.7141 -0.4088  0.3413
  100c3c     H1 1381   0.873   0.224   0.256 -0.9738  1.0189 -1.9081
  100c3c     H2 1382   1.007   0.332   0.283 -1.3504 -0.2882  0.4377
  100c3c     H3 1383   1.185   0.194  -0.028 -0.6896 -1.3897  0.5626
  100c3c     H4 1384   1.206   0.308   0.098 -1.5352  2.1090 -1.4472
  100c3c     H5 1385   1.021   0.040   0.313 -0.9141  0.9715 -0.8685
  100c3c     H6 1386   1.120   0.161   0.378 -0.2363  0.2819  0.0389
  100c3c     H7 1387   1.175   0.007   0.131 -0.2576 -1.0170  1.7437
  100c3c     H8 1388   1.285   0.106   0.210 -0.3424  0.0973  1.2989
  100c3c     H9 1389   0.824   0.152   0.012 -0.2163 -1.2477  0.2149
  100c3c    H10 1390   0.950   0.116  -0.088  0.2693  0.9099  0.5200
  100c3c    H11 1391   0.958   0.034   0.059 -0.6111 -0.3473  0.3601
  100c3c    H12 1392   0.979   0.347  -0.088 -1.1356 -0.1051 -0.0854
  100c3c    H13 1393   0.851   0.369   0.034  0.7322  0.7358  0.3422
  100c3c     C7 1394   1.034   0.499   0.065 -0.2117  0.0257 -0.1466
  100c3c    H14 1395   1.135   0.510   0.027 -1.2689 -0.5038 -3.1802
  100c3c    H15 1396   1.026   0.513   0.173  0.0414  1.0969 -0.2553
  100c3c     C8 1397   0.961   0.630   0.021  0.0167  0.5657 -0.2014
  100c3c    H16 1398   1.010   0.723   0.050  1.2480 -0.6765  1.8558
  100c3c    H17 1399   0.866   0.622   0.073  0.9859 -1.3562  1.3891
  100c3c    H18 1400   0.943   0.627  -0.086 -1.2968 -0.0628  0.0274
  101fsi     F1 1401   0.943   0.714   1.524 -0.1967  0.0955  0.3824
  101fsi     S1 1402   0.978   0.666   1.670  0.2017  0.5315 -0.0868
  101fsi      N 1403   0.836   0.661   1.735 -0.0795  0.4219  0.1200
  101fsi     O1 1404   1.053   0.543   1.649 -0.1397 -0.7806 -0.3794
  101fsi     O2 1405   1.055   0.768   1.729 -0.0640  0.3838  0.4851
  101fsi     S2 1406   0.738   0.540   1.735  0.1955  0.1554 -0.2226
  101fsi     O3 1407   0.775   0.448   1.636 -0.1514  0.4459 -1.0008
  101fsi     O4 1408   0.598   0.580   1.738 -0.2667 -0.0231 -0.2441
  101fsi     F2 1409   0.764   0.471   1.881  0.3277  0.3481 -0.1864
  102fsi     F1 1410   2.282   2.766   1.341 -0.2569 -0.1333  0.1546
  102fsi     S1 1411   2.404   2.814   1.433  0.2368 -0.4375 -0.1683
  102fsi      N 1412   2.467   2.928   1.346 -0.6640 -0.3274  0.5085
  102fsi     O1 1413   2.340   2.871   1.552 -0.6307 -0.0933  0.2712
  102fsi     O2 1414   2.478   2.695   1.439 -0.7170 -0.2839  0.5987
  102fsi     S2 1415   2.564   2.912   1.222  0.2354  0.2878 -0.0179
  102fsi     O3 1416   2.686   2.838   1.250  0.5260  0.6723  0.3927
  102fsi     O4 1417   2.581   3.036   1.153 -0.2885 -0.0676  0.4057
  102fsi     F2 1418   2.479   2.826   1.129 -0.3851  0.0154  0.4987
  103fsi     F1 1419   2.267   1.267   1.793  0.1167  0.4444  0.7112
  103fsi     S1 1420   2.331   1.365   1.902  0.1930  0.3021 -0.1067
  103fsi      N 1421   2.261   1.499   1.889  0.2289  0.0867  0.8246
  103fsi     O1 1422   2.288   1.308   2.026  0.2065  0.5190 -0.6089
  103fsi     O2 1423   2.472   1.369   1.880  0.1948  0.6630  0.4166
  103fsi     S2 1424   2.302   1.634   1.814 -0.2952 -0.1698 -0.7428
  103fsi     O3 1425   2.191   1.719   1.774 -0.4973  0.0636  0.0453
  103fsi     O4 1426   2.414   1.630   1.723  0.7319 -0.4030 -0.7185
  103fsi     F2 1427   2.363   1.718   1.928 -0.0747  0.3721 -0.0780
  104fsi     F1 1428   2.023   0.957   0.561 -0.4657 -0.7479  0.7985
  104fsi     S1 1429   1.961   0.947   0.704  0.7196  0.5932 -0.0947
  104fsi      N 1430   1.806   0.974   0.685 -0.4021 -0.7004 -0.1189
  104fsi     O1 1431   1.991   0.812   0.740 -0.1144 -0.1843  1.0231
  104fsi     O2 1432   2.040   1.041   0.782  0.1602 -0.7994  0.5097
  104fsi     S2 1433   1.683   0.877   0.684  0.2119  0.2018  0.0629
  104fsi     O3 1434   1.694   0.770   0.589 -0.6221  0.0079  0.1497
  104fsi     O4 1435   1.557   0.945   0.687  0.0673 -0.0402  0.1415
  104fsi     F2 1436   1.684   0.804   0.823  0.1821 -0.2310  0.1680
  105fsi     F1 1437   2.948   1.470   2.696 -0.2667 -0.6174 -0.3410
  105fsi     S1 1438   2.794   1.437   2.690 -0.4038  0.6292 -0.2413
  105fsi      N 1439   2.725   1.583   2.705 -0.1987  0.0951  0.4209
  105fsi     O1 1440   2.768   1.389   2.557 -0.0924  0.3012 -0.4308
  105fsi     O2 1441   2.768   1.347   2.797  0.1231 -0.7122 -0.2351
  105fsi     S2 1442   2.666   1.645   2.833  0.4245 -0.3866  0.1283
  105fsi     O3 1443   2.692   1.568   2.955  0.9628 -0.0036  0.6396
  105fsi     O4 1444   2.538   1.707   2.813 -0.3640  0.3056 -0.6584
  105fsi     F2 1445   2.758   1.766   2.848  0.1035  0.7476  0.1444
  106fsi     F1 1446   1.540   0.645   2.775 -0.0015  0.1790 -0.0494
  106fsi     S1 1447   1.551   0.789   2.716 -0.0619  0.2059 -0.1369
  106fsi      N 1448   1.405   0.813   2.662  0.5420 -0.4860  0.5731
  106fsi     O1 1449   1.590   0.872   2.826  0.1202 -0.3485  0.4025
  106fsi     O2 1450   1.650   0.772   2.608  0.0946 -0.1572  0.2238
  106fsi     S2 1451   1.347   0.862   2.532 -0.0264 -0.0998 -0.2057
  106fsi     O3 1452   1.414   0.818   2.411 -0.2520 -0.1623  0.4932
  106fsi     O4 1453   1.304   0.998   2.543  0.6093  0.4860 -0.1502
  106fsi     F2 1454   1.215   0.783   2.533 -0.4353  0.0200 -0.3077
  107fsi     F1 1455   1.147   1.995   0.582 -0.1971 -0.2458  0.2815
  107fsi     S1 1456   1.161   1.858   0.506  0.1333  0.2182 -0.0720
  107fsi      N 1457   1.224   1.894   0.370 -0.2692  0.3396  0.8281
  107fsi     O1 1458   1.248   1.786   0.590  0.1043 -0.1415  0.4040
  107fsi     O2 1459   1.027   1.811   0.497  0.0328 -0.1234 -0.0294
  107fsi     S2 1460   1.202   1.838   0.224 -0.2988  0.2052 -0.0376
  107fsi     O3 1461   1.091   1.744   0.220  0.4808 -0.3046  0.3579
  107fsi     O4 1462   1.316   1.805   0.146 -0.4439 -1.0138  0.4337
  107fsi     F2 1463   1.142   1.959   0.147 -0.3699  0.4881  0.3132
  108fsi     F1 1464   0.890   0.020   2.547 -0.0312 -0.2614  0.0653
  108fsi     S1 1465   0.770  -0.016   2.626  0.2255 -0.3422  0.3438
  108fsi      N 1466   0.671   0.105   2.615  0.2788  0.3592  0.4503
  108fsi     O1 1467   0.713  -0.133   2.554  0.7486  0.1505 -0.2786
  108fsi     O2 1468   0.813  -0.046   2.764 -0.3601  0.8766 -0.1787
  108fsi     S2 1469   0.678   0.243   2.687 -0.0740 -0.0446 -0.0823
  108fsi     O3 1470   0.617   0.345   2.608  0.3706 -0.6428  0.2427
  108fsi     O4 1471   0.796   0.268   2.757 -0.6294  0.2761  0.3126
  108fsi     F2 1472   0.576   0.227   2.798 -0.2138  0.3089  0.0658
  109fsi     F1 1473   2.212   2.494   0.688 -0.6007  0.8363 -0.4445
  109fsi     S1 1474   2.176   2.341   0.696 -0.2053  0.2557 -0.1464
  109fsi      N 1475   2.282   2.282   0.592  0.3643  0.2801 -0.1396
  109fsi     O1 1476   2.194   2.311   0.833 -0.7518  0.0592  0.1321
  109fsi     O2 1477   2.041   2.342   0.649 -0.2800  0.1263 -0.5720
  109fsi     S2 1478   2.389   2.179   0.607  0.3326  0.1506 -0.2481
  109fsi     O3 1479   2.458   2.185   0.738  0.0082 -0.7479  0.3675
  109fsi     O4 1480   2.469   2.178   0.491 -0.2338 -0.1819 -0.2182
  109fsi     F2 1481   2.308   2.043   0.606  0.1688 -0.7437  0.1692
  110fsi     F1 1482   2.117   2.068   1.555  0.2431 -0.3633  0.0805
  110fsi     S1 1483   1.995   1.984   1.514 -0.4515 -0.2041 -0.4404
  110fsi      N 1484   1.882   2.091   1.549  0.3601  0.1622  0.6345
  110fsi     O1 1485   2.012   1.960   1.376 -0.2801 -0.5312 -0.4007
  110fsi     O2 1486   1.998   1.872   1.603  0.1859 -0.1144 -0.1844
  110fsi     S2 1487   1.793   2.191   1.463 -0.1261 -0.2241  0.1440
  110fsi     O3 1488   1.826   2.195   1.321  0.1043  0.2456 -0.5318
  110fsi     O4 1489   1.762   2.316   1.524 -0.4200 -0.3647  0.5975
  110fsi     F2 1490   1.651   2.115   1.466 -0.2774  0.4927 -0.0307
  111fsi     F1 1491   2.220   0.113   1.210  0.2943 -0.2946 -0.1348
  111fsi     S1 1492   2.207   0.213   1.075 -0.2528  0.5110  0.0030
  111fsi      N 1493   2.215   0.361   1.146  0.1551  0.0517  0.0057
  111fsi     O1 1494   2.326   0.173   1.001  0.6920  0.5635  0.1691
  111fsi     O2 1495   2.080   0.178   1.018  0.5931 -0.2747  0.4155
  111fsi     S2 1496   2.349   0.433   1.199 -0.2921  0.0891 -0.1095
  111fsi     O3 1497   2.469   0.353   1.187  0.2578  0.2303 -0.0208
  111fsi     O4 1498   2.318   0.491   1.324 -0.0711  0.1154 -0.6044
  111fsi     F2 1499   2.380   0.566   1.108  0.6288  0.1130  0.1923
  112fsi     F1 1500   1.571   1.149   1.877 -0.1862 -0.0927 -0.2934
  112fsi     S1 1501   1.461   1.242   1.933 -0.0627 -0.1010 -0.2996
  112fsi      N 1502   1.348   1.138   1.964  0.1171 -0.3971  0.5391
  112fsi     O1 1503   1.522   1.309   2.047  0.2235 -0.4150 -0.4513
  112fsi     O2 1504   1.424   1.318   1.822 -0.0514  0.0373  0.5064
  112fsi     S2 1505   1.348   1.029   2.076  0.3920 -0.2227  0.4039
  112fsi     O3 1506   1.479   0.975   2.098 -0.0047  0.0681  0.1173
  112fsi     O4 1507   1.230   0.937   2.075 -0.6187  0.4672  0.4844
  112fsi     F2 1508   1.316   1.102   2.200  0.3685  0.1051 -0.2389
  113fsi     F1 1509   1.092   0.751   0.355  0.1436 -0.2713 -0.0537
  113fsi     S1 1510   1.113   0.624   0.451 -0.1785  0.0116  0.1501
  113fsi      N 1511   1.241   0.558   0.380  0.5378 -0.4776 -0.1870
  113fsi     O1 1512   1.150   0.680   0.581 -0.1697 -0.0559  0.0363
  113fsi     O2 1513   0.993   0.546   0.439  0.0729  0.5666 -0.1818
  113fsi     S2 1514   1.345   0.479   0.457 -0.0331 -0.1641 -0.2647
  113fsi     O3 1515   1.308   0.451   0.592  0.2480  0.8529 -0.6772
  113fsi     O4 1516   1.475   0.526   0.438 -0.2234 -0.0030 -0.3708
  113fsi     F2 1517   1.342   0.332   0.384  0.3112  0.5460 -0.7082
  114fsi     F1 1518   0.068   1.571   0.206  0.1869 -0.1879  0.5156
  114fsi     S1 1519   0.216   1.620   0.218  0.3287 -0.3447 -0.0127
  114fsi      N 1520   0.253   1.604   0.369  0.4057 -0.6913 -0.6509
  114fsi     O1 1521   0.288   1.533   0.124  0.2503  0.3451 -0.1832
  114fsi     O2 1522   0.210   1.763   0.185 -0.4646 -0.1406 -0.1049
  114fsi     S2 1523   0.291   1.468   0.438 -0.0357 -0.1425 -0.0218
  114fsi     O3 1524   0.264   1.347   0.363  0.4893  0.0774 -0.2414
  114fsi     O4 1525   0.258   1.465   0.576 -0.3454  0.0437  0.2371
  114fsi     F2 1526   0.445   1.487   0.438 -0.2184  0.2095  0.3301
  115fsi     F1 1527   0.208   0.857   0.874 -0.4441  0.1029  0.3769
  115fsi     S1 1528   0.152   0.889   0.733 -0.0228 -0.2179  0.3757
  115fsi      N 1529   0.073   1.028   0.753 -0.7411 -0.7209  0.2973
  115fsi     O1 1530   0.271   0.900   0.653  0.2131  0.1128 -0.7805
  115fsi     O2 1531   0.061   0.780   0.710 -0.3085 -0.2342  0.7280
  115fsi     S2 1532   0.058   1.146   0.653  0.2475  0.2909 -0.1328
  115fsi     O3 1533   0.119   1.123   0.527  0.5710 -0.1608 -0.3039
  115fsi     O4 1534   0.074   1.277   0.702  0.0265  0.1843  0.1156
  115fsi     F2 1535  -0.093   1.140   0.617  0.5932  0.0942 -0.2301
  116fsi     F1 1536   1.581   1.774   1.298  0.0152  0.3306 -0.3858
  116fsi     S1 1537   1.653   1.812   1.159  0.2145 -0.0492 -0.3527
  116fsi      N 1538   1.538   1.897   1.084 -0.5196 -0.9741 -0.5200
  116fsi     O1 1539   1.764   1.890   1.201 -0.2532  0.0022 -0.3618
  116fsi     O2 1540   1.677   1.683   1.096  0.1111  0.5318 -0.7153
  116fsi     S2 1541   1.458   1.883   0.949  0.1483  0.0288  0.2284
  116fsi     O3 1542   1.527   1.819   0.843 -0.0069  0.3421  0.6753
  116fsi     O4 1543   1.377   1.997   0.911  0.0150  0.0335  0.0175
  116fsi     F2 1544   1.340   1.782   0.990  0.5366 -0.0506 -0.3195
  117fsi     F1 1545   0.578   0.880   2.412 -0.0224 -0.2024  0.1638
  117fsi     S1 1546   0.454   0.816   2.339  0.0252  0.1031 -0.2506
  117fsi      N 1547   0.358   0.941   2.337 -0.2913 -0.0345 -0.3576
  117fsi     O1 1548   0.500   0.782   2.212 -0.0389 -0.1717 -0.9518
  117fsi     O2 1549   0.410   0.706   2.422 -0.5117 -0.0968 -0.0536
  117fsi     S2 1550   0.355   1.059   2.239  0.1393  0.4001  0.1669
  117fsi     O3 1551   0.485   1.084   2.181  0.0607  0.5886  0.2847
  117fsi     O4 1552   0.282   1.175   2.289 -0.6222  0.1423  0.5095
  117fsi     F2 1553   0.262   1.012   2.124  0.5165 -0.2245 -0.4773
  118fsi     F1 1554   1.149   2.660   1.575  0.1592 -0.3001  0.0807
  118fsi     S1 1555   1.240   2.743   1.667  0.1762 -0.2603  0.1888
  118fsi      N 1556   1.376   2.654   1.675  0.3237 -0.3308  0.4103
  118fsi     O1 1557   1.261   2.865   1.596  0.5318  0.1696 -0.1803
  118fsi     O2 1558   1.167   2.737   1.788 -0.2548  0.2556  0.1249
  118fsi     S2 1559   1.484   2.648   1.559  0.3632  0.0178  0.0123
  118fsi     O3 1560   1.419   2.649   1.426 -0.2687  0.2027 -0.1610
  118fsi     O4 1561   1.584   2.544   1.582 -0.2298  0.4831 -0.1466
  118fsi     F2 1562   1.567   2.791   1.559 -0.0918  0.0434 -0.4431
  119fsi     F1 1563   2.454   1.216   1.001  0.2316 -0.4891 -0.0750
  119fsi     S1 1564   2.348   1.183   0.889 -0.1462  0.3436  0.1999
  119fsi      N 1565   2.320   1.033   0.929  0.2760 -0.4718  0.3653
  119fsi     O1 1566   2.236   1.269   0.918 -0.4189 -0.0894  0.1958
  119fsi     O2 1567   2.414   1.210   0.764  0.2988 -0.6796 -0.4842
  119fsi     S2 1568   2.369   0.907   0.846 -0.2669  0.0262 -0.1612
  119fsi     O3 1569   2.339   0.926   0.704  0.3252  0.5112 -0.4929
  119fsi     O4 1570   2.326   0.786   0.911  0.0226 -0.2237  0.3710
  119fsi     F2 1571   2.524   0.915   0.856 -0.0877  0.0650  0.5771
  120fsi     F1 1572   0.319   2.083   1.921  0.3617 -0.4037  0.3415
  120fsi     S1 1573   0.379   2.206   2.006 -0.1659  0.0153  0.4678
  120fsi      N 1574   0.333   2.330   1.919 -0.3714 -0.4141 -0.1875
  120fsi     O1 1575   0.328   2.192   2.141  0.2792  0.0939  0.2039
  120fsi     O2 1576   0.520   2.187   1.991 -0.1177 -0.0064 -0.0634
  120fsi     S2 1577   0.387   2.378   1.777 -0.5846  0.1484  0.4710
  120fsi     O3 1578   0.501   2.307   1.731 -0.7692 -0.0765  0.6041
  120fsi     O4 1579   0.388   2.523   1.771  0.3881 -0.3389  0.0029
  120fsi     F2 1580   0.268   2.346   1.678  0.2101 -0.1499 -0.2135
  121fsi     F1 1581   2.447   0.510   0.395 -0.3398 -0.3692  0.4507
  121fsi     S1 1582   2.301   0.549   0.332  0.1199  0.1626 -0.3315
  121fsi      N 1583   2.330   0.645   0.215 -0.0887  0.1237  0.1628
  121fsi     O1 1584   2.251   0.420   0.300  0.8182 -0.6504  0.0628
  121fsi     O2 1585   2.236   0.622   0.440  0.4595  0.2333  0.4781
  121fsi     S2 1586   2.348   0.624   0.058 -0.0024 -0.0218 -0.0033
  121fsi     O3 1587   2.288   0.732  -0.015  0.0879  0.4183 -0.1682
  121fsi     O4 1588   2.334   0.486   0.017 -0.0930  0.0404 -0.5533
  121fsi     F2 1589   2.494   0.645   0.031 -0.1577  0.4089  0.1686
  122fsi     F1 1590   2.096   1.443   2.929  0.0974 -0.8048  0.2685
  122fsi     S1 1591   2.174   1.552   2.849  0.0825 -0.4182 -0.1466
  122fsi      N 1592   2.317   1.500   2.855 -0.2691 -0.1378  0.4732
  122fsi     O1 1593   2.120   1.553   2.720 -0.0756  0.0758  0.9747
  122fsi     O2 1594   2.153   1.671   2.930  0.1878 -0.5388  0.1766
  122fsi     S2 1595   2.368   1.362   2.789  0.7953  0.0932  0.0525
  122fsi     O3 1596   2.274   1.294   2.703  0.0638  0.5093 -0.5094
  122fsi     O4 1597   2.460   1.285   2.868  0.1370  0.6058  0.3448
  122fsi     F2 1598   2.468   1.428   2.682  0.1440  0.1188  0.1630
  123fsi     F1 1599   0.534   1.263   2.486 -0.5696 -0.1416 -0.5410
  123fsi     S1 1600   0.521   1.430   2.482 -0.2088  0.2004 -0.2775
  123fsi      N 1601   0.652   1.472   2.555 -0.5766 -0.4556  0.1165
  123fsi     O1 1602   0.517   1.465   2.339 -0.3268  0.0286 -0.0072
  123fsi     O2 1603   0.402   1.450   2.558  0.2383 -1.0519 -0.2908
  123fsi     S2 1604   0.763   1.557   2.488  0.0445 -0.3170 -0.0487
  123fsi     O3 1605   0.753   1.694   2.520  0.5673  0.0631  0.2435
  123fsi     O4 1606   0.804   1.512   2.356  0.4119  1.1096 -0.0303
  123fsi     F2 1607   0.889   1.505   2.568  0.6356  0.2224  0.1232
  124fsi     F1 1608   0.412   2.486   2.827 -0.3310  0.1970  0.3875
  124fsi     S1 1609   0.463   2.581   2.718  0.1119  0.2768  0.0530
  124fsi      N 1610   0.394   2.717   2.754 -0.1859  0.8230  0.2195
  124fsi     O1 1611   0.608   2.572   2.732 -0.0959 -0.0423 -0.2684
  124fsi     O2 1612   0.404   2.529   2.598 -0.0398  0.0068  0.3760
  124fsi     S2 1613   0.445   2.815   2.867 -0.2159 -0.0065 -0.1344
  124fsi     O3 1614   0.404   2.950   2.844  0.2314 -0.3850  0.2242
  124fsi     O4 1615   0.573   2.801   2.927  0.3371 -0.2590 -0.6284
  124fsi     F2 1616   0.344   2.768   2.983 -0.3916  0.2115 -0.3170
  125fsi     F1 1617   2.028   1.903   0.492  0.3947  0.1656 -0.5004
  125fsi     S1 1618   1.901   1.970   0.423 -0.1436  0.1008  0.2688
  125fsi      N 1619   1.789   1.857   0.422 -0.2429  0.3837 -0.0456
  125fsi     O1 1620   1.872   2.077   0.516 -0.4039 -0.2279  0.0856
  125fsi     O2 1621   1.946   1.999   0.288 -0.1862  0.2675 -0.4149
  125fsi     S2 1622   1.664   1.833   0.329  0.4615  0.2523  0.1475
  125fsi     O3 1623   1.632   1.941   0.237  0.4870 -0.5586 -0.2260
  125fsi     O4 1624   1.555   1.771   0.401 -0.3976  0.4330 -0.2613
  125fsi     F2 1625   1.713   1.728   0.219  0.4986 -0.0673  0.4350
  126fsi     F1 1626   2.055   2.023   2.188  0.4411 -0.1639  0.2670
  126fsi     S1 1627   2.115   1.997   2.042 -0.0779  0.1591 -0.1963
  126fsi      N 1628   2.083   2.126   1.952 -0.1055  0.3746 -0.0936
  126fsi     O1 1629   2.255   1.986   2.063  0.2964 -0.8385  0.6854
  126fsi     O2 1630   2.055   1.876   1.993 -0.3837  0.2456 -0.1225
  126fsi     S2 1631   1.938   2.192   1.933 -0.6058  0.5017  0.2362
  126fsi     O3 1632   1.824   2.103   1.943 -0.0774  0.1252  0.0031
  126fsi     O4 1633   1.935   2.300   1.834  0.4808  0.4281  0.5005
  126fsi     F2 1634   1.924   2.283   2.064  0.1108  0.1008  0.6553
  127fsi     F1 1635   1.844   2.034   2.773  0.4855 -0.7381  0.1450
  127fsi     S1 1636   1.828   1.940   2.896  0.0942 -0.1209 -0.5993
  127fsi      N 1637   1.823   1.793   2.836 -0.1039 -0.9128  0.3579
  127fsi     O1 1638   1.941   1.959   2.981 -0.0864  0.0725  0.5719
  127fsi     O2 1639   1.706   1.987   2.957  0.7363  0.2119 -0.5743
  127fsi     S2 1640   1.714   1.685   2.854  0.2746  0.1603 -0.0474
  127fsi     O3 1641   1.689   1.615   2.733  0.7270 -0.2703 -0.3396
  127fsi     O4 1642   1.601   1.720   2.937 -0.4766 -0.1735 -0.2737
  127fsi     F2 1643   1.787   1.576   2.941 -0.4290  0.2507  0.3228
  128fsi     F1 1644   0.620   1.204   2.748  0.3314  0.1603  0.2110
  128fsi     S1 1645   0.694   1.250   2.882  0.3740 -0.4491  0.2205
  128fsi      N 1646   0.750   1.113   2.929  0.5542  0.7542 -0.6613
  128fsi     O1 1647   0.789   1.349   2.843 -0.5169  0.3062 -0.4271
  128fsi     O2 1648   0.583   1.289   2.964  0.2244  0.2891 -0.4310
  128fsi     S2 1649   0.894   1.082   2.989 -0.2205  0.0588 -0.0139
  128fsi     O3 1650   0.896   0.965   3.072  0.7334 -0.4026  0.3243
  128fsi     O4 1651   0.968   1.194   3.034 -0.2122  0.5286  0.2618
  128fsi     F2 1652   0.968   1.029   2.849 -0.3884 -0.1575 -0.7058
  129fsi     F1 1653   0.182   0.057   1.192  0.2252 -0.1868 -0.1492
  129fsi     S1 1654   0.164  -0.079   1.118  0.3963  0.1799 -0.1025
  129fsi      N 1655   0.174  -0.048   0.966 -0.2438 -0.2545 -0.8355
  129fsi     O1 1656   0.276  -0.155   1.167 -0.2210  0.1110 -0.6122
  129fsi     O2 1657   0.033  -0.121   1.159  0.3053 -0.6032  0.2084
  129fsi     S2 1658   0.078   0.027   0.875 -0.2431 -0.2581 -0.0265
  129fsi     O3 1659  -0.023   0.103   0.937 -0.3361  0.0129 -0.0764
  129fsi     O4 1660   0.044  -0.041   0.756 -0.1977 -0.0270  0.2099
  129fsi     F2 1661   0.175   0.134   0.824  0.1479 -0.2050 -0.0658
  130fsi     F1 1662   2.955   2.885   2.294  0.0059 -0.4222  0.5218
  130fsi     S1 1663   2.832   2.925   2.216  0.0760  0.1868  0.2023
  130fsi      N 1664   2.811   3.072   2.265 -0.3585  0.5292  0.3888
  130fsi     O1 1665   2.860   2.915   2.073 -0.4044  0.2445  0.0970
  130fsi     O2 1666   2.736   2.842   2.273  0.2355  0.3850 -0.7012
  130fsi     S2 1667   2.883   3.203   2.207 -0.0411 -0.6357  0.3740
  130fsi     O3 1668   3.009   3.188   2.145  0.3678  0.3891  0.5248
  130fsi     O4 1669   2.859   3.325   2.283 -0.8617 -0.1858 -0.0212
  130fsi     F2 1670   2.792   3.229   2.087  0.3377  0.1070  0.4634
  131fsi     F1 1671   0.812   0.780   0.488  0.4339  0.1767 -0.3632
  131fsi     S1 1672   0.704   0.769   0.374 -0.0295  0.2487  0.3545
  131fsi      N 1673   0.607   0.885   0.392  0.7203 -0.7004  0.6477
  131fsi     O1 1674   0.772   0.790   0.252 -0.4178  0.1797  0.1440
  131fsi     O2 1675   0.646   0.638   0.401 -0.8622  0.6022  0.0323
  131fsi     S2 1676   0.554   0.999   0.303 -0.5194 -0.3289  0.5735
  131fsi     O3 1677   0.432   1.062   0.358  0.2719 -0.2557  0.3922
  131fsi     O4 1678   0.547   0.964   0.169  0.2028  0.0320  0.6333
  131fsi     F2 1679   0.667   1.108   0.325 -0.4391 -0.1506  0.2961
  132fsi     F1 1680   2.556   2.487   2.346  0.1771  0.1379 -0.6323
  132fsi     S1 1681   2.592   2.487   2.505 -0.3574 -0.0839  0.1856
  132fsi      N 1682   2.594   2.640   2.529  0.0326 -0.2043  0.1238
  132fsi     O1 1683   2.484   2.411   2.563 -0.8818 -0.2629  0.5004
  132fsi     O2 1684   2.728   2.437   2.507  0.1976  0.3112 -0.0009
  132fsi     S2 1685   2.487   2.725   2.600  0.0520 -0.2164  0.6008
  132fsi     O3 1686   2.351   2.685   2.584 -0.0864 -0.0083 -0.5770
  132fsi     O4 1687   2.511   2.869   2.586 -0.3427  0.6493  0.1079
  132fsi     F2 1688   2.510   2.705   2.758  0.1479 -0.2612  0.4784
  133fsi     F1 1689   1.723   1.398   1.641 -0.7412  0.2703 -0.3362
  133fsi     S1 1690   1.657   1.513   1.563 -0.0112  0.3948  0.8650
  133fsi      N 1691   1.720   1.640   1.625 -0.8421 -0.0156  0.1097
  133fsi     O1 1692   1.705   1.489   1.428  0.0539  0.3821  0.5685
  133fsi     O2 1693   1.520   1.491   1.594 -0.5571  0.0013  0.0617
  133fsi     S2 1694   1.662   1.746   1.718  0.4718 -0.2853  0.3351
  133fsi     O3 1695   1.765   1.812   1.788  0.0875  0.1232  0.1245
  133fsi     O4 1696   1.545   1.706   1.794 -0.3893  0.3707  0.2770
  133fsi     F2 1697   1.610   1.857   1.615 -0.0506 -0.3157 -0.0858
  134fsi     F1 1698   2.553   1.211   1.381  0.2139 -0.1475 -0.0606
  134fsi     S1 1699   2.434   1.234   1.489  0.6213 -0.0003 -0.0558
  134fsi      N 1700   2.310   1.237   1.391  0.8134  0.2670  0.1948
  134fsi     O1 1701   2.442   1.122   1.580 -0.6803 -0.2917 -0.3424
  134fsi     O2 1702   2.455   1.367   1.543  0.2149 -0.4045  0.3317
  134fsi     S2 1703   2.215   1.125   1.342  0.0271 -0.0101 -0.1708
  134fsi     O3 1704   2.268   0.995   1.370 -0.7783 -0.2301 -0.3193
  134fsi     O4 1705   2.166   1.153   1.212 -0.6265 -0.8802 -0.0778
  134fsi     F2 1706   2.087   1.134   1.433 -0.3299 -0.0409 -0.2651
  135fsi     F1 1707   2.582   0.502   1.901  0.0059 -0.0132  0.5087
  135fsi     S1 1708   2.683   0.604   1.961  0.3878 -0.5254  0.0011
  135fsi      N 1709   2.588   0.719   2.011  0.1179  0.1585 -0.0461
  135fsi     O1 1710   2.748   0.531   2.061 -0.0706 -0.4854  0.1356
  135fsi     O2 1711   2.766   0.647   1.856 -0.2479 -0.1619  0.1087
  135fsi     S2 1712   2.571   0.801   2.141  0.1078  0.0059  0.4342
  135fsi     O3 1713   2.542   0.942   2.124 -0.6203  0.1413 -0.0577
  135fsi     O4 1714   2.675   0.768   2.239 -0.1013  0.2911 -0.5287
  135fsi     F2 1715   2.439   0.749   2.202  0.5202 -0.2449 -0.3183
  136fsi     F1 1716   0.573   1.898   2.264  0.2010 -0.1141 -0.1344
  136fsi     S1 1717   0.583   1.820   2.125 -0.3073 -0.1058 -0.0421
  136fsi      N 1718   0.648   1.923   2.021 -0.0029 -0.0726  0.4888
  136fsi     O1 1719   0.672   1.711   2.160  0.2521 -0.7050  0.5516
  136fsi     O2 1720   0.453   1.778   2.093  0.6515 -0.1820 -0.5909
  136fsi     S2 1721   0.803   1.958   1.999  0.0832 -0.2691 -0.0953
  136fsi     O3 1722   0.888   1.913   2.103 -0.1947  0.1663  0.0902
  136fsi     O4 1723   0.823   2.096   1.951 -0.8826 -0.3562 -0.1201
  136fsi     F2 1724   0.845   1.867   1.872  0.0355  0.1225  0.3224
  137fsi     F1 1725   2.061   2.915   0.574 -0.0709  0.4496  0.2803
  137fsi     S1 1726   1.907   2.901   0.604 -0.3833 -0.0383 -0.2563
  137fsi      N 1727   1.882   2.750   0.617  0.7089  0.3778 -0.1095
  137fsi     O1 1728   1.892   2.966   0.729  0.3666  0.3401  0.4541
  137fsi     O2 1729   1.845   2.966   0.498  0.3499  0.2401  0.2494
  137fsi     S2 1730   1.840   2.653   0.498 -0.1784  0.6989 -0.1484
  137fsi     O3 1731   1.757   2.717   0.400 -0.2168 -0.6971 -0.3410
  137fsi     O4 1732   1.803   2.521   0.539 -0.2001 -0.5756 -0.4077
  137fsi     F2 1733   1.970   2.623   0.419 -0.8160 -0.2314  0.1250
  138fsi     F1 1734   2.213   2.180   2.880  0.0184 -0.4218  0.3454
  138fsi     S1 1735   2.309   2.066   2.822  0.0604  0.1220  0.2313
  138fsi      N 1736   2.446   2.119   2.885 -0.1291  0.3440 -0.3766
  138fsi     O1 1737   2.252   1.946   2.874  0.2470  0.0887 -0.4837
  138fsi     O2 1738   2.306   2.089   2.680  0.0228  0.1573 -0.7896
  138fsi     S2 1739   2.533   2.058   3.004  0.4012  0.2481 -0.0544
  138fsi     O3 1740   2.492   1.928   3.049  0.1441 -0.3901 -0.1351
  138fsi     O4 1741   2.565   2.151   3.110  1.1402  0.4714 -0.2385
  138fsi     F2 1742   2.667   2.022   2.938  0.0045 -0.4440 -0.0852
  139fsi     F1 1743   2.982   1.634   1.047  0.0296  0.7065  0.3613
  139fsi     S1 1744   3.034   1.484   1.033 -0.0921 -0.3421  0.0054
  139fsi      N 1745   2.917   1.403   0.959  0.0158 -0.1496 -0.7355
  139fsi     O1 1746   3.157   1.508   0.956 -0.2433  0.5273  0.2919
  139fsi     O2 1747   3.048   1.450   1.174 -0.3417  0.4859  0.7725
  139fsi     S2 1748   2.843   1.272   1.011 -0.4460 -0.2033  0.2186
  139fsi     O3 1749   2.911   1.206   1.116  0.1630 -0.1837  0.3471
  139fsi     O4 1750   2.785   1.188   0.911 -0.2229 -0.5646  0.1626
  139fsi     F2 1751   2.720   1.328   1.077  0.8061  0.2024 -0.1941
  140fsi     F1 1752   1.114   1.494   1.904  0.3793 -0.0687 -0.3230
  140fsi     S1 1753   0.960   1.442   1.882 -0.2002 -0.1323  0.1692
  140fsi      N 1754   0.967   1.278   1.886  0.7409  0.3201 -0.0436
  140fsi     O1 1755   0.891   1.496   1.994 -0.2843  0.3758 -0.8279
  140fsi     O2 1756   0.930   1.500   1.757 -0.1451 -0.5921  0.0765
  140fsi     S2 1757   1.033   1.183   1.783  0.2685  0.1721 -0.0988
  140fsi     O3 1758   1.049   1.056   1.849 -0.6119 -0.1343 -0.2171
  140fsi     O4 1759   1.130   1.246   1.693 -0.2815 -0.2960  0.0711
  140fsi     F2 1760   0.918   1.152   1.686 -0.3600 -0.2442  0.4272
  141fsi     F1 1761   1.390   0.292   1.293  0.3897  0.4737 -0.4134
  141fsi     S1 1762   1.261   0.271   1.384 -0.1547  0.1227  0.3803
  141fsi      N 1763   1.179   0.392   1.346 -0.6475  0.0753 -0.0321
  141fsi     O1 1764   1.203   0.153   1.337  0.2338  0.2757  0.0343
  141fsi     O2 1765   1.303   0.279   1.521  0.5992  0.1309  0.0677
  141fsi     S2 1766   1.100   0.422   1.213  0.5383  0.1804  0.9182
  141fsi     O3 1767   1.158   0.362   1.095 -0.5161  0.0054  0.0013
  141fsi     O4 1768   1.058   0.558   1.209  0.1750  0.0933  0.3079
  141fsi     F2 1769   0.970   0.345   1.227  0.5347 -0.0116  0.2312
  142fsi     F1 1770   2.046   2.309   0.372  0.0523 -0.3455  0.6597
  142fsi     S1 1771   2.144   2.275   0.253 -0.0775 -0.1419 -0.1907
  142fsi      N 1772   2.188   2.414   0.200 -0.4480  0.2110  0.2571
  142fsi     O1 1773   2.242   2.184   0.305  0.1960  0.1734  0.0946
  142fsi     O2 1774   2.057   2.216   0.160  0.0194 -0.1468 -0.8622
  142fsi     S2 1775   2.320   2.496   0.211 -0.4906 -0.0957 -0.0773
  142fsi     O3 1776   2.324   2.583   0.093 -0.2662  0.0103 -0.4276
  142fsi     O4 1777   2.441   2.423   0.237 -0.3611  0.7261  0.0379
  142fsi     F2 1778   2.304   2.594   0.340 -0.1746  0.0333  0.1962
  143fsi     F1 1779   2.152   0.768   1.234 -0.1748 -0.3533 -0.0954
  143fsi     S1 1780   2.003   0.819   1.194  0.0349  0.2213 -0.3180
  143fsi      N 1781   1.929   0.676   1.185  0.3949 -0.4819 -0.2355
  143fsi     O1 1782   1.955   0.898   1.308 -0.0903  0.2234  0.1577
  143fsi     O2 1783   2.021   0.892   1.067 -0.1226 -0.4531  0.2186
  143fsi     S2 1784   1.949   0.580   1.062 -0.4024 -0.1479  0.0085
  143fsi     O3 1785   1.920   0.450   1.112 -0.3633 -0.1746 -0.5441
  143fsi     O4 1786   2.064   0.601   0.977  0.4724 -0.3805  0.2362
  143fsi     F2 1787   1.824   0.605   0.969 -0.0422  0.3828  0.3394
  144fsi     F1 1788   2.139   2.330   2.572 -0.2262  0.1715 -0.0458
  144fsi     S1 1789   2.089   2.229   2.463 -0.2107  0.0832  0.3405
  144fsi      N 1790   1.979   2.309   2.384 -0.5136 -0.3839  0.4120
  144fsi     O1 1791   2.207   2.195   2.386 -0.7808 -0.3947  0.0690
  144fsi     O2 1792   2.034   2.119   2.547  0.1935 -0.1805  0.2007
  144fsi     S2 1793   1.826   2.323   2.411  0.0073  0.2284 -0.1684
  144fsi     O3 1794   1.769   2.446   2.373  0.6480  0.0456 -0.0883
  144fsi     O4 1795   1.777   2.271   2.536 -0.2860  0.5854  0.4526
  144fsi     F2 1796   1.757   2.228   2.311 -0.1244  0.1211  0.0605
  145fsi     F1 1797   1.181   1.017   1.416 -0.4199  0.1520  0.1540
  145fsi     S1 1798   1.276   0.923   1.499 -0.0977 -0.5194 -0.0039
  145fsi      N 1799   1.414   0.962   1.435 -0.3246 -0.8193  0.3895
  145fsi     O1 1800   1.247   0.959   1.632 -0.0974  0.0630 -0.1913
  145fsi     O2 1801   1.239   0.795   1.456 -0.5160 -0.4823  0.1834
  145fsi     S2 1802   1.528   1.036   1.507  0.1940  0.3517  0.1815
  145fsi     O3 1803   1.480   1.161   1.557  0.0676  0.3759 -0.1550
  145fsi     O4 1804   1.650   1.038   1.434 -0.3562 -0.2820 -0.1304
  145fsi     F2 1805   1.554   0.946   1.633 -0.0835  0.3657 -0.1505
  146fsi     F1 1806   1.239   2.546   0.612 -0.2795  0.1853 -0.2315
  146fsi     S1 1807   1.225   2.388   0.603  0.2599 -0.4198 -0.3888
  146fsi      N 1808   1.373   2.344   0.618  0.6633  0.3001 -0.5064
  146fsi     O1 1809   1.151   2.353   0.723 -0.5084  0.5728  0.0598
  146fsi     O2 1810   1.152   2.367   0.483  0.3449  0.4033 -0.7462
  146fsi     S2 1811   1.461   2.271   0.504 -0.1517 -0.3235 -0.2489
  146fsi     O3 1812   1.602   2.268   0.528  0.2263  0.6585 -0.0888
  146fsi     O4 1813   1.425   2.301   0.375  0.0768 -0.3020  0.6471
  146fsi     F2 1814   1.431   2.124   0.522 -0.2667 -0.5243  0.2717
  147fsi     F1 1815   2.364   2.541   1.085  0.3579  0.0471  0.4677
  147fsi     S1 1816   2.428   2.401   1.120  0.1073 -0.0658  0.1126
  147fsi      N 1817   2.308   2.303   1.106 -0.4351 -0.4138 -0.3008
  147fsi     O1 1818   2.535   2.385   1.021  0.6445  0.7610 -0.4641
  147fsi     O2 1819   2.464   2.429   1.256 -0.0477  0.6053  0.3305
  147fsi     S2 1820   2.208   2.248   1.217  0.0011 -0.0131  0.0736
  147fsi     O3 1821   2.081   2.217   1.161  0.2467 -0.1922  0.4366
  147fsi     O4 1822   2.213   2.336   1.332 -0.1404  0.5266  0.7993
  147fsi     F2 1823   2.270   2.115   1.272  0.4426 -0.4558  0.2416
  148fsi     F1 1824   2.574   2.507   1.960 -0.3090 -0.0184 -0.2936
  148fsi     S1 1825   2.563   2.610   1.840  0.0769  0.2629  0.6834
  148fsi      N 1826   2.426   2.685   1.860 -0.2046  0.1456  0.0394
  148fsi     O1 1827   2.673   2.693   1.855 -0.4263 -0.0029  0.2559
  148fsi     O2 1828   2.564   2.535   1.716  0.4711  0.1056  0.6019
  148fsi     S2 1829   2.404   2.834   1.911  0.3517  0.2618 -0.4720
  148fsi     O3 1830   2.268   2.867   1.928 -0.1831  0.0821  0.4050
  148fsi     O4 1831   2.491   2.925   1.847 -0.3564 -0.1507  0.1499
  148fsi     F2 1832   2.458   2.826   2.058 -0.0034 -0.0708 -0.8582
  149fsi     F1 1833   0.502   1.701   0.626 -0.1583 -0.0465 -0.0733
  149fsi     S1 1834   0.566   1.809   0.536  0.1933  0.2839  0.2108
  149fsi      N 1835   0.539   1.941   0.620  0.1659  0.2827  0.1833
  149fsi     O1 1836   0.704   1.772   0.538 -0.1566 -0.9245  0.2437
  149fsi     O2 1837   0.493   1.792   0.411  0.0229  0.2229 -0.0541
  149fsi     S2 1838   0.489   2.081   0.573 -0.0278 -0.0342 -0.0211
  149fsi     O3 1839   0.494   2.084   0.431 -0.2383  0.4876 -0.2311
  149fsi     O4 1840   0.554   2.191   0.645 -0.0101  0.4775 -0.4013
  149fsi     F2 1841   0.344   2.090   0.607  0.5262 -0.5087  0.1101
  150fsi     F1 1842   0.083   0.701   1.366 -0.1295 -0.0749  0.2853
  150fsi     S1 1843   0.081   0.709   1.522 -0.2314  0.2954 -0.2111
  150fsi      N 1844   0.177   0.825   1.558 -0.4848  0.3154 -0.0577
  150fsi     O1 1845  -0.053   0.731   1.562  0.0269  0.0571  0.0244
  150fsi     O2 1846   0.149   0.585   1.569 -0.3328  0.0424  0.0963
  150fsi     S2 1847   0.144   0.974   1.546 -0.3877  0.2631 -0.1576
  150fsi     O3 1848   0.038   1.001   1.448  0.6047  0.0284 -0.5240
  150fsi     O4 1849   0.260   1.051   1.540 -0.1996  0.2932 -0.0003
  150fsi     F2 1850   0.081   1.017   1.676 -0.0336 -0.3786 -0.8833
  151fsi     F1 1851   1.319   1.318   0.940 -0.2558 -0.0090 -0.5594
  151fsi     S1 1852   1.331   1.356   0.794 -0.0826  0.4206 -0.2725
  151fsi      N 1853   1.426   1.485   0.781  0.0514  0.0733  0.0338
  151fsi     O1 1854   1.388   1.239   0.738 -0.2321 -0.5826  0.5946
  151fsi     O2 1855   1.203   1.392   0.744 -0.1672  0.1739  0.1376
  151fsi     S2 1856   1.580   1.495   0.735 -0.3484  0.2780 -0.2559
  151fsi     O3 1857   1.608   1.597   0.630  0.0443 -0.6317  0.2491
  151fsi     O4 1858   1.646   1.369   0.722 -0.2611  0.4659  0.4906
  151fsi     F2 1859   1.642   1.549   0.859  0.0771  0.4088 -0.3338
  152fsi     F1 1860   0.776   2.415   1.991 -0.2284  0.4901 -0.2558
  152fsi     S1 1861   0.832   2.469   1.857 -0.2592 -0.4757 -0.0076
  152fsi      N 1862   0.744   2.599   1.830  0.4335 -0.1325  0.0741
  152fsi     O1 1863   0.970   2.499   1.885  0.2592  0.2983 -0.0096
  152fsi     O2 1864   0.806   2.357   1.769 -0.1891  0.3445 -0.7186
  152fsi     S2 1865   0.743   2.742   1.878 -0.3250 -0.4212  0.1164
  152fsi     O3 1866   0.689   2.833   1.782  0.3656 -0.1431  0.8391
  152fsi     O4 1867   0.866   2.773   1.941 -0.1454  0.4561  0.3561
  152fsi     F2 1868   0.636   2.739   2.001 -0.3543 -0.5531 -0.2468
  153fsi     F1 1869   2.890   2.333   1.352  0.1924 -0.8900 -0.1820
  153fsi     S1 1870   2.816   2.447   1.419 -0.1573 -0.3900  0.0877
  153fsi      N 1871   2.918   2.496   1.528  0.0170 -0.6630 -0.2843
  153fsi     O1 1872   2.789   2.547   1.317  0.5235  0.1199  0.3278
  153fsi     O2 1873   2.700   2.378   1.465 -0.6946 -0.1937 -0.8698
  153fsi     S2 1874   3.011   2.624   1.533  0.0095 -0.3534  0.4668
  153fsi     O3 1875   3.011   2.683   1.664 -0.1554 -0.3399 -0.2728
  153fsi     O4 1876   3.001   2.721   1.427 -0.4015  0.0152  0.7059
  153fsi     F2 1877   3.150   2.561   1.516  0.1115 -0.2407 -0.3886
  154fsi     F1 1878   2.678   1.570   1.261  0.1938  0.0740 -0.7616
  154fsi     S1 1879   2.737   1.615   1.400 -0.0332 -0.0523  0.2524
  154fsi      N 1880   2.847   1.508   1.421 -0.1033 -0.2709  0.4008
  154fsi     O1 1881   2.792   1.749   1.385  0.6310 -0.1367  0.6927
  154fsi     O2 1882   2.628   1.611   1.493  0.4062 -0.1439 -0.2912
  154fsi     S2 1883   2.856   1.387   1.517 -0.4763 -0.3139  0.1001
  154fsi     O3 1884   2.902   1.264   1.457  0.0862 -0.0792 -0.0807
  154fsi     O4 1885   2.756   1.378   1.622 -1.0455 -0.1529  0.5317
  154fsi     F2 1886   2.974   1.432   1.609  0.8407  0.4438 -0.7300
  155fsi     F1 1887   1.748   2.008   0.816 -0.0873  0.0826 -0.0337
  155fsi     S1 1888   1.822   2.131   0.867 -0.4297 -0.6543  0.4259
  155fsi      N 1889   1.967   2.100   0.840  0.3000 -0.6422  0.5087
  155fsi     O1 1890   1.775   2.238   0.783  0.1828  0.2423  0.8180
  155fsi     O2 1891   1.796   2.136   1.006  0.6234  0.1707  0.5608
  155fsi     S2 1892   2.061   1.986   0.895  0.1058 -0.5382  0.2129
  155fsi     O3 1893   2.009   1.913   1.006 -0.1383 -1.0989  0.2871
  155fsi     O4 1894   2.201   2.017   0.900 -0.6278 -0.2973 -0.4119
  155fsi     F2 1895   2.059   1.874   0.789  0.2263  0.1570  0.0769
  156fsi     F1 1896   2.657   1.739   0.954 -0.3344 -0.3254 -0.4509
  156fsi     S1 1897   2.722   1.884   0.932  0.0482  0.1742 -0.1834
  156fsi      N 1898   2.721   1.947   1.080  0.1267  0.4412 -0.4212
  156fsi     O1 1899   2.855   1.842   0.894  0.0805 -0.4572 -0.2555
  156fsi     O2 1900   2.645   1.948   0.830 -0.4636  0.3824 -0.2462
  156fsi     S2 1901   2.620   2.046   1.143  0.0054 -0.3362 -0.3708
  156fsi     O3 1902   2.506   2.082   1.061  0.1245  0.2063  0.0471
  156fsi     O4 1903   2.690   2.142   1.222 -0.8167 -0.2433 -0.2107
  156fsi     F2 1904   2.563   1.948   1.251  0.6577  0.3353  0.6387
  157fsi     F1 1905   2.404   1.788   0.340 -0.3941  0.5472 -0.0723
  157fsi     S1 1906   2.301   1.722   0.241 -0.2352 -0.0093  0.4624
  157fsi      N 1907   2.385   1.619   0.166 -0.0429  0.2929 -0.2704
  157fsi     O1 1908   2.211   1.652   0.329 -0.0929  0.6367 -0.0802
  157fsi     O2 1909   2.251   1.830   0.164  0.3193 -0.2814  0.1159
  157fsi     S2 1910   2.433   1.476   0.231 -0.4179 -0.1313  0.2559
  157fsi     O3 1911   2.454   1.466   0.371 -0.7687 -0.2348 -0.2673
  157fsi     O4 1912   2.528   1.414   0.146 -0.5898 -0.2233 -0.0209
  157fsi     F2 1913   2.306   1.382   0.208 -0.2754  0.1289  0.1430
  158fsi     F1 1914   1.504   2.924   2.325 -0.1562 -0.1507  0.0362
  158fsi     S1 1915   1.654   2.895   2.374 -0.3341 -0.0401 -0.2104
  158fsi      N 1916   1.629   2.884   2.531 -0.3999 -0.0527 -0.6199
  158fsi     O1 1917   1.692   2.770   2.312  0.5076  0.1114 -0.4301
  158fsi     O2 1918   1.734   3.009   2.334 -0.6125 -0.3455  0.0283
  158fsi     S2 1919   1.617   2.757   2.625 -0.1322 -0.0601  0.0254
  158fsi     O3 1920   1.544   2.658   2.548 -0.0493 -0.1095  0.3370
  158fsi     O4 1921   1.584   2.788   2.762  0.3121 -0.2759  0.1781
  158fsi     F2 1922   1.759   2.702   2.631 -0.3188  0.0894 -0.1911
  159fsi     F1 1923   1.313   0.265   2.699 -0.5205  0.5038  0.1955
  159fsi     S1 1924   1.469   0.241   2.710  0.1334  0.0130  0.1693
  159fsi      N 1925   1.497   0.224   2.869 -0.3588  0.3497 -0.0913
  159fsi     O1 1926   1.483   0.113   2.645  0.0558 -0.1989 -0.4184
  159fsi     O2 1927   1.528   0.356   2.653  0.3412 -0.0805  0.1481
  159fsi     S2 1928   1.537   0.330   2.976  0.0961  0.3855  0.3730
  159fsi     O3 1929   1.656   0.403   2.949 -0.2010 -0.2145 -0.1711
  159fsi     O4 1930   1.522   0.279   3.109 -0.1135  0.2377  0.4453
  159fsi     F2 1931   1.417   0.438   2.963  0.0731  0.1840 -0.3550
  160fsi     F1 1932   2.709   2.680   0.197 -0.6271  0.5907  0.0017
  160fsi     S1 1933   2.800   2.793   0.250 -0.5368  0.0211 -0.1276
  160fsi      N 1934   2.947   2.727   0.231  0.1587 -0.6585  1.0469
  160fsi     O1 1935   2.775   2.900   0.160  0.0948  0.0045 -0.1263
  160fsi     O2 1936   2.760   2.813   0.389 -0.5256  0.0531 -0.5941
  160fsi     S2 1937   3.062   2.718   0.343  0.2608  0.2644  0.0133
  160fsi     O3 1938   3.049   2.796   0.466 -0.1736 -0.2887 -0.3265
  160fsi     O4 1939   3.193   2.717   0.282  0.2431  0.2052 -0.5230
  160fsi     F2 1940   3.054   2.570   0.382  0.5777 -0.0282  0.1743
  161fsi     F1 1941   2.938   0.176   1.242 -0.1707 -1.2114 -0.3970
  161fsi     S1 1942   2.889   0.331   1.209 -0.1825 -0.0981  0.5206
  161fsi      N 1943   3.029   0.397   1.173  0.0796  0.1279 -0.1529
  161fsi     O1 1944   2.803   0.320   1.096  0.5451 -0.2725 -0.1148
  161fsi     O2 1945   2.836   0.387   1.327  0.3580  0.1707  0.2531
  161fsi     S2 1946   3.102   0.438   1.046 -0.7379 -0.0039 -0.3596
  161fsi     O3 1947   3.147   0.573   1.057  0.5612  0.0518  0.4546
  161fsi     O4 1948   3.045   0.409   0.920  0.0108  0.9178  0.3990
  161fsi     F2 1949   3.236   0.356   1.053  0.1453  0.0683 -0.1847
  162fsi     F1 1950   1.347   1.758   1.554 -0.0415 -0.0862  0.0305
  162fsi     S1 1951   1.226   1.671   1.497 -0.2513 -0.5551  0.0428
  162fsi      N 1952   1.277   1.627   1.354  0.1130 -0.4682  0.4200
  162fsi     O1 1953   1.214   1.565   1.593  0.0193  0.4259 -0.8441
  162fsi     O2 1954   1.128   1.770   1.488 -0.0072  0.3227  0.2650
  162fsi     S2 1955   1.326   1.489   1.306  0.3910  0.3295  0.4491
  162fsi     O3 1956   1.326   1.380   1.401 -0.1490 -0.0986  0.1220
  162fsi     O4 1957   1.444   1.497   1.223  0.2252 -0.0185 -0.0169
  162fsi     F2 1958   1.218   1.452   1.199 -0.1157  0.4774 -0.5483
  163fsi     F1 1959   1.097   3.006   2.302 -0.1063 -0.1889  0.0859
  163fsi     S1 1960   1.171   2.880   2.262 -0.1654  0.0041  0.0402
  163fsi      N 1961   1.057   2.788   2.206 -0.1158  0.4223 -0.4783
  163fsi     O1 1962   1.259   2.931   2.162 -0.4802 -0.0033  0.0770
  163fsi     O2 1963   1.229   2.842   2.382 -0.2687 -0.0005 -0.6317
  163fsi     S2 1964   0.988   2.666   2.266 -0.1769 -0.1963 -0.1763
  163fsi     O3 1965   1.034   2.618   2.391  0.3907  0.0792 -0.2512
  163fsi     O4 1966   0.965   2.564   2.170  0.1904 -0.1967  0.4268
  163fsi     F2 1967   0.847   2.721   2.296  0.0596  0.6042  0.3401
  164fsi     F1 1968   0.525   2.185   1.025  0.0326  0.2242 -0.0430
  164fsi     S1 1969   0.473   2.327   0.987 -0.0054 -0.2234  0.2554
  164fsi      N 1970   0.400   2.356   1.118  0.0028  0.1891 -0.4900
  164fsi     O1 1971   0.598   2.401   0.980  0.0053  0.6309  0.1979
  164fsi     O2 1972   0.390   2.302   0.872 -0.7902  0.3138  0.3572
  164fsi     S2 1973   0.260   2.409   1.150 -0.0495 -0.1655 -0.2229
  164fsi     O3 1974   0.167   2.309   1.209 -0.4038  0.1665  0.0586
  164fsi     O4 1975   0.217   2.491   1.046  0.3908  0.2224 -0.4539
  164fsi     F2 1976   0.287   2.510   1.267 -0.4550 -0.5377 -0.1329
  165fsi     F1 1977   0.432   1.279   1.428  0.1531  0.4410 -0.5787
  165fsi     S1 1978   0.328   1.368   1.354  0.2564 -0.4777  0.2493
  165fsi      N 1979   0.370   1.333   1.204  0.3784  0.3216 -0.2977
  165fsi     O1 1980   0.199   1.318   1.405  0.1996  0.4501  0.2872
  165fsi     O2 1981   0.367   1.498   1.390  0.1518 -0.4787  0.1079
  165fsi     S2 1982   0.314   1.214   1.121  0.2189 -0.1624  0.0703
  165fsi     O3 1983   0.308   1.247   0.980 -0.3299  0.0684 -0.1809
  165fsi     O4 1984   0.202   1.145   1.180 -0.0501 -0.1936 -0.2784
  165fsi     F2 1985   0.428   1.111   1.132  0.0161 -0.2952 -0.0270
  166fsi     F1 1986   0.600   0.850   0.967 -0.3296  0.1379 -0.1289
  166fsi     S1 1987   0.660   0.739   0.862 -0.0005  0.6555  0.0395
  166fsi      N 1988   0.566   0.614   0.876 -0.1833 -0.6047  0.0717
  166fsi     O1 1989   0.644   0.806   0.735  0.1944 -0.4927  0.0928
  166fsi     O2 1990   0.798   0.715   0.907 -0.0113  0.0075  0.0234
  166fsi     S2 1991   0.459   0.556   0.780  0.0961  0.6981  0.1477
  166fsi     O3 1992   0.499   0.535   0.642 -0.0170 -0.3150 -0.2749
  166fsi     O4 1993   0.328   0.610   0.796  0.9393  0.1031  0.0241
  166fsi     F2 1994   0.436   0.411   0.841  0.3751  0.0564  0.0919
  167fsi     F1 1995   1.730   0.678   1.974  0.9259 -0.1922  0.0304
  167fsi     S1 1996   1.600   0.584   1.996  0.2616  0.1601 -0.1812
  167fsi      N 1997   1.541   0.554   1.850  0.3663 -0.4729 -0.0017
  167fsi     O1 1998   1.644   0.459   2.056 -0.1779 -0.4442 -0.1458
  167fsi     O2 1999   1.527   0.677   2.079  0.0121  0.1672  0.0272
  167fsi     S2 2000   1.411   0.620   1.798  0.4439 -0.0782 -0.2846
  167fsi     O3 2001   1.381   0.574   1.665  0.0400 -0.3547  0.2571
  167fsi     O4 2002   1.396   0.761   1.820  0.4733 -0.2033  0.3861
  167fsi     F2 2003   1.304   0.550   1.885  0.4947  0.2340  0.1890
  168fsi     F1 2004   1.600   2.327   2.069  0.3318  0.1633 -0.0061
  168fsi     S1 2005   1.616   2.468   2.007 -0.4439 -0.2527  0.3589
  168fsi      N 2006   1.465   2.504   1.985  0.6229  0.4472 -0.2144
  168fsi     O1 2007   1.686   2.542   2.110  0.0311 -0.1313  0.1150
  168fsi     O2 2008   1.689   2.441   1.886  0.6148  0.4470  0.5945
  168fsi     S2 2009   1.380   2.595   2.075 -0.1039 -0.0688 -0.3138
  168fsi     O3 2010   1.422   2.613   2.209 -0.0573 -0.1015  0.3583
  168fsi     O4 2011   1.239   2.569   2.045 -0.6805  0.1198 -0.2990
  168fsi     F2 2012   1.395   2.735   2.010  0.4801 -0.3809  0.0116
  169fsi     F1 2013   2.829   0.260   0.451 -0.1872 -0.1526 -0.1481
  169fsi     S1 2014   2.955   0.223   0.525 -0.0396  0.4221  0.1789
  169fsi      N 2015   3.066   0.313   0.452 -0.3287  0.6749 -0.2456
  169fsi     O1 2016   2.930   0.262   0.659 -0.4580  0.5688 -0.0171
  169fsi     O2 2017   2.959   0.082   0.499  0.0960  0.0656  0.1395
  169fsi     S2 2018   3.148   0.431   0.506 -0.2151 -0.0027  0.2122
  169fsi     O3 2019   3.270   0.446   0.431  0.3576  0.1686 -0.6044
  169fsi     O4 2020   3.169   0.423   0.649 -0.0176  0.2306 -0.2290
  169fsi     F2 2021   3.066   0.565   0.486 -0.1402  0.1409  0.1805
  170fsi     F1 2022   1.490   1.408   0.415  0.0884  0.5494  0.2046
  170fsi     S1 2023   1.469   1.260   0.377 -0.0457 -0.1088 -0.3286
  170fsi      N 2024   1.529   1.246   0.231 -0.2560 -0.8791 -0.3403
  170fsi     O1 2025   1.545   1.185   0.475  0.0830  0.6996 -0.2324
  170fsi     O2 2026   1.329   1.248   0.374  0.2857  0.4117 -0.0862
  170fsi     S2 2027   1.681   1.235   0.187 -0.1955  0.8565  0.5071
  170fsi     O3 2028   1.697   1.182   0.055 -1.0974  0.7803 -0.1401
  170fsi     O4 2029   1.776   1.191   0.288  0.1737 -0.8684 -0.6333
  170fsi     F2 2030   1.717   1.385   0.168  0.3844  0.0354 -0.1949
  171fsi     F1 2031   1.020   2.344   2.838  0.0555  0.3791 -0.4134
  171fsi     S1 2032   1.055   2.221   2.922  0.2222 -0.1725  0.0684
  171fsi      N 2033   1.195   2.180   2.877  0.4282  0.3236 -0.1525
  171fsi     O1 2034   1.040   2.271   3.056  0.2890  0.2143  0.2144
  171fsi     O2 2035   0.947   2.125   2.889 -0.0668 -0.8231  0.7991
  171fsi     S2 2036   1.325   2.184   2.960 -0.2001  0.4926 -0.0089
  171fsi     O3 2037   1.378   2.054   2.982 -0.8237  0.0496 -0.4821
  171fsi     O4 2038   1.318   2.269   3.072 -0.1724 -0.4959  0.1144
  171fsi     F2 2039   1.423   2.251   2.856 -0.0016 -0.2919 -0.1993
  172fsi     F1 2040   0.015   0.785   2.330  0.1549  0.4250 -0.5139
  172fsi     S1 2041  -0.036   0.704   2.459  0.3660  0.0886 -0.7144
  172fsi      N 2042   0.098   0.647   2.521  0.4233 -0.3997  0.3170
  172fsi     O1 2043  -0.104   0.801   2.537 -0.3464  0.5085  0.6408
  172fsi     O2 2044  -0.127   0.604   2.407 -0.1837 -0.3089 -0.0266
  172fsi     S2 2045   0.143   0.491   2.517 -0.1577  0.3732  0.1878
  172fsi     O3 2046   0.271   0.475   2.575  0.1122 -0.4968 -0.6221
  172fsi     O4 2047   0.113   0.429   2.392  0.3788  0.7861  0.3173
  172fsi     F2 2048   0.046   0.431   2.624 -0.0306 -0.1838 -0.3506
  173fsi     F1 2049   1.379   2.231   2.553  0.1794  0.6543 -0.0589
  173fsi     S1 2050   1.311   2.323   2.451 -0.2370 -0.3793  0.0418
  173fsi      N 2051   1.209   2.236   2.374  0.1344 -0.1798  0.0251
  173fsi     O1 2052   1.248   2.424   2.532 -0.4966  0.9048  0.1002
  173fsi     O2 2053   1.427   2.372   2.381  0.5524  0.3658 -0.4518
  173fsi     S2 2054   1.234   2.128   2.261 -0.0985 -0.6137 -0.2229
  173fsi     O3 2055   1.368   2.113   2.213  0.2850 -0.0243 -0.2027
  173fsi     O4 2056   1.126   2.121   2.163 -0.6972 -0.0722  0.1188
  173fsi     F2 2057   1.223   2.000   2.351 -0.4041 -0.3862  0.3820
  174fsi     F1 2058   0.408   0.159   0.304  0.4955  0.2304  1.1956
  174fsi     S1 2059   0.560   0.188   0.295 -0.1590  0.4895  0.2060
  174fsi      N 2060   0.629   0.055   0.351 -0.8465  0.4276 -0.1333
  174fsi     O1 2061   0.583   0.209   0.156 -0.1607 -0.1354 -0.0282
  174fsi     O2 2062   0.572   0.298   0.384  0.0025 -0.0993 -0.3373
  174fsi     S2 2063   0.662  -0.084   0.279  0.2023 -0.2308 -0.1397
  174fsi     O3 2064   0.702  -0.178   0.375  0.0207 -0.0520 -0.2586
  174fsi     O4 2065   0.749  -0.063   0.166  0.2947  0.8571 -0.4423
  174fsi     F2 2066   0.524  -0.129   0.227 -0.3903 -0.5919 -0.1520
  175fsi     F1 2067   1.602   0.531   1.187  0.1002  0.0224 -0.2372
  175fsi     S1 2068   1.567   0.613   1.320  0.0500  0.2111 -0.2320
  175fsi      N 2069   1.660   0.538   1.418  0.4139 -0.0225 -0.0923
  175fsi     O1 2070   1.593   0.746   1.269 -0.2187 -0.7044 -1.2092
  175fsi     O2 2071   1.429   0.578   1.350  0.1735  0.4876  0.1798
  175fsi     S2 2072   1.782   0.589   1.497 -0.0181 -0.4487  0.0815
  175fsi     O3 2073   1.776   0.731   1.535  0.2888  0.3207  0.2200
  175fsi     O4 2074   1.910   0.535   1.462  0.0172  0.4505  0.7880
  175fsi     F2 2075   1.758   0.518   1.642  0.1515  0.5414  0.0916
  176fsi     F1 2076   0.456   1.077   0.818  0.4542 -0.0133 -0.3692
  176fsi     S1 2077   0.558   1.180   0.760  0.0318 -0.2139 -0.0263
  176fsi      N 2078   0.672   1.168   0.868 -0.2781  0.0848  0.2724
  176fsi     O1 2079   0.595   1.110   0.638  0.0564 -0.0542  0.1529
  176fsi     O2 2080   0.474   1.298   0.750  0.0439  0.4235  0.0559
  176fsi     S2 2081   0.770   1.284   0.909  0.0530  0.1186  0.3181
  176fsi     O3 2082   0.776   1.395   0.819 -0.0475  0.2367  0.1210
  176fsi     O4 2083   0.891   1.223   0.949 -0.0376  0.0072 -0.0004
  176fsi     F2 2084   0.708   1.343   1.042 -0.0982  0.0551 -0.1019
  177fsi     F1 2085   0.149   0.688   0.241 -0.4457  0.1531 -0.5434
  177fsi     S1 2086   0.257   0.798   0.240 -0.4300  0.0461 -0.2752
  177fsi      N 2087   0.349   0.757   0.118 -0.0386  0.1018  0.0427
  177fsi     O1 2088   0.176   0.914   0.213  0.5451 -0.2402  0.3862
  177fsi     O2 2089   0.321   0.796   0.370  0.1886  0.4033  0.2829
  177fsi     S2 2090   0.442   0.631   0.105  0.5187 -0.0967  0.3544
  177fsi     O3 2091   0.440   0.537   0.209 -0.0746 -0.4836 -0.2488
  177fsi     O4 2092   0.568   0.674   0.056  0.0645 -0.0915  0.3060
  177fsi     F2 2093   0.379   0.550  -0.012  0.1068  0.1653  0.2048
  178fsi     F1 2094   2.012   2.957   2.854 -0.0952 -0.1520  0.2849
  178fsi     S1 2095   1.920   3.079   2.891 -0.2285  0.5493  0.1184
  178fsi      N 2096   1.875   3.059   3.039 -0.1364 -0.0295 -0.1866
  178fsi     O1 2097   2.015   3.192   2.884  0.1013  0.4170 -0.3365
  178fsi     O2 2098   1.815   3.064   2.789  0.0586 -0.0699  0.2410
  178fsi     S2 2099   1.749   2.976   3.095  0.0441  0.2004 -0.1974
  178fsi     O3 2100   1.644   2.973   3.000 -0.0902  0.0032  0.8949
  178fsi     O4 2101   1.710   3.008   3.228 -0.7588 -0.4403  0.1778
  178fsi     F2 2102   1.800   2.829   3.104  0.0087  0.0275 -0.0894
  179fsi     F1 2103   0.545   2.216   1.354 -0.0767 -0.1035 -0.2685
  179fsi     S1 2104   0.635   2.096   1.411  0.2005 -0.0071  0.3139
  179fsi      N 2105   0.787   2.136   1.390  0.0781 -0.5719 -0.2630
  179fsi     O1 2106   0.600   2.087   1.550  0.3461 -0.6530  0.5362
  179fsi     O2 2107   0.597   1.984   1.329  0.0706  0.4244 -0.5323
  179fsi     S2 2108   0.901   2.150   1.493  0.1356 -0.3472 -0.3836
  179fsi     O3 2109   0.869   2.111   1.625 -0.3827 -0.2560  0.4577
  179fsi     O4 2110   0.968   2.277   1.486  0.3001  0.6628 -0.0656
  179fsi     F2 2111   1.014   2.047   1.445  0.3049 -0.1583 -0.3033
  180fsi     F1 2112   0.716   0.573   2.809 -0.6580  0.2315  0.0978
  180fsi     S1 2113   0.667   0.690   2.722  0.2491 -0.3484 -0.2890
  180fsi      N 2114   0.749   0.668   2.586  0.8078 -0.0618 -0.1834
  180fsi     O1 2115   0.526   0.654   2.702  0.5422  0.1293 -0.5343
  180fsi     O2 2116   0.694   0.819   2.784  0.1272  0.2821  0.0456
  180fsi     S2 2117   0.894   0.717   2.554  0.3992 -0.3928  0.0386
  180fsi     O3 2118   0.931   0.834   2.628  0.3937 -0.3245  0.5203
  180fsi     O4 2119   0.915   0.707   2.413 -0.4600 -0.0611 -0.5119
  180fsi     F2 2120   0.980   0.607   2.615 -0.9752 -0.4951  0.2569
  181fsi     F1 2121   1.482   2.625   0.719 -0.0648 -0.0772  0.4210
  181fsi     S1 2122   1.472   2.769   0.775 -0.8951  0.3361  0.1183
  181fsi      N 2123   1.492   2.850   0.642  0.7577 -0.5334  0.5841
  181fsi     O1 2124   1.341   2.764   0.831  0.0323  0.4090 -0.4170
  181fsi     O2 2125   1.584   2.767   0.866  0.1013 -0.3453 -0.1144
  181fsi     S2 2126   1.417   2.973   0.577  0.3073  0.2031 -0.3098
  181fsi     O3 2127   1.513   3.039   0.496 -0.2764 -0.1517  0.0927
  181fsi     O4 2128   1.332   3.047   0.664  0.0049 -0.6392  0.2027
  181fsi     F2 2129   1.317   2.905   0.474  0.1095  0.1005 -0.1608
  182fsi     F1 2130   2.503   0.017   0.761 -0.1689 -0.0558  0.0725
  182fsi     S1 2131   2.660   0.020   0.786 -0.5937 -0.6969 -0.0004
  182fsi      N 2132   2.687  -0.094   0.889 -0.0194 -0.0991 -0.1290
  182fsi     O1 2133   2.708  -0.008   0.654  0.0741  0.7219 -0.1994
  182fsi     O2 2134   2.686   0.144   0.846 -0.3079 -0.1549 -0.8289
  182fsi     S2 2135   2.750  -0.240   0.865  0.0488 -0.1532  0.0796
  182fsi     O3 2136   2.816  -0.275   0.988  0.0377 -0.2821  0.2004
  182fsi     O4 2137   2.832  -0.260   0.744  0.2822  0.2255  0.0080
  182fsi     F2 2138   2.629  -0.343   0.859 -0.0082 -0.5093  0.1938
  183fsi     F1 2139   2.873   0.224   2.573  0.0214 -0.3062 -0.1894
  183fsi     S1 2140   2.761   0.129   2.633 -0.1203  0.2032  0.1177
  183fsi      N 2141   2.811  -0.015   2.583 -0.5984 -0.0389  0.2151
  183fsi     O1 2142   2.768   0.153   2.774 -0.0516  0.8271 -0.6062
  183fsi     O2 2143   2.642   0.173   2.567  0.3580 -0.1475  0.2747
  183fsi     S2 2144   2.859  -0.142   2.656  0.3695 -0.1186 -0.1637
  183fsi     O3 2145   2.887  -0.259   2.576  0.5790  0.3996 -0.0500
  183fsi     O4 2146   2.795  -0.158   2.780  0.1865 -0.1997 -0.0220
  183fsi     F2 2147   2.996  -0.092   2.701 -0.4824 -0.2713  0.1293
  184fsi     F1 2148   2.835   2.168   2.595  0.4186 -0.3822 -0.5014
  184fsi     S1 2149   2.723   2.066   2.570  0.2158 -0.3879 -0.0861
  184fsi      N 2150   2.737   2.054   2.414 -0.0080 -0.3835  0.1193
  184fsi     O1 2151   2.763   1.947   2.637  0.3023  0.1889 -0.0255
  184fsi     O2 2152   2.604   2.129   2.623  0.8102  0.6245  0.3337
  184fsi     S2 2153   2.645   2.114   2.301 -0.1834 -0.4967 -0.4620
  184fsi     O3 2154   2.720   2.183   2.200 -0.1145  0.1546 -0.4979
  184fsi     O4 2155   2.528   2.183   2.344 -0.1831  0.4907 -0.4498
  184fsi     F2 2156   2.600   1.979   2.224  0.1134 -0.0629  0.0524
  185fsi     F1 2157   0.016   1.312   0.036 -0.5097 -0.0603  0.2887
  185fsi     S1 2158  -0.068   1.225   0.131 -0.6322 -0.3123 -0.4230
  185fsi      N 2159  -0.086   1.091   0.055  0.4572 -0.0072 -0.0630
  185fsi     O1 2160   0.011   1.210   0.246 -0.2164 -0.0010 -0.1827
  185fsi     O2 2161  -0.182   1.310   0.147  0.2554  0.5484  0.6564
  185fsi     S2 2162  -0.211   1.035  -0.018 -0.3574 -0.1086  0.1441
  185fsi     O3 2163  -0.327   1.117  -0.013  0.0199  0.6670 -0.5041
  185fsi     O4 2164  -0.230   0.892   0.010 -0.0448 -0.4467 -0.0913
  185fsi     F2 2165  -0.172   1.049  -0.174 -0.2994 -0.0579  0.3749
  186fsi     F1 2166   2.892   2.088   0.191 -0.0861 -0.6231  0.3240
  186fsi     S1 2167   2.902   2.143   0.336 -0.5101 -0.1099 -0.1539
  186fsi      N 2168   3.000   2.260   0.330  0.5605  0.0695 -0.9228
  186fsi     O1 2169   2.766   2.191   0.358 -0.1159  1.1297 -0.1058
  186fsi     O2 2170   2.951   2.028   0.419  0.1017  0.0670 -0.8055
  186fsi     S2 2171   3.155   2.258   0.355  0.4061 -0.1034 -0.3884
  186fsi     O3 2172   3.214   2.127   0.332 -0.0556  0.0494  0.3471
  186fsi     O4 2173   3.185   2.321   0.484  1.1575 -0.8117  0.3597
  186fsi     F2 2174   3.217   2.357   0.257 -0.1364 -0.3446 -0.2515
  187fsi     F1 2175   2.218   2.419   1.781  0.0835  0.1640  0.0280
  187fsi     S1 2176   2.171   2.500   1.656 -0.1566  0.6198 -0.2292
  187fsi      N 2177   2.120   2.637   1.728 -0.1548  0.1694  0.6517
  187fsi     O1 2178   2.295   2.516   1.577  0.4251 -0.5898 -0.0864
  187fsi     O2 2179   2.057   2.422   1.604 -0.1382  0.2280  0.3314
  187fsi     S2 2180   1.980   2.705   1.755  0.1389  0.1074  0.0976
  187fsi     O3 2181   1.869   2.651   1.688  0.1087  0.2329 -0.1269
  187fsi     O4 2182   1.989   2.849   1.775 -0.7286  0.7345 -0.1718
  187fsi     F2 2183   1.969   2.663   1.904  0.1781 -0.3934  0.0825
  188fsi     F1 2184   0.020   1.867   1.944  0.3238 -0.0414 -0.0284
  188fsi     S1 2185  -0.028   1.748   1.850  0.2086  0.2509  0.5929
  188fsi      N 2186  -0.089   1.636   1.943  0.2039 -0.2536  0.6076
  188fsi     O1 2187  -0.126   1.816   1.765  0.1257  0.3674  0.1610
  188fsi     O2 2188   0.095   1.715   1.788 -0.3695 -0.0670  0.2312
  188fsi     S2 2189  -0.241   1.611   1.978  0.5120 -0.2894 -0.0017
  188fsi     O3 2190  -0.259   1.509   2.074 -0.2078 -0.0248  1.1974
  188fsi     O4 2191  -0.322   1.607   1.859  1.0652  0.2426 -0.4294
  188fsi     F2 2192  -0.283   1.736   2.063  0.0887  0.3789 -0.3746
  189fsi     F1 2193   0.942   2.991   1.115  0.0096  0.7002 -0.4943
  189fsi     S1 2194   0.798   2.947   1.138  0.3197  0.0366 -0.1572
  189fsi      N 2195   0.710   3.070   1.094  0.3024  0.0884 -0.0990
  189fsi     O1 2196   0.783   2.837   1.046 -0.9301  0.7047 -0.4163
  189fsi     O2 2197   0.796   2.914   1.279  0.1894  0.1712  0.2999
  189fsi     S2 2198   0.625   3.169   1.180  0.2193 -0.0430 -0.4128
  189fsi     O3 2199   0.553   3.262   1.103  0.2289 -0.4892  0.6524
  189fsi     O4 2200   0.690   3.216   1.295 -0.0191  0.2102  0.5045
  189fsi     F2 2201   0.500   3.083   1.240 -0.6721 -0.2071  0.2200
  190fsi     F1 2202   1.868   0.942   2.036  0.3020 -0.1929 -0.0955
  190fsi     S1 2203   1.840   0.989   2.177 -0.0467  0.0864  0.1219
  190fsi      N 2204   1.988   1.002   2.227 -0.6427 -0.7893 -0.4356
  190fsi     O1 2205   1.776   1.116   2.161 -0.2868  0.1254  0.4318
  190fsi     O2 2206   1.756   0.890   2.240  0.5684 -0.1791  0.1716
  190fsi     S2 2207   2.073   0.902   2.321  0.1502  0.1274 -0.1050
  190fsi     O3 2208   1.986   0.837   2.419 -0.5290 -0.7157  0.1501
  190fsi     O4 2209   2.193   0.959   2.370  0.6533 -0.4436  0.2330
  190fsi     F2 2210   2.120   0.790   2.220 -0.1469  0.1658 -0.4726
  191fsi     F1 2211   0.295   2.247   0.018  0.1259  0.0804  0.3116
  191fsi     S1 2212   0.345   2.096  -0.009 -0.1320  0.1233  0.0738
  191fsi      N 2213   0.420   2.102  -0.145  0.3524 -0.4863  0.1695
  191fsi     O1 2214   0.423   2.071   0.111  0.4557 -0.9388  0.2742
  191fsi     O2 2215   0.211   2.035  -0.009 -0.0276 -0.3453  0.3665
  191fsi     S2 2216   0.371   2.092  -0.289 -0.1781 -0.1051 -0.0183
  191fsi     O3 2217   0.227   2.083  -0.309 -1.0868 -0.1531  0.2357
  191fsi     O4 2218   0.457   2.012  -0.372 -0.5975  0.2613 -0.5770
  191fsi     F2 2219   0.407   2.230  -0.347  0.1076  0.0219  0.1940
  192fsi     F1 2220   2.777   0.503   0.614  0.1418  0.0674 -0.1940
  192fsi     S1 2221   2.707   0.570   0.744  0.0419 -0.0679 -0.9531
  192fsi      N 2222   2.554   0.558   0.709  0.0424  0.0026  0.0523
  192fsi     O1 2223   2.759   0.484   0.849 -0.2282 -0.2735  0.1995
  192fsi     O2 2224   2.761   0.704   0.755  0.3544  0.0202  0.1874
  192fsi     S2 2225   2.445   0.464   0.756  0.0483 -0.0251  0.3492
  192fsi     O3 2226   2.311   0.516   0.734  0.2000  0.3163 -0.0615
  192fsi     O4 2227   2.473   0.400   0.878  0.0671  0.5121 -0.4204
  192fsi     F2 2228   2.452   0.350   0.643 -0.5522  0.3642 -0.2340
  193fsi     F1 2229   1.346   1.272   2.403  0.0846  0.0756 -0.0447
  193fsi     S1 2230   1.411   1.411   2.368 -0.4708 -0.7207  0.0564
  193fsi      N 2231   1.305   1.483   2.271 -0.1018  0.0824 -0.4854
  193fsi     O1 2232   1.425   1.474   2.496  0.4129  0.0529 -0.2169
  193fsi     O2 2233   1.535   1.368   2.314  0.0734 -0.1723 -0.0286
  193fsi     S2 2234   1.200   1.595   2.299 -0.1461  0.1853 -0.0592
  193fsi     O3 2235   1.136   1.578   2.429 -0.3098 -0.4510  0.5595
  193fsi     O4 2236   1.114   1.622   2.182 -0.5822 -0.0485  0.0564
  193fsi     F2 2237   1.288   1.726   2.316 -0.0292 -0.1973 -0.2712
  194fsi     F1 2238   1.484   1.144   1.103  0.0058 -0.5653  0.0341
  194fsi     S1 2239   1.631   1.145   1.051  0.0845 -0.0437 -0.2622
  194fsi      N 2240   1.683   1.287   1.095  0.1666  0.3730  0.0112
  194fsi     O1 2241   1.691   1.033   1.122 -0.1493  0.1801 -0.0327
  194fsi     O2 2242   1.608   1.134   0.912  0.1880  0.7905 -0.8990
  194fsi     S2 2243   1.830   1.316   1.126  0.3172  0.0308  0.0787
  194fsi     O3 2244   1.842   1.459   1.137  0.1537  0.1098  0.3223
  194fsi     O4 2245   1.929   1.252   1.043  0.3430 -0.4234 -0.0951
  194fsi     F2 2246   1.846   1.262   1.272 -0.1932  0.4325  0.0692
  195fsi     F1 2247   1.971   3.008   1.333  0.1146  0.2740  0.1961
  195fsi     S1 2248   1.904   3.126   1.408 -0.0456 -0.0534 -0.0989
  195fsi      N 2249   1.966   3.113   1.558  0.7477 -0.0934  0.3484
  195fsi     O1 2250   1.938   3.244   1.336  0.4359 -0.2073  0.0348
  195fsi     O2 2251   1.765   3.092   1.415  0.0677 -0.7342 -0.3950
  195fsi     S2 2252   2.080   3.203   1.625 -0.0924  0.2165  0.2797
  195fsi     O3 2253   2.177   3.261   1.534  0.2952  0.6319 -0.1844
  195fsi     O4 2254   2.129   3.141   1.741 -0.5439  0.1950  0.2501
  195fsi     F2 2255   2.009   3.331   1.691 -0.3941  0.2635 -0.1977
  196fsi     F1 2256   2.421   0.140   2.084  0.0986 -0.1289 -0.1328
  196fsi     S1 2257   2.399   0.137   2.237  0.0050 -0.3536  0.3385
  196fsi      N 2258   2.475   0.266   2.281  0.2260 -0.8455 -0.6490
  196fsi     O1 2259   2.254   0.133   2.270  0.3730 -0.1247  0.2558
  196fsi     O2 2260   2.468   0.017   2.275 -0.0818 -0.7950  0.8217
  196fsi     S2 2261   2.428   0.414   2.273  0.4420 -0.3650  0.1137
  196fsi     O3 2262   2.332   0.436   2.169  0.7178  0.1879 -0.0183
  196fsi     O4 2263   2.535   0.504   2.293  0.3075 -0.2319 -0.3706
  196fsi     F2 2264   2.345   0.437   2.403 -0.4476  0.6460 -0.4469
  197fsi     F1 2265   1.032   2.779   0.356 -0.3740  0.2327 -0.0523
  197fsi     S1 2266   1.090   2.727   0.227 -0.0535  0.0295 -0.4009
  197fsi      N 2267   1.232   2.791   0.210  0.2449 -0.4379 -0.6485
  197fsi     O1 2268   1.098   2.585   0.259  0.1849  0.2221 -0.0622
  197fsi     O2 2269   0.993   2.769   0.133  0.5740 -0.3460  0.7762
  197fsi     S2 2270   1.369   2.714   0.198 -0.0978 -0.2011  0.3788
  197fsi     O3 2271   1.362   2.574   0.222 -0.1817  0.1415  1.0528
  197fsi     O4 2272   1.482   2.791   0.249 -0.5262 -0.0136  0.4988
  197fsi     F2 2273   1.385   2.719   0.043 -0.0351 -0.2818  0.3566
  198fsi     F1 2274   2.092   1.307   2.263  0.0144  0.0552 -0.5286
  198fsi     S1 2275   2.007   1.440   2.252 -0.0754  0.0341  0.2452
  198fsi      N 2276   2.021   1.486   2.104 -0.3615 -0.5809 -0.1507
  198fsi     O1 2277   1.873   1.395   2.284  0.6000  0.8343  0.3612
  198fsi     O2 2278   2.056   1.535   2.342 -0.6801 -0.2666 -0.1419
  198fsi     S2 2279   1.928   1.471   1.974 -0.0230  0.1733  0.2467
  198fsi     O3 2280   1.930   1.586   1.891  0.4236  0.7265  0.2571
  198fsi     O4 2281   1.803   1.409   2.007 -0.3163  0.5322  0.1554
  198fsi     F2 2282   1.997   1.357   1.885 -0.1412  0.4086  0.2604
  199fsi     F1 2283   0.749   0.012   2.249  0.6411  0.1236  0.3252
  199fsi     S1 2284   0.732   0.140   2.152 -0.2863  0.1524 -0.1400
  199fsi      N 2285   0.706   0.256   2.259  0.3170  0.2188 -0.8655
  199fsi     O1 2286   0.865   0.154   2.097 -0.1846  0.1453  0.3590
  199fsi     O2 2287   0.626   0.101   2.060 -0.0327 -0.8680  0.2372
  199fsi     S2 2288   0.609   0.375   2.235  0.2493 -0.0241 -0.0593
  199fsi     O3 2289   0.508   0.394   2.339 -0.7613  0.0241 -0.3475
  199fsi     O4 2290   0.574   0.402   2.098  0.8319  0.2111  0.2863
  199fsi     F2 2291   0.704   0.494   2.263 -0.2216 -0.6867  0.0425
  200fsi     F1 2292   1.142   2.979   2.668  0.4388 -0.1044 -0.0582
  200fsi     S1 2293   1.224   2.888   2.763  0.1827  0.3383  0.3760
  200fsi      N 2294   1.112   2.826   2.842 -0.7544  0.6798  0.2402
  200fsi     O1 2295   1.296   2.797   2.680 -0.3028 -0.2692 -0.3323
  200fsi     O2 2296   1.309   2.975   2.838  0.0619 -0.5686 -0.0575
  200fsi     S2 2297   1.041   2.684   2.822  0.3053  0.1067 -0.2045
  200fsi     O3 2298   1.068   2.606   2.702  0.8793  0.3111  0.0114
  200fsi     O4 2299   0.905   2.682   2.864  0.1741  0.2213 -0.4275
  200fsi     F2 2300   1.112   2.604   2.933 -0.5436  0.2975 -0.0349
   3.00929   3.00929   3.00929
