simbox
 2300
    1Li      Li    1   1.668   1.474   1.307  0.1308 -0.4791 -1.6318
    2Li      Li    2   1.464   1.605   0.705 -0.8112 -0.1641 -0.4405
    3Li      Li    3   2.328   2.863   1.710 -0.9777  0.5446 -0.1238
    4Li      Li    4   1.049   2.544   2.217  0.7159  0.3913  0.0731
    5Li      Li    5   1.566   1.833   0.208 -0.0334 -0.5712 -0.0191
    6Li      Li    6   2.183   0.317   1.289  0.4390  0.0109  0.7094
    7Li      Li    7   2.470   2.222   0.936  0.4738  0.1084 -0.6722
    8Li      Li    8   0.644   0.810   3.056  0.5384  0.3391  1.1840
    9Li      Li    9   1.357   2.406   0.262  0.3296 -0.6552  0.1453
   10Li      Li   10   2.031   2.169   1.323  0.2552  0.1841 -0.4420
   11Li      Li   11   3.040   2.721   1.215 -0.2437 -0.2055 -0.3338
   12Li      Li   12   1.616   1.285   1.627  0.0472 -0.5355  0.5466
   13Li      Li   13   1.839   2.507   1.771 -0.7100 -0.3405  0.0817
   14Li      Li   14   2.588   1.369   3.082 -0.4708 -0.4336 -0.0488
   15Li      Li   15   0.608   2.191   1.907  0.4234 -0.1054 -0.1058
   16Li      Li   16   0.193   2.020   0.297 -0.3991 -1.3023  0.3884
   17Li      Li   17   1.287   0.997   1.863 -0.3932 -0.0979 -0.1367
   18Li      Li   18   1.585   2.629   2.593  0.2932 -0.5170 -0.1767
   19Li      Li   19   2.376   1.882   2.906 -0.7415  0.3886  0.2977
   20Li      Li   20   0.854   1.694   2.229 -0.8076 -0.1219 -0.3249
   21Li      Li   21   2.817   0.183   1.096  0.1061  0.6301 -0.2487
   22Li      Li   22   1.607   0.960   0.722 -0.1481 -0.1292 -0.3490
   23Li      Li   23   0.200   1.278   1.362  0.0514  0.9425 -0.3615
   24Li      Li   24   1.901   2.323   0.628 -0.5689 -0.0972 -0.2059
   25Li      Li   25   1.887   0.861   1.292 -0.1256  0.3691 -0.9020
   26Li      Li   26   0.474   0.462   0.359 -0.2819  0.3477  0.0799
   27Li      Li   27   0.552   0.919   0.603 -0.1233 -0.3261  0.1979
   28Li      Li   28   1.647   0.916   2.298  0.2690  0.3378 -0.6359
   29Li      Li   29   1.659   0.011   2.947 -0.9390 -0.4471 -0.2306
   30Li      Li   30   2.000   1.909   0.189 -0.6635 -0.1830 -0.5050
   31Li      Li   31   2.581   2.511   1.441  0.0629 -0.4505  0.5221
   32Li      Li   32   0.356   1.278   0.724 -0.2106  0.6689 -0.5757
   33Li      Li   33   1.662   2.887   0.495  0.0346 -0.1673  0.5287
   34Li      Li   34   2.714   1.434   1.637  0.1538 -0.4628  0.3945
   35Li      Li   35   2.393   2.389   2.569 -0.1091  0.5674  0.8112
   36Li      Li   36   0.578   3.063   3.028  1.6037 -1.8493  0.1366
   37Li      Li   37   2.196   1.035   1.107  0.0343  0.2629 -0.3434
   38Li      Li   38   2.581   2.237   0.284 -0.4059  1.1364  0.0810
   39Li      Li   39   1.371   2.852   2.388 -0.5300  0.3505 -0.3476
   40Li      Li   40   2.378   0.687   0.829 -0.6023  1.0382 -0.1007
   41Li      Li   41   0.046   1.175   0.341  0.2701 -0.2600 -0.6305
   42Li      Li   42   2.895   2.979   0.544  0.0276  1.0079  0.2669
   43Li      Li   43   2.625   3.057   2.457  0.5592 -0.4032  0.3619
   44Li      Li   44   2.852   0.331   0.774 -0.6281  0.0810 -0.4849
   45Li      Li   45   0.165   0.496   0.760  0.8971 -0.2135 -0.4487
   46Li      Li   46   1.773   1.406   2.106  0.4301 -0.9349 -0.1992
   47Li      Li   47   1.439   0.673   1.484  0.4930 -0.1676 -0.4390
   48Li      Li   48   0.457   0.573   2.626  0.8760  0.9052  0.1482
   49Li      Li   49   2.815   0.423   2.384  0.2467  0.7941 -0.4599
   50Li      Li   50   1.975   1.930   1.880  0.0666 -0.0511  0.5527
   51c3c      N   51   1.131   1.573   2.927 -0.0742 -0.1079  0.2909
   51c3c     C1   52   1.073   1.567   3.066 -0.3401 -0.4881 -0.2538
   51c3c     C2   53   1.272   1.591   2.958  0.7231  0.6005  0.1739
   51c3c     C3   54   1.164   1.486   3.152 -0.1889 -0.4693 -0.8873
   51c3c     C4   55   1.297   1.507   3.085  0.0199 -0.2590 -0.1249
   51c3c     C5   56   1.113   1.444   2.856  0.3112  0.3742 -0.5690
   51c3c     C6   57   1.068   1.679   2.842 -0.0443 -0.2034  0.8589
   51c3c     H1   58   0.967   1.541   3.057 -0.4498  0.2982 -1.3936
   51c3c     H2   59   1.073   1.669   3.104  1.4530  0.0840 -1.6883
   51c3c     H3   60   1.343   1.565   2.879 -0.5037  0.6149 -0.9345
   51c3c     H4   61   1.300   1.693   2.985  1.0623  0.7175 -0.5944
   51c3c     H5   62   1.146   1.379   3.147 -0.7697 -0.4265  0.1976
   51c3c     H6   63   1.160   1.511   3.258 -1.3294 -1.9882 -0.5678
   51c3c     H7   64   1.346   1.411   3.066  1.8546  1.2835 -3.6530
   51c3c     H8   65   1.360   1.551   3.162 -0.2511 -0.0355 -0.0316
   51c3c     H9   66   1.007   1.418   2.854  0.3846  0.1106 -1.0457
   51c3c    H10   67   1.144   1.453   2.752 -1.0337 -1.9893 -1.2018
   51c3c    H11   68   1.164   1.360   2.902  0.7842  0.4406 -0.9637
   51c3c    H12   69   1.107   1.658   2.743 -0.8415  0.7404  0.3335
   51c3c    H13   70   0.961   1.662   2.833 -0.0091  0.2163 -0.4454
   51c3c     C7   71   1.117   1.825   2.858 -0.1030  0.2078  0.1920
   51c3c    H14   72   1.225   1.839   2.862 -0.0212  0.0440 -1.2457
   51c3c    H15   73   1.076   1.860   2.953  3.6466 -0.3416  2.0738
   51c3c     C8   74   1.066   1.919   2.754  0.0546  0.1354  0.2186
   51c3c    H16   75   1.108   1.910   2.654  3.3542  2.1785  1.3483
   51c3c    H17   76   1.099   2.021   2.774  0.9403 -0.0144 -0.4182
   51c3c    H18   77   0.958   1.902   2.746  0.4248 -1.3214 -2.3744
   52c3c      N   78   1.394   2.300   1.072 -0.1101  0.4425 -0.0905
   52c3c     C1   79   1.388   2.155   1.104  0.2796 -0.8209  0.0504
   52c3c     C2   80   1.448   2.365   1.196  0.4682  0.0010  0.1623
   52c3c     C3   81   1.505   2.133   1.200 -0.8522 -0.7068 -0.3002
   52c3c     C4   82   1.527   2.269   1.273 -0.6735  0.0729 -0.0654
   52c3c     C5   83   1.501   2.315   0.969  0.0702  0.5302  0.3528
   52c3c     C6   84   1.271   2.356   1.013  0.0786 -0.1249 -0.0488
   52c3c     H1   85   1.395   2.092   1.015  0.3225  0.6904 -1.0370
   52c3c     H2   86   1.295   2.124   1.151  0.9930  1.5797  3.2121
   52c3c     H3   87   1.486   2.467   1.189  0.5943 -0.0513  0.0801
   52c3c     H4   88   1.368   2.388   1.266  1.1086  0.7850  0.6413
   52c3c     H5   89   1.586   2.103   1.135 -1.8260  2.7782 -3.2518
   52c3c     H6   90   1.492   2.069   1.287 -0.4012 -1.9282 -1.1204
   52c3c     H7   91   1.633   2.291   1.265 -0.0182 -2.6429  0.8687
   52c3c     H8   92   1.496   2.265   1.377  0.0209  0.1971  0.1459
   52c3c     H9   93   1.477   2.256   0.881 -1.4328 -0.3266  1.3171
   52c3c    H10   94   1.509   2.419   0.936  0.4948  0.6309  0.7610
   52c3c    H11   95   1.598   2.279   1.004 -1.0725 -2.1565  0.9099
   52c3c    H12   96   1.281   2.455   0.969 -1.1318  0.2820  0.5744
   52c3c    H13   97   1.253   2.279   0.938  1.7365 -0.0163 -0.5746
   52c3c     C7   98   1.142   2.353   1.098  0.8765  0.2617 -0.0657
   52c3c    H14   99   1.137   2.437   1.168  3.2663 -0.4511  1.0206
   52c3c    H15  100   1.126   2.259   1.150 -0.4823 -0.0369 -1.0025
   52c3c     C8  101   1.023   2.369   1.000 -0.0607  0.6038  0.0369
   52c3c    H16  102   1.021   2.463   0.946  0.1100  0.3466 -0.4156
   52c3c    H17  103   0.929   2.364   1.055  0.0066  2.6957  0.3790
   52c3c    H18  104   1.030   2.283   0.933  0.8925 -1.7477  2.9859
   53c3c      N  105   1.730   1.363   2.688  0.8406  0.0316  0.7075
   53c3c     C1  106   1.579   1.360   2.710 -0.4863 -0.5320 -0.2871
   53c3c     C2  107   1.746   1.260   2.589 -0.3021 -0.7900  0.2220
   53c3c     C3  108   1.525   1.366   2.565  0.3433  0.0001  0.3355
   53c3c     C4  109   1.624   1.268   2.500  0.3456 -0.0720  0.8133
   53c3c     C5  110   1.785   1.486   2.632  0.3003  1.2411 -0.8172
   53c3c     C6  111   1.800   1.337   2.820 -0.5965 -0.0870 -0.1772
   53c3c     H1  112   1.551   1.444   2.773 -0.5112 -0.6578 -0.1292
   53c3c     H2  113   1.535   1.272   2.756 -0.4518 -0.3408  0.1147
   53c3c     H3  114   1.838   1.269   2.531  0.8847 -1.6407  1.9249
   53c3c     H4  115   1.750   1.159   2.630 -0.1974 -1.1219 -0.5970
   53c3c     H5  116   1.520   1.468   2.526 -2.2794 -0.1709  0.1789
   53c3c     H6  117   1.428   1.321   2.549  0.8333 -1.7618  2.1034
   53c3c     H7  118   1.646   1.281   2.394  0.4033  2.2780  1.0913
   53c3c     H8  119   1.569   1.175   2.516  1.0586 -0.2075  2.5901
   53c3c     H9  120   1.770   1.566   2.704  0.4568 -1.5721  2.5250
   53c3c    H10  121   1.893   1.470   2.625 -0.1497 -2.0618 -0.9214
   53c3c    H11  122   1.738   1.514   2.539 -0.4143  0.3270 -0.7376
   53c3c    H12  123   1.905   1.320   2.800 -1.2052 -1.6230 -2.2662
   53c3c    H13  124   1.798   1.423   2.888  0.0884 -1.4923  1.6367
   53c3c     C7  125   1.758   1.217   2.903  0.2020 -0.0133 -0.2962
   53c3c    H14  126   1.752   1.133   2.835  1.2239  0.3153 -0.8153
   53c3c    H15  127   1.662   1.242   2.946 -0.4829  1.6115 -2.6463
   53c3c     C8  128   1.864   1.179   3.010 -0.3335 -0.2791 -0.0268
   53c3c    H16  129   1.922   1.263   3.047  1.5082 -0.9764 -1.2759
   53c3c    H17  130   1.930   1.105   2.965 -0.4820 -1.1268  1.1570
   53c3c    H18  131   1.810   1.142   3.096  0.0795 -0.5642  0.1069
   54c3c      N  132   2.050   2.681   1.068  0.6146 -0.1540 -0.8483
   54c3c     C1  133   1.922   2.747   1.080 -0.0756  0.8724 -0.2328
   54c3c     C2  134   2.091   2.662   1.207  0.1399  0.6404  0.0122
   54c3c     C3  135   1.854   2.673   1.192 -0.1706 -0.3867  0.2279
   54c3c     C4  136   1.965   2.621   1.277  0.1576  0.0644  0.1356
   54c3c     C5  137   2.044   2.554   0.998 -0.0860 -0.0848  0.4986
   54c3c     C6  138   2.141   2.759   0.985 -0.4520 -0.1512 -0.7444
   54c3c     H1  139   1.866   2.733   0.987  1.9136  0.6781 -1.4200
   54c3c     H2  140   1.933   2.854   1.098 -0.9852  1.0163 -0.4609
   54c3c     H3  141   2.179   2.598   1.218  0.1127  0.2016 -2.0835
   54c3c     H4  142   2.121   2.754   1.256 -2.0902  0.7446  1.2214
   54c3c     H5  143   1.807   2.585   1.147  0.1283  0.1561 -1.1880
   54c3c     H6  144   1.786   2.736   1.248 -1.4053 -0.8577 -0.7193
   54c3c     H7  145   1.965   2.512   1.284  0.6587 -0.0344 -1.2318
   54c3c     H8  146   1.961   2.667   1.376  0.4880 -1.0276  0.6631
   54c3c     H9  147   2.058   2.549   0.890  1.9892 -1.3238  0.7956
   54c3c    H10  148   2.122   2.486   1.033 -1.7335 -3.1276 -1.5106
   54c3c    H11  149   1.954   2.493   1.007 -1.0911  1.4315  0.7598
   54c3c    H12  150   2.225   2.692   0.968 -2.5357 -2.8865 -0.6122
   54c3c    H13  151   2.112   2.779   0.882  0.7642  0.3327 -1.0071
   54c3c     C7  152   2.197   2.893   1.040 -0.1420  0.6542 -0.4318
   54c3c    H14  153   2.247   2.871   1.134  1.1710  1.4146 -0.9448
   54c3c    H15  154   2.112   2.960   1.053 -0.6393  0.2668 -1.5877
   54c3c     C8  155   2.302   2.957   0.950 -0.1734  0.3408  0.0416
   54c3c    H16  156   2.386   2.889   0.935  1.3676  2.0942  0.5934
   54c3c    H17  157   2.355   3.043   0.991  1.5698  0.7197 -2.8432
   54c3c    H18  158   2.270   2.984   0.849  2.9040  0.2698 -1.0209
   55c3c      N  159   0.841   2.477   0.248 -0.1488  0.2859 -0.2831
   55c3c     C1  160   0.932   2.536   0.153  0.4328  0.8581  0.3195
   55c3c     C2  161   0.708   2.547   0.221 -0.1023  0.0984  0.5897
   55c3c     C3  162   0.851   2.551   0.026  0.1771 -0.0702  0.1693
   55c3c     C4  163   0.704   2.566   0.070 -0.0493 -0.3156  0.4629
   55c3c     C5  164   0.840   2.329   0.219 -0.3262  0.6445 -0.1817
   55c3c     C6  165   0.874   2.485   0.391 -0.0513 -0.4415  0.5896
   55c3c     H1  166   1.031   2.492   0.139 -0.1548 -0.4049  0.1673
   55c3c     H2  167   0.952   2.642   0.172 -1.6160  1.3442 -0.1148
   55c3c     H3  168   0.615   2.497   0.246 -1.1467  1.6869 -0.0636
   55c3c     H4  169   0.713   2.645   0.269  0.5285  0.4015 -0.0877
   55c3c     H5  170   0.854   2.470  -0.047 -1.8692  1.7637 -2.0378
   55c3c     H6  171   0.885   2.643  -0.021  0.8772  0.2490  1.2699
   55c3c     H7  172   0.647   2.489   0.018 -0.6230 -1.3054  2.4854
   55c3c     H8  173   0.661   2.661   0.037  1.7864  0.9100  1.5340
   55c3c     H9  174   0.937   2.287   0.247 -0.9021  0.3062  1.3654
   55c3c    H10  175   0.766   2.279   0.281  0.1656  0.5116  0.3038
   55c3c    H11  176   0.825   2.305   0.114  1.0368  1.9413 -0.6930
   55c3c    H12  177   0.797   2.438   0.453 -1.3185  1.4173  0.4416
   55c3c    H13  178   0.964   2.424   0.402  1.3285  1.6395  1.0975
   55c3c     C7  179   0.908   2.625   0.443 -0.0855 -0.0804  0.5175
   55c3c    H14  180   0.821   2.689   0.431 -0.2008 -0.2506  0.4388
   55c3c    H15  181   0.983   2.693   0.402  0.4187 -0.8917  0.0792
   55c3c     C8  182   0.911   2.627   0.594 -1.0495  0.0688  0.2536
   55c3c    H16  183   0.935   2.726   0.632  0.4214  0.1789 -0.9150
   55c3c    H17  184   0.981   2.555   0.637 -0.5915 -0.9285 -2.0762
   55c3c    H18  185   0.810   2.601   0.626 -0.5374 -0.8936  1.1072
   56c3c      N  186   1.348   2.307   1.721  0.5154  0.1583 -0.1812
   56c3c     C1  187   1.234   2.382   1.781  0.1653  0.3661  0.6554
   56c3c     C2  188   1.282   2.204   1.638  0.2529 -0.2169  0.7761
   56c3c     C3  189   1.121   2.386   1.666  0.0193  0.2409 -0.8647
   56c3c     C4  190   1.173   2.283   1.561 -0.4212 -0.2683  0.1101
   56c3c     C5  191   1.424   2.402   1.636  0.4166 -0.4624 -0.7475
   56c3c     C6  192   1.441   2.260   1.829  0.3012 -0.0682  0.3884
   56c3c     H1  193   1.261   2.480   1.820 -0.1364  1.1018 -0.9267
   56c3c     H2  194   1.193   2.319   1.860 -1.7183 -0.5249 -0.9842
   56c3c     H3  195   1.349   2.158   1.564 -0.9041  0.3483 -0.6437
   56c3c     H4  196   1.241   2.128   1.705 -0.1610 -1.0831 -0.4377
   56c3c     H5  197   1.124   2.480   1.609  0.5885  0.0210 -1.2068
   56c3c     H6  198   1.017   2.374   1.694 -0.0467  0.0126 -1.2027
   56c3c     H7  199   1.216   2.331   1.473  0.8339 -0.9580  0.3363
   56c3c     H8  200   1.093   2.222   1.517  0.6594 -1.0872 -0.7295
   56c3c     H9  201   1.440   2.495   1.692 -0.6810  0.6251 -2.2222
   56c3c    H10  202   1.517   2.350   1.612  1.5591  0.4573  1.4533
   56c3c    H11  203   1.380   2.443   1.546  0.6522  0.3673 -0.4946
   56c3c    H12  204   1.509   2.194   1.776 -0.1766  0.8241 -1.3941
   56c3c    H13  205   1.503   2.340   1.868 -1.5435  2.0893 -0.9503
   56c3c     C7  206   1.380   2.173   1.945  0.3844 -0.3372  0.5663
   56c3c    H14  207   1.303   2.106   1.907 -0.6232  1.2181 -0.1881
   56c3c    H15  208   1.336   2.244   2.015  0.8016  0.9067 -0.3996
   56c3c     C8  209   1.478   2.092   2.024  0.0292 -0.4325 -0.0861
   56c3c    H16  210   1.560   2.052   1.964  0.0990  1.3583 -1.2245
   56c3c    H17  211   1.434   2.005   2.073  0.6446  0.2850  1.7669
   56c3c    H18  212   1.520   2.151   2.105  1.1323  0.3531 -1.2181
   57c3c      N  213   2.246   1.666   1.332 -0.5040  0.4020  0.3576
   57c3c     C1  214   2.336   1.561   1.269 -0.7240 -0.0195  0.4381
   57c3c     C2  215   2.305   1.794   1.296 -0.4876  0.0210  0.5973
   57c3c     C3  216   2.361   1.630   1.129 -0.3510 -0.4635  0.3869
   57c3c     C4  217   2.333   1.784   1.147 -0.4923 -0.6639 -0.0826
   57c3c     C5  218   2.112   1.647   1.276 -0.7930 -0.1591 -0.0708
   57c3c     C6  219   2.236   1.643   1.481 -0.2631 -0.1483  0.1667
   57c3c     H1  220   2.285   1.465   1.260  0.3116 -0.5895  0.6038
   57c3c     H2  221   2.428   1.551   1.326 -1.3304 -1.3614  1.2098
   57c3c     H3  222   2.232   1.873   1.318  0.8427  1.1659  0.9843
   57c3c     H4  223   2.401   1.812   1.344  0.2438 -2.9283  0.3309
   57c3c     H5  224   2.317   1.579   1.043  1.0579 -4.0477  1.6897
   57c3c     H6  225   2.469   1.624   1.112 -0.2438  0.9406  0.5748
   57c3c     H7  226   2.239   1.806   1.096  0.8097  1.8966 -1.4757
   57c3c     H8  227   2.417   1.847   1.119 -0.0510 -1.0840  0.2863
   57c3c     H9  228   2.091   1.542   1.300  0.3035 -0.5431 -0.7487
   57c3c    H10  229   2.028   1.701   1.319 -2.1006 -1.9649 -0.2666
   57c3c    H11  230   2.096   1.659   1.169  1.9534 -2.0127 -0.7421
   57c3c    H12  231   2.162   1.714   1.520 -0.2121  0.6173 -1.1064
   57c3c    H13  232   2.191   1.546   1.501  0.6590 -0.5180  0.4746
   57c3c     C7  233   2.365   1.639   1.570  0.0736 -0.3949 -0.0999
   57c3c    H14  234   2.416   1.734   1.569 -1.0742  0.2296 -0.7248
   57c3c    H15  235   2.435   1.563   1.535  1.6685  0.8311  0.3784
   57c3c     C8  236   2.326   1.595   1.717 -0.3287 -0.6637 -0.0080
   57c3c    H16  237   2.410   1.591   1.787 -1.1172  0.4034  1.0121
   57c3c    H17  238   2.280   1.499   1.739  2.3009 -2.0050 -0.0991
   57c3c    H18  239   2.261   1.671   1.761 -1.2865 -1.4704 -0.0209
   58c3c      N  240   0.968   0.062   1.739  0.1576  0.2278 -1.4517
   58c3c     C1  241   1.012   0.098   1.608  0.6732  0.1242  0.4054
   58c3c     C2  242   0.976  -0.084   1.736  0.4665  0.0235  0.0023
   58c3c     C3  243   1.128   0.001   1.578  0.0831 -0.2098 -0.0121
   58c3c     C4  244   1.105  -0.115   1.666 -0.8214  0.0360 -0.0169
   58c3c     C5  245   1.057   0.116   1.850 -0.7180 -0.2088  0.3324
   58c3c     C6  246   0.842   0.123   1.780  0.0910  0.0863 -0.1762
   58c3c     H1  247   1.059   0.197   1.606  1.3402 -0.1779  0.9302
   58c3c     H2  248   0.933   0.095   1.533 -0.1474 -0.2323  1.2761
   58c3c     H3  249   0.968  -0.123   1.837  1.2410 -1.0535 -0.3561
   58c3c     H4  250   0.891  -0.123   1.680 -1.3790 -0.4906  3.0090
   58c3c     H5  251   1.228   0.037   1.600  0.0845 -0.6537  0.7238
   58c3c     H6  252   1.140  -0.018   1.471  2.8726 -2.0423  0.5858
   58c3c     H7  253   1.196  -0.121   1.725 -0.3328  0.6362 -0.6897
   58c3c     H8  254   1.103  -0.212   1.616  0.2338 -0.3820  0.7206
   58c3c     H9  255   1.064   0.224   1.844  1.7730 -0.3586 -0.1782
   58c3c    H10  256   1.020   0.082   1.947 -0.3793  1.7311  1.1480
   58c3c    H11  257   1.161   0.084   1.845 -0.1586  1.3402  1.9091
   58c3c    H12  258   0.820   0.115   1.887  0.1480  0.6940 -0.1161
   58c3c    H13  259   0.850   0.230   1.758 -2.0031  0.1349 -0.8001
   58c3c     C7  260   0.717   0.078   1.699  0.3457  0.0696  0.2631
   58c3c    H14  261   0.699  -0.028   1.719 -0.8973  0.1166 -0.4874
   58c3c    H15  262   0.721   0.088   1.590  0.9155 -1.8353  0.0829
   58c3c     C8  263   0.594   0.156   1.749  0.0773  0.2188 -0.2176
   58c3c    H16  264   0.498   0.141   1.698  0.1903 -3.2964  0.4265
   58c3c    H17  265   0.611   0.263   1.755 -0.8379  0.4501 -1.4722
   58c3c    H18  266   0.573   0.112   1.847  1.9610 -1.9271 -0.7302
   59c3c      N  267   1.571   0.753   3.069  0.9083 -0.4074 -0.9058
   59c3c     C1  268   1.455   0.662   3.059 -0.0750 -0.0107 -0.3676
   59c3c     C2  269   1.524   0.888   3.035  0.5563  0.1129 -0.4318
   59c3c     C3  270   1.337   0.756   3.101  0.0800  0.0000 -0.2025
   59c3c     C4  271   1.383   0.906   3.088 -0.0786  0.2566  0.0245
   59c3c     C5  272   1.612   0.757   3.217  0.1219 -0.4173  0.2024
   59c3c     C6  273   1.690   0.704   2.997 -0.1791  0.0617 -0.5739
   59c3c     H1  274   1.463   0.566   3.109  3.3369  0.5067  0.2120
   59c3c     H2  275   1.437   0.631   2.956 -2.3528  3.1618 -1.0108
   59c3c     H3  276   1.589   0.967   3.072 -0.9852  0.3698  1.9015
   59c3c     H4  277   1.500   0.893   2.929  0.5804  0.5098 -0.4193
   59c3c     H5  278   1.292   0.747   3.200 -1.7102 -2.5993 -1.2125
   59c3c     H6  279   1.250   0.740   3.037 -1.8685  2.5608  1.6862
   59c3c     H7  280   1.403   0.961   3.180 -0.6509  2.1383 -0.9586
   59c3c     H8  281   1.318   0.968   3.026 -0.5889 -0.7126 -0.4118
   59c3c     H9  282   1.640   0.657   3.252 -0.1625  0.5439  3.2295
   59c3c    H10  283   1.697   0.824   3.225 -0.4961  0.2766  1.0217
   59c3c    H11  284   1.538   0.796   3.287  0.1993 -1.1508  0.6972
   59c3c    H12  285   1.773   0.765   3.031 -0.9896  1.0412 -0.3150
   59c3c    H13  286   1.718   0.603   3.029 -0.4834  0.0256 -0.4140
   59c3c     C7  287   1.689   0.730   2.844 -0.2368 -0.0054  0.1762
   59c3c    H14  288   1.690   0.837   2.824 -0.0895 -0.2705 -1.2442
   59c3c    H15  289   1.598   0.701   2.793 -1.9033  3.1920  1.1901
   59c3c     C8  290   1.822   0.672   2.780  0.3789 -1.0543 -0.2487
   59c3c    H16  291   1.838   0.711   2.680  1.0383 -0.8269 -0.0551
   59c3c    H17  292   1.827   0.563   2.770  0.9123 -1.1662  1.0997
   59c3c    H18  293   1.912   0.697   2.835  0.7701  0.2318 -1.4430
   60c3c      N  294   2.997   2.396   0.756  0.2431  0.5258 -0.0456
   60c3c     C1  295   3.082   2.505   0.717 -0.3140  0.3503  0.0619
   60c3c     C2  296   3.047   2.279   0.675  0.0464 -0.3126 -0.6601
   60c3c     C3  297   3.225   2.439   0.695  0.8437 -0.2539  0.4067
   60c3c     C4  298   3.200   2.285   0.674  0.2583 -0.5401 -0.3133
   60c3c     C5  299   3.007   2.367   0.899 -0.1831 -0.8902 -0.0670
   60c3c     C6  300   2.850   2.422   0.739 -0.1012 -0.0553  0.1424
   60c3c     H1  301   3.094   2.592   0.781  0.8910 -0.1567  0.5325
   60c3c     H2  302   3.051   2.543   0.619 -0.8843 -1.2507 -0.3978
   60c3c     H3  303   3.005   2.186   0.713  2.4133 -0.9998  0.3892
   60c3c     H4  304   3.024   2.288   0.569 -0.0182  0.0065 -0.6188
   60c3c     H5  305   3.289   2.453   0.781  1.2568  0.0411  0.0552
   60c3c     H6  306   3.271   2.492   0.611 -0.4498  0.9626  0.4480
   60c3c     H7  307   3.242   2.237   0.763  1.7942 -0.6246 -1.0489
   60c3c     H8  308   3.249   2.245   0.585  0.9930 -2.5779  0.9676
   60c3c     H9  309   2.965   2.426   0.981  2.0849  0.6994 -0.0106
   60c3c    H10  310   2.959   2.273   0.926 -0.1686 -0.1923  2.5107
   60c3c    H11  311   3.107   2.347   0.935 -0.4311  0.2481  1.2983
   60c3c    H12  312   2.789   2.334   0.762 -0.4537 -0.4302 -2.0609
   60c3c    H13  313   2.824   2.500   0.810 -2.6566 -0.3496 -0.4209
   60c3c     C7  314   2.794   2.477   0.601  0.0347 -0.4569 -0.8518
   60c3c    H14  315   2.813   2.397   0.530 -2.7814 -1.9832  0.0558
   60c3c    H15  316   2.845   2.562   0.555 -0.4977 -0.3240 -1.2060
   60c3c     C8  317   2.641   2.490   0.585  0.0854 -0.0850  0.0629
   60c3c    H16  318   2.596   2.413   0.647 -1.3414  1.5459  1.0755
   60c3c    H17  319   2.618   2.475   0.479  1.7263  0.0564 -0.3340
   60c3c    H18  320   2.609   2.589   0.616 -1.0062 -0.6411  0.7303
   61c3c      N  321   1.037   0.237   0.700  0.2351  0.3248 -0.5067
   61c3c     C1  322   1.144   0.260   0.794 -0.2902 -0.4573 -0.1452
   61c3c     C2  323   0.912   0.230   0.782  0.6281  0.6242 -0.3356
   61c3c     C3  324   1.089   0.333   0.918 -0.2573  0.3155  0.1416
   61c3c     C4  325   0.934   0.334   0.890 -0.4361 -0.3427  0.2664
   61c3c     C5  326   1.025   0.345   0.601  0.8820 -0.3793 -0.1563
   61c3c     C6  327   1.048   0.108   0.621 -0.1131 -0.7073  0.7937
   61c3c     H1  328   1.224   0.320   0.751 -3.1639  2.7194 -1.2698
   61c3c     H2  329   1.208   0.175   0.820 -1.4949 -1.6131 -0.9141
   61c3c     H3  330   0.820   0.246   0.727 -0.9138 -1.5277  1.4934
   61c3c     H4  331   0.909   0.134   0.833  0.1875 -0.0050 -1.5251
   61c3c     H5  332   1.135   0.431   0.935 -0.4972  0.1694  1.6396
   61c3c     H6  333   1.120   0.279   1.007 -0.1814 -0.0339 -0.0950
   61c3c     H7  334   0.913   0.434   0.854 -0.2689  0.2471  1.7855
   61c3c     H8  335   0.866   0.314   0.973 -1.0651 -1.6929 -0.5599
   61c3c     H9  336   1.107   0.366   0.531  0.8794 -1.4295 -0.4840
   61c3c    H10  337   0.932   0.328   0.547  0.5583  1.1386 -0.0838
   61c3c    H11  338   0.997   0.436   0.653  0.0195  0.4822 -2.0622
   61c3c    H12  339   0.973   0.088   0.544 -0.5510 -1.9880  1.5451
   61c3c    H13  340   1.125   0.125   0.546 -1.6826  1.0697 -0.4578
   61c3c     C7  341   1.064  -0.025   0.695  0.3991 -0.6199 -0.7545
   61c3c    H14  342   0.965  -0.057   0.730 -0.6837  1.4140 -1.8466
   61c3c    H15  343   1.114  -0.013   0.792  1.7979 -0.7398 -1.4571
   61c3c     C8  344   1.122  -0.138   0.613 -0.7927 -0.1538 -0.0529
   61c3c    H16  345   1.076  -0.147   0.514 -0.9398  0.8000 -0.0687
   61c3c    H17  346   1.111  -0.226   0.677  0.8277 -1.8179 -1.9746
   61c3c    H18  347   1.229  -0.126   0.600 -0.7521  1.1057  1.3397
   62c3c      N  348   0.336   2.877   0.758 -0.4148  0.4541  0.0775
   62c3c     C1  349   0.398   2.964   0.860 -0.1680 -0.2033  0.5230
   62c3c     C2  350   0.439   2.779   0.715  0.4306 -0.5956  0.2803
   62c3c     C3  351   0.546   2.973   0.823  0.9551 -0.0185  0.4106
   62c3c     C4  352   0.574   2.858   0.727  0.3431 -0.0913  0.2503
   62c3c     C5  353   0.232   2.798   0.824 -0.2309 -0.1678 -0.2207
   62c3c     C6  354   0.272   2.961   0.646  0.0542  0.7476 -0.7055
   62c3c     H1  355   0.403   2.910   0.954 -0.8170 -1.9387 -0.4063
   62c3c     H2  356   0.364   3.067   0.870 -0.7395 -0.1643 -1.5757
   62c3c     H3  357   0.450   2.694   0.782 -0.0914  0.4352  1.6886
   62c3c     H4  358   0.413   2.740   0.616 -0.6075 -1.8911  1.0530
   62c3c     H5  359   0.609   2.971   0.912  0.6992 -0.3424  0.5841
   62c3c     H6  360   0.570   3.061   0.763  3.4950 -1.5753 -0.9944
   62c3c     H7  361   0.657   2.789   0.740 -0.6459 -1.2870  0.3949
   62c3c     H8  362   0.603   2.911   0.636  0.4326 -2.9390 -1.4282
   62c3c     H9  363   0.175   2.875   0.875  0.7367  0.2552  0.2217
   62c3c    H10  364   0.164   2.761   0.747  0.0173  0.9006 -0.9579
   62c3c    H11  365   0.269   2.724   0.895 -0.4498 -3.6676 -3.5912
   62c3c    H12  366   0.218   2.893   0.579 -1.7738  0.1748  1.2735
   62c3c    H13  367   0.193   3.023   0.690 -2.0709 -1.1724 -1.6875
   62c3c     C7  368   0.369   3.039   0.561 -0.5171  0.8476 -1.5059
   62c3c    H14  369   0.451   2.977   0.523 -0.0553 -1.4675  3.0212
   62c3c    H15  370   0.403   3.122   0.623 -1.0562  0.7036 -1.0122
   62c3c     C8  371   0.296   3.102   0.438 -0.7814 -0.4820 -0.2855
   62c3c    H16  372   0.204   3.155   0.465 -0.4266 -0.7511  1.4921
   62c3c    H17  373   0.262   3.022   0.372 -0.4156 -1.0051  0.1618
   62c3c    H18  374   0.369   3.162   0.383  0.7766 -2.9902 -1.0010
   63c3c      N  375   2.385   2.974   0.265  0.0737  0.9723 -0.2727
   63c3c     C1  376   2.428   3.020   0.394 -0.0840  0.0714  0.0928
   63c3c     C2  377   2.443   2.840   0.257  0.1489  0.0418 -0.4726
   63c3c     C3  378   2.416   2.902   0.494  0.1725  0.0414 -0.1030
   63c3c     C4  379   2.423   2.784   0.404 -0.6536 -0.0452 -0.1880
   63c3c     C5  380   2.240   2.965   0.273  0.0925  0.1381 -0.3272
   63c3c     C6  381   2.425   3.054   0.152 -0.2854  0.4180 -0.9136
   63c3c     H1  382   2.376   3.110   0.427 -0.9525 -0.0655 -0.8875
   63c3c     H2  383   2.535   3.043   0.396  0.0511 -0.5662  2.0696
   63c3c     H3  384   2.402   2.778   0.177 -0.3664 -0.0869 -0.1100
   63c3c     H4  385   2.548   2.844   0.229 -0.0387  0.1378 -1.1729
   63c3c     H5  386   2.321   2.897   0.548  0.3625 -2.1646  0.0908
   63c3c     H6  387   2.485   2.899   0.579  0.6611 -0.4121 -0.5151
   63c3c     H7  388   2.333   2.724   0.395  0.2365 -1.2093 -1.7021
   63c3c     H8  389   2.503   2.712   0.423 -1.4032 -1.0388 -0.7354
   63c3c     H9  390   2.193   3.059   0.299  1.0833  0.4737  0.3073
   63c3c    H10  391   2.206   2.934   0.174 -0.8329 -2.2721  0.7175
   63c3c    H11  392   2.204   2.889   0.342  3.5082 -0.7231  0.6205
   63c3c    H12  393   2.400   3.011   0.055 -1.3592 -2.6471  0.6493
   63c3c    H13  394   2.363   3.143   0.163  1.4265  1.1368  3.9881
   63c3c     C7  395   2.564   3.108   0.151 -0.4503 -0.1922 -0.1639
   63c3c    H14  396   2.645   3.043   0.184 -0.5834  0.1321  0.8477
   63c3c    H15  397   2.563   3.197   0.215  0.2242 -0.0222 -0.3856
   63c3c     C8  398   2.603   3.161   0.014  0.2542 -0.0558  0.7447
   63c3c    H16  399   2.641   3.088  -0.057  0.7967  0.0940  0.8800
   63c3c    H17  400   2.681   3.235   0.027 -0.0853  0.4408 -0.0008
   63c3c    H18  401   2.525   3.217  -0.037  1.3363  0.7759 -0.0142
   64c3c      N  402   3.000   2.635   2.215  0.1925  0.1848 -0.0624
   64c3c     C1  403   3.075   2.576   2.100  0.3724  0.1605 -0.0243
   64c3c     C2  404   3.018   2.779   2.185  0.1260  0.0563 -0.4757
   64c3c     C3  405   3.026   2.657   1.978 -0.1586 -0.5295 -0.2855
   64c3c     C4  406   2.989   2.792   2.036  0.3420  0.0583 -0.4282
   64c3c     C5  407   2.860   2.596   2.219 -0.3423  0.3690 -0.6760
   64c3c     C6  408   3.049   2.606   2.350  0.3380  0.0599  0.3273
   64c3c     H1  409   3.061   2.470   2.080 -0.0782 -0.3845  2.8458
   64c3c     H2  410   3.182   2.594   2.110  0.6429 -1.1921 -0.4426
   64c3c     H3  411   2.954   2.847   2.240  2.1851  2.9504 -1.4985
   64c3c     H4  412   3.120   2.815   2.200  0.0324  1.1390 -2.2724
   64c3c     H5  413   2.943   2.602   1.934 -1.4477  1.1181  0.0243
   64c3c     H6  414   3.108   2.660   1.907 -1.0876  1.6560 -1.3274
   64c3c     H7  415   2.883   2.812   2.020  0.1967  0.1719  0.6045
   64c3c     H8  416   3.036   2.888   2.012  0.0877  0.5563  0.9915
   64c3c     H9  417   2.829   2.518   2.289 -0.0249  0.0732 -0.8673
   64c3c    H10  418   2.801   2.675   2.265 -1.4729  0.7097 -2.6647
   64c3c    H11  419   2.814   2.569   2.124  0.2007 -0.2141 -0.7770
   64c3c    H12  420   3.008   2.681   2.417  0.5810  1.2653 -0.8392
   64c3c    H13  421   3.015   2.505   2.372 -1.3393  0.7983  1.1619
   64c3c     C7  422   3.207   2.601   2.371  0.4624  0.4849 -0.5588
   64c3c    H14  423   3.249   2.700   2.352 -1.2419  0.9499 -2.0121
   64c3c    H15  424   3.258   2.529   2.307  0.6364 -0.5420  0.7033
   64c3c     C8  425   3.244   2.550   2.517 -0.4369 -0.8091 -0.0575
   64c3c    H16  426   3.199   2.451   2.527 -2.6985  0.2581  0.7599
   64c3c    H17  427   3.196   2.611   2.594 -0.9465 -0.1225 -0.8969
   64c3c    H18  428   3.351   2.543   2.537 -0.6450 -0.7294  1.0814
   65c3c      N  429   0.829   2.374   2.575 -0.1936 -0.3074 -0.4732
   65c3c     C1  430   0.768   2.250   2.521 -0.2034 -0.2202 -0.0379
   65c3c     C2  431   0.770   2.388   2.710  0.3917 -0.0215  1.3315
   65c3c     C3  432   0.745   2.159   2.643 -0.0277  0.2215  0.1375
   65c3c     C4  433   0.749   2.249   2.764 -0.3192  0.3165  0.3488
   65c3c     C5  434   0.976   2.354   2.597  0.4473  0.4850 -0.3362
   65c3c     C6  435   0.817   2.494   2.495  1.3253 -0.0637  0.0985
   65c3c     H1  436   0.823   2.197   2.443 -3.2742 -1.5985 -1.3427
   65c3c     H2  437   0.667   2.265   2.483  0.0045 -2.1220 -1.4061
   65c3c     H3  438   0.828   2.454   2.773  0.3027  1.1689  0.1881
   65c3c     H4  439   0.666   2.417   2.693  0.8949 -0.2223 -2.4580
   65c3c     H5  440   0.823   2.082   2.644 -0.7658 -0.5625 -1.2200
   65c3c     H6  441   0.647   2.114   2.630  0.2781  0.3907 -2.9937
   65c3c     H7  442   0.832   2.220   2.829  1.4925  2.0580 -1.0931
   65c3c     H8  443   0.657   2.235   2.821 -0.8647  0.4696 -0.4953
   65c3c     H9  444   1.035   2.334   2.507  0.2269 -1.0474 -0.1498
   65c3c    H10  445   1.030   2.428   2.657  0.6321 -0.2338  0.3883
   65c3c    H11  446   0.994   2.263   2.654  2.2950 -0.8013 -2.8722
   65c3c    H12  447   0.864   2.576   2.550 -1.5530  0.5617  1.7468
   65c3c    H13  448   0.880   2.475   2.408  0.7071 -0.9603 -0.1559
   65c3c     C7  449   0.676   2.546   2.461  0.0786  0.5614  0.4626
   65c3c    H14  450   0.623   2.573   2.552  0.7413 -3.3459  2.1011
   65c3c    H15  451   0.602   2.481   2.413 -1.0875  0.4454  2.3977
   65c3c     C8  452   0.676   2.675   2.373  0.1057 -0.1599 -0.3096
   65c3c    H16  453   0.575   2.713   2.365  0.7808  1.4193 -1.6042
   65c3c    H17  454   0.715   2.652   2.273  0.0436  0.4114 -0.4691
   65c3c    H18  455   0.739   2.752   2.418 -2.1447  1.2188  0.5544
   66c3c      N  456   0.386   1.476   1.906 -0.0455 -0.1662 -0.3092
   66c3c     C1  457   0.318   1.379   1.820  0.2338  0.2322 -0.2917
   66c3c     C2  458   0.470   1.391   1.989 -0.4595  0.1095  0.8411
   66c3c     C3  459   0.423   1.283   1.773 -0.4925 -0.5275 -0.0334
   66c3c     C4  460   0.505   1.274   1.897 -0.6627  0.0300 -0.2542
   66c3c     C5  461   0.466   1.561   1.820  0.2543 -0.6173  0.1406
   66c3c     C6  462   0.303   1.562   1.994 -0.3095 -0.3589 -0.0605
   66c3c     H1  463   0.263   1.427   1.739  0.1052 -1.7168 -1.4000
   66c3c     H2  464   0.246   1.327   1.884  0.3003  1.3241  0.6712
   66c3c     H3  465   0.562   1.441   2.019 -0.3511 -0.0445  0.7656
   66c3c     H4  466   0.422   1.361   2.081 -2.5327  0.1912 -0.1863
   66c3c     H5  467   0.485   1.327   1.695  0.4652  0.3189  1.2152
   66c3c     H6  468   0.388   1.188   1.732 -0.4279 -0.1098 -1.0763
   66c3c     H7  469   0.614   1.270   1.892 -0.6668  0.9315 -1.2328
   66c3c     H8  470   0.474   1.180   1.942  0.2817 -0.3118 -0.3085
   66c3c     H9  471   0.410   1.610   1.741  0.8273 -1.4315 -0.7850
   66c3c    H10  472   0.520   1.636   1.878 -1.9909 -0.1929  1.7380
   66c3c    H11  473   0.549   1.511   1.770  1.9057  1.4898  0.7035
   66c3c    H12  474   0.365   1.617   2.065 -1.2101  3.8249 -2.3114
   66c3c    H13  475   0.272   1.651   1.940  1.1351  0.5663  0.5985
   66c3c     C7  476   0.181   1.504   2.074  0.2597  0.0245 -0.1359
   66c3c    H14  477   0.202   1.417   2.136 -1.2738 -0.2121  0.0591
   66c3c    H15  478   0.104   1.474   2.003 -0.8425  0.0832  1.0168
   66c3c     C8  479   0.113   1.614   2.167 -0.2207  0.2734 -0.0976
   66c3c    H16  480   0.163   1.622   2.263 -0.1690 -0.7107 -0.0394
   66c3c    H17  481   0.019   1.563   2.185 -1.3776  1.9348 -1.2588
   66c3c    H18  482   0.093   1.710   2.118 -0.4179  0.2339 -0.0914
   67c3c      N  483   2.814   0.922   1.209 -0.5383  0.3213 -0.7557
   67c3c     C1  484   2.816   0.888   1.350 -0.3031 -0.2860  0.1059
   67c3c     C2  485   2.756   0.808   1.141  0.3877 -0.4566 -0.5974
   67c3c     C3  486   2.694   0.805   1.377  0.1550  0.1736  0.1092
   67c3c     C4  487   2.645   0.772   1.242  0.2026  0.7935  0.5893
   67c3c     C5  488   2.730   1.047   1.189  0.3270  0.2871  0.2525
   67c3c     C6  489   2.950   0.968   1.172  0.2670  0.5353 -0.0521
   67c3c     H1  490   2.814   0.973   1.418 -0.7345 -0.1969 -0.0154
   67c3c     H2  491   2.900   0.826   1.381 -1.1188 -0.4277  2.0843
   67c3c     H3  492   2.716   0.830   1.042 -0.8599 -2.3344 -0.5322
   67c3c     H4  493   2.814   0.716   1.137 -1.6469 -1.8132  0.0248
   67c3c     H5  494   2.617   0.851   1.439 -1.3412 -1.5609 -0.4051
   67c3c     H6  495   2.728   0.718   1.434 -0.8085  0.1977  0.7297
   67c3c     H7  496   2.557   0.835   1.229 -0.1577  0.6924  2.5049
   67c3c     H8  497   2.605   0.672   1.229  2.3687 -0.0201 -0.1776
   67c3c     H9  498   2.777   1.129   1.244 -2.1210  1.4452  0.6945
   67c3c    H10  499   2.715   1.073   1.084  0.9405 -2.7442 -0.6362
   67c3c    H11  500   2.630   1.037   1.231  0.3666 -0.1477  0.2415
   67c3c    H12  501   2.957   1.006   1.070  3.0545  0.4425  0.0718
   67c3c    H13  502   2.975   1.049   1.240  3.1555  0.0395 -0.4681
   67c3c     C7  503   3.064   0.866   1.182  0.1338  0.1263  0.3394
   67c3c    H14  504   3.043   0.780   1.118  0.6335 -0.4753  0.9767
   67c3c    H15  505   3.086   0.821   1.279  2.0284  0.1435 -0.0634
   67c3c     C8  506   3.185   0.938   1.148  0.1790  0.1431 -0.0625
   67c3c    H16  507   3.260   0.859   1.140 -1.6959 -1.6556 -0.2962
   67c3c    H17  508   3.211   1.002   1.232  1.0810 -0.1008 -0.1556
   67c3c    H18  509   3.176   1.000   1.058  2.3078  0.5529 -0.0313
   68c3c      N  510   2.492   1.726   2.387 -0.5103  0.1278  0.0495
   68c3c     C1  511   2.418   1.774   2.505  0.3381 -0.3385 -0.2281
   68c3c     C2  512   2.389   1.751   2.277  1.2966  0.0368 -0.3114
   68c3c     C3  513   2.334   1.898   2.465  0.6023  0.2872 -0.6435
   68c3c     C4  514   2.309   1.876   2.316  0.3968 -0.3204 -0.3135
   68c3c     C5  515   2.601   1.824   2.351 -0.1486  0.1191 -0.3080
   68c3c     C6  516   2.559   1.597   2.398  0.2978 -0.6399 -0.1299
   68c3c     H1  517   2.491   1.805   2.580  0.6690 -1.7914  0.0612
   68c3c     H2  518   2.352   1.695   2.539  0.1956 -0.2326 -0.2588
   68c3c     H3  519   2.427   1.755   2.175  0.3320  2.0734 -0.6207
   68c3c     H4  520   2.324   1.664   2.274  2.0122 -0.4400 -2.7950
   68c3c     H5  521   2.401   1.982   2.482  0.4875 -0.0853  1.8390
   68c3c     H6  522   2.250   1.919   2.531  0.4828 -0.5160 -0.5298
   68c3c     H7  523   2.343   1.962   2.259  1.1602 -0.0497  0.5318
   68c3c     H8  524   2.204   1.851   2.299  0.8169 -1.4883 -1.2457
   68c3c     H9  525   2.672   1.830   2.433  1.9692 -0.1061 -2.0871
   68c3c    H10  526   2.656   1.795   2.262 -1.3208  1.1992 -1.4096
   68c3c    H11  527   2.571   1.926   2.330 -0.1327  0.4950  1.4054
   68c3c    H12  528   2.620   1.580   2.309 -0.4405  1.5494 -1.0816
   68c3c    H13  529   2.624   1.596   2.486 -0.2908 -0.7747  0.3003
   68c3c     C7  530   2.465   1.479   2.436  0.5605 -0.4900 -0.5778
   68c3c    H14  531   2.362   1.496   2.406 -0.3501 -2.1171  1.4832
   68c3c    H15  532   2.444   1.480   2.543 -0.2008 -4.4331 -0.6090
   68c3c     C8  533   2.506   1.339   2.399 -0.3436  0.1431 -0.6148
   68c3c    H16  534   2.609   1.323   2.431 -1.0752  0.2050  1.9151
   68c3c    H17  535   2.489   1.327   2.292 -2.7676 -1.8041 -0.0747
   68c3c    H18  536   2.440   1.275   2.458  1.0169 -0.9879 -0.2874
   69c3c      N  537   2.007   1.554   0.673  0.1168 -0.0200 -0.0165
   69c3c     C1  538   2.054   1.410   0.695  0.1994  0.0994 -0.2124
   69c3c     C2  539   1.994   1.553   0.531 -0.1845 -0.0827 -0.3812
   69c3c     C3  540   1.983   1.317   0.603  0.0488 -0.4702  0.5047
   69c3c     C4  541   1.961   1.415   0.482  0.5478 -0.2492 -0.2762
   69c3c     C5  542   1.878   1.573   0.747 -0.4844  0.3789  0.0935
   69c3c     C6  543   2.088   1.657   0.738 -0.3925  0.3430 -0.6401
   69c3c     H1  544   2.044   1.387   0.802  1.4569  0.3169 -0.0448
   69c3c     H2  545   2.161   1.411   0.673  0.3803 -3.0903  0.1943
   69c3c     H3  546   1.924   1.625   0.488 -1.0187 -0.2718  0.6352
   69c3c     H4  547   2.090   1.580   0.487  0.4425 -0.3999  0.7806
   69c3c     H5  548   1.892   1.281   0.651 -0.1808 -1.3393 -0.5549
   69c3c     H6  549   2.042   1.228   0.578 -0.8648 -0.4620 -1.8599
   69c3c     H7  550   1.858   1.399   0.450  0.2493 -1.4561  1.2187
   69c3c     H8  551   2.032   1.389   0.404 -0.1278 -2.3359 -0.2457
   69c3c     H9  552   1.878   1.551   0.854 -1.1631  0.5769  0.1384
   69c3c    H10  553   1.836   1.674   0.743 -1.4305  0.0628  1.8495
   69c3c    H11  554   1.795   1.517   0.704  0.5160 -0.8143 -0.3009
   69c3c    H12  555   2.041   1.754   0.744 -0.5154  0.2644 -0.3042
   69c3c    H13  556   2.097   1.631   0.844 -1.4626 -1.0700 -0.8852
   69c3c     C7  557   2.243   1.669   0.697 -0.1129 -0.2172  0.1168
   69c3c    H14  558   2.236   1.714   0.597  1.4869  0.3612  0.2521
   69c3c    H15  559   2.298   1.577   0.678 -1.0470 -0.4834 -1.4188
   69c3c     C8  560   2.316   1.778   0.768  0.2113  0.4882 -0.0427
   69c3c    H16  561   2.418   1.784   0.730 -0.4041 -0.3121 -1.8572
   69c3c    H17  562   2.319   1.767   0.877  0.3439  0.9537  0.0007
   69c3c    H18  563   2.265   1.874   0.758 -1.5922 -0.4573 -0.0685
   70c3c      N  564   1.669   0.074   1.855 -0.6450  0.1894 -0.0327
   70c3c     C1  565   1.550   0.147   1.892 -0.3870 -0.4965  0.0503
   70c3c     C2  566   1.660  -0.046   1.936 -0.1265  0.1688 -0.2505
   70c3c     C3  567   1.440   0.048   1.924  0.4109 -0.5884 -0.1163
   70c3c     C4  568   1.517  -0.076   1.961  0.2972 -0.3157 -0.1073
   70c3c     C5  569   1.671   0.032   1.713  0.2997 -0.0471 -0.1806
   70c3c     C6  570   1.796   0.155   1.880 -0.1334  0.0512  0.1423
   70c3c     H1  571   1.537   0.219   1.810  1.0697  0.2632  0.4740
   70c3c     H2  572   1.564   0.206   1.983 -0.2736 -1.5912  0.7510
   70c3c     H3  573   1.711  -0.131   1.892 -0.4877  1.4791 -3.3534
   70c3c     H4  574   1.709  -0.024   2.031  1.5980  1.9986 -1.5346
   70c3c     H5  575   1.382   0.025   1.835  1.3298  3.3821 -1.8692
   70c3c     H6  576   1.376   0.093   2.000  2.0303  0.3676  0.7102
   70c3c     H7  577   1.487  -0.160   1.899 -2.2015 -0.1689  0.8391
   70c3c     H8  578   1.489  -0.094   2.065  1.4514  2.2579  0.6633
   70c3c     H9  579   1.683   0.114   1.643  2.2220  0.9387  1.2213
   70c3c    H10  580   1.753  -0.040   1.703  2.3603  2.3791 -1.4720
   70c3c    H11  581   1.581  -0.018   1.678  0.0007 -1.2659  2.2044
   70c3c    H12  582   1.885   0.095   1.862  1.1827  1.7089  0.9830
   70c3c    H13  583   1.797   0.244   1.818  1.7821 -0.2650 -0.3187
   70c3c     C7  584   1.825   0.210   2.026  0.3952 -0.3833 -0.2932
   70c3c    H14  585   1.769   0.161   2.107 -1.7157  1.8547 -0.3331
   70c3c    H15  586   1.788   0.312   2.027  2.1518  0.2554 -0.0304
   70c3c     C8  587   1.971   0.207   2.074 -0.5652  0.0328 -0.0789
   70c3c    H16  588   1.974   0.231   2.180  1.3364 -1.3092  0.1953
   70c3c    H17  589   2.048   0.262   2.020 -1.9217  0.2911 -1.7970
   70c3c    H18  590   2.010   0.105   2.069 -2.1442 -0.6167  0.4480
   71c3c      N  591   2.388   0.963   0.322  0.2485  0.0498 -0.1217
   71c3c     C1  592   2.458   1.090   0.320  0.2390 -0.1463 -0.2589
   71c3c     C2  593   2.490   0.875   0.270  0.6319 -0.2384  0.1062
   71c3c     C3  594   2.604   1.064   0.364  0.1910  0.3633  0.6142
   71c3c     C4  595   2.620   0.912   0.342  0.0579 -0.0081  0.2079
   71c3c     C5  596   2.357   0.913   0.465  0.2123 -0.2042  0.1681
   71c3c     C6  597   2.261   0.955   0.238 -0.5618  0.4729  0.0886
   71c3c     H1  598   2.412   1.164   0.386 -0.2153  0.0031 -0.7286
   71c3c     H2  599   2.454   1.122   0.215 -1.2360  0.7071  0.0359
   71c3c     H3  600   2.471   0.769   0.281  1.1947 -0.4487 -0.9294
   71c3c     H4  601   2.512   0.888   0.164  0.5879 -3.1360 -0.2919
   71c3c     H5  602   2.622   1.079   0.470  0.0395  0.5942  0.6066
   71c3c     H6  603   2.684   1.116   0.310  0.6249  0.5458  1.4286
   71c3c     H7  604   2.639   0.856   0.434 -1.0149  0.8424  0.9554
   71c3c     H8  605   2.707   0.884   0.282  0.8972  1.0009  0.9377
   71c3c     H9  606   2.296   0.988   0.517 -0.0337  1.6732 -2.7168
   71c3c    H10  607   2.310   0.816   0.448 -3.8584  1.8277 -1.0363
   71c3c    H11  608   2.443   0.890   0.528  0.4085  0.8148  0.2813
   71c3c    H12  609   2.273   0.967   0.130 -4.5110  1.0332 -0.3636
   71c3c    H13  610   2.205   0.864   0.255  0.9650 -0.9905 -2.4992
   71c3c     C7  611   2.158   1.049   0.294  0.1251  0.6197  0.3777
   71c3c    H14  612   2.196   1.142   0.333 -0.5410  0.5288  1.2578
   71c3c    H15  613   2.126   1.001   0.387 -0.3609  1.0624  0.4419
   71c3c     C8  614   2.027   1.064   0.218  0.3328 -0.6582  0.0955
   71c3c    H16  615   1.951   1.126   0.266  1.5407  0.8199  0.1306
   71c3c    H17  616   1.972   0.971   0.204  1.1396 -0.9407 -1.3630
   71c3c    H18  617   2.040   1.100   0.116  0.1808 -1.0390 -0.0585
   72c3c      N  618   1.646   0.107   1.196  1.0159  0.1576  0.5828
   72c3c     C1  619   1.655   0.226   1.114 -0.3315 -0.1863 -0.2332
   72c3c     C2  620   1.734   0.007   1.128  0.0649  0.0648  0.1245
   72c3c     C3  621   1.806   0.235   1.083 -0.1355  0.3926  0.4215
   72c3c     C4  622   1.854   0.085   1.078 -0.5724 -0.7615  0.3895
   72c3c     C5  623   1.698   0.131   1.334  0.2512 -0.0363 -0.0365
   72c3c     C6  624   1.503   0.071   1.205  0.0793  0.4419  0.2400
   72c3c     H1  625   1.604   0.311   1.159  0.4037  0.0092  0.2325
   72c3c     H2  626   1.606   0.218   1.017 -0.7586 -0.2797 -0.0102
   72c3c     H3  627   1.764  -0.080   1.186 -1.5766 -1.3376 -1.0720
   72c3c     H4  628   1.684  -0.022   1.035 -0.7685 -1.1858  0.9449
   72c3c     H5  629   1.858   0.286   1.164  0.5131 -1.2698  1.0771
   72c3c     H6  630   1.821   0.278   0.985  0.5114  1.8630  1.1621
   72c3c     H7  631   1.940   0.060   1.141 -0.5191 -0.4221  0.4527
   72c3c     H8  632   1.879   0.058   0.975 -2.4688  1.3675 -0.6798
   72c3c     H9  633   1.650   0.217   1.380 -0.8469 -0.1743 -0.8930
   72c3c    H10  634   1.678   0.055   1.409  1.2168  1.4391  1.7422
   72c3c    H11  635   1.804   0.156   1.338  0.7370 -1.8222 -1.0772
   72c3c    H12  636   1.491   0.002   1.288 -0.9778 -0.0472 -0.3107
   72c3c    H13  637   1.441   0.152   1.243  1.2766  1.0054  1.0286
   72c3c     C7  638   1.431   0.009   1.085 -0.1224 -0.1864 -0.2817
   72c3c    H14  639   1.479  -0.087   1.069  0.5325  0.0529  0.1923
   72c3c    H15  640   1.436   0.075   0.999  0.1783 -2.0153 -1.6871
   72c3c     C8  641   1.288  -0.021   1.114 -0.1119  0.4653 -0.0348
   72c3c    H16  642   1.259  -0.076   1.203 -1.2249 -0.2030 -0.7871
   72c3c    H17  643   1.239  -0.077   1.034  1.1607 -2.4712  1.1827
   72c3c    H18  644   1.236   0.073   1.133 -0.0528  0.3792  0.5654
   73c3c      N  645   0.170   1.796   1.253  0.1178 -0.7408  0.0237
   73c3c     C1  646   0.143   1.911   1.344 -0.5187  0.2707  0.5015
   73c3c     C2  647   0.313   1.821   1.210  0.2531 -0.5137  0.3776
   73c3c     C3  648   0.273   1.937   1.426 -0.1386  0.2403  0.2546
   73c3c     C4  649   0.377   1.865   1.338 -0.4492  0.1998 -0.7533
   73c3c     C5  650   0.158   1.672   1.332  0.6492  0.2182  0.1434
   73c3c     C6  651   0.068   1.783   1.150 -0.1534  0.4769 -0.6253
   73c3c     H1  652   0.049   1.900   1.399 -0.0718 -1.8458  0.8756
   73c3c     H2  653   0.130   2.004   1.290 -1.4048  0.1734  0.5454
   73c3c     H3  654   0.358   1.733   1.164  0.8660  0.3241 -0.6440
   73c3c     H4  655   0.310   1.899   1.134 -2.2590 -0.1054  0.8702
   73c3c     H5  656   0.250   1.894   1.524 -0.3152 -2.5978 -0.9912
   73c3c     H6  657   0.299   2.042   1.437  0.0745  0.2169 -0.0128
   73c3c     H7  658   0.411   1.781   1.397 -0.5593  0.0876 -0.8501
   73c3c     H8  659   0.473   1.914   1.320  0.3520 -1.5503 -1.3861
   73c3c     H9  660   0.056   1.658   1.369  0.1710 -0.5026 -1.4107
   73c3c    H10  661   0.193   1.595   1.263 -0.1900  0.5265 -0.6361
   73c3c    H11  662   0.235   1.665   1.409  1.3358  1.0554 -0.4672
   73c3c    H12  663   0.103   1.697   1.094  1.5324 -0.0375  1.1754
   73c3c    H13  664  -0.029   1.764   1.197 -0.0311  1.1259 -0.1055
   73c3c     C7  665   0.059   1.906   1.054  0.6094 -0.4484 -0.0197
   73c3c    H14  666   0.161   1.938   1.030  0.1596  0.1039 -1.2433
   73c3c    H15  667   0.010   1.979   1.118  0.6691  1.0423 -1.6487
   73c3c     C8  668  -0.011   1.887   0.914 -0.3721  0.1371 -0.0908
   73c3c    H16  669   0.015   1.793   0.865 -1.5697 -0.0792 -0.3178
   73c3c    H17  670   0.010   1.971   0.848 -2.1510  0.4044 -0.3417
   73c3c    H18  671  -0.119   1.881   0.926 -0.6145  0.6424 -1.8767
   74c3c      N  672   0.018   0.241   3.037 -0.3361 -0.0305  0.0154
   74c3c     C1  673  -0.063   0.131   3.081 -0.3639 -0.4185 -0.3752
   74c3c     C2  674   0.135   0.260   3.125  0.2373 -0.0806 -1.1613
   74c3c     C3  675   0.028   0.038   3.170  0.2075  0.4676  0.2367
   74c3c     C4  676   0.166   0.114   3.176 -0.3511  0.0412  0.0081
   74c3c     C5  677   0.070   0.205   2.904 -0.7359  0.1447 -0.4351
   74c3c     C6  678  -0.061   0.364   3.016  0.1766 -0.2621  0.7051
   74c3c     H1  679  -0.099   0.066   3.000 -1.1689 -0.9160  0.3726
   74c3c     H2  680  -0.152   0.154   3.139 -1.0682 -1.5844 -0.9629
   74c3c     H3  681   0.218   0.323   3.095 -0.8185  1.1171 -1.6283
   74c3c     H4  682   0.099   0.312   3.214  0.3081 -3.4901  0.9650
   74c3c     H5  683   0.037  -0.062   3.128 -0.0015  0.5009  0.1116
   74c3c     H6  684  -0.015   0.031   3.270 -2.2875  0.9544 -0.7720
   74c3c     H7  685   0.238   0.071   3.106  1.2265 -0.2108  1.7525
   74c3c     H8  686   0.218   0.120   3.272  1.2012  2.4270 -0.9231
   74c3c     H9  687  -0.014   0.203   2.834  0.2442 -0.4320 -1.6122
   74c3c    H10  688   0.145   0.270   2.860  0.6942 -1.1959 -0.0318
   74c3c    H11  689   0.100   0.101   2.891 -1.2270 -0.0529 -0.0203
   74c3c    H12  690   0.003   0.448   2.989 -1.8650  0.0670 -3.5350
   74c3c    H13  691  -0.130   0.359   2.932  1.0363  0.2481 -0.0307
   74c3c     C7  692  -0.141   0.424   3.136  0.3748 -0.4969  0.1301
   74c3c    H14  693  -0.084   0.443   3.227 -0.7481 -2.3442  1.2502
   74c3c    H15  694  -0.221   0.356   3.166  2.1599 -1.0141  3.9872
   74c3c     C8  695  -0.223   0.553   3.104  0.2282 -0.0156 -0.3377
   74c3c    H16  696  -0.293   0.541   3.020 -0.9596 -0.1275  0.6540
   74c3c    H17  697  -0.162   0.643   3.101  0.7326 -0.3600 -0.4302
   74c3c    H18  698  -0.294   0.566   3.186  1.8988 -0.3795  1.1970
   75c3c      N  699   0.534   0.657   1.312  0.6855  0.2114  0.0126
   75c3c     C1  700   0.635   0.684   1.409 -0.5841 -0.0749  0.4182
   75c3c     C2  701   0.427   0.744   1.353 -0.2423  0.2818 -0.0944
   75c3c     C3  702   0.632   0.849   1.427 -0.8005 -0.3916 -0.5387
   75c3c     C4  703   0.490   0.887   1.375  0.6280 -0.2198  0.2251
   75c3c     C5  704   0.580   0.673   1.172 -0.3009  0.3471  0.0565
   75c3c     C6  705   0.500   0.515   1.320 -0.6810 -0.4841  0.4375
   75c3c     H1  706   0.734   0.651   1.375 -0.3514  1.5825 -0.5318
   75c3c     H2  707   0.614   0.637   1.505  2.4940 -0.4933  0.9467
   75c3c     H3  708   0.354   0.746   1.272 -0.5479  0.3954  0.1832
   75c3c     H4  709   0.378   0.707   1.443 -1.0499  0.0573 -0.6161
   75c3c     H5  710   0.711   0.897   1.369  0.3178 -0.3383  0.9960
   75c3c     H6  711   0.648   0.884   1.529 -1.4245  1.1717 -0.9661
   75c3c     H7  712   0.494   0.946   1.283  1.9898 -0.6712 -0.0086
   75c3c     H8  713   0.440   0.946   1.451 -0.2075 -1.1680  0.4170
   75c3c     H9  714   0.672   0.620   1.150  0.7115  2.3654 -0.7683
   75c3c    H10  715   0.516   0.632   1.093  0.8200  0.3080 -0.8400
   75c3c    H11  716   0.599   0.778   1.148 -0.0926 -0.0831 -1.7491
   75c3c    H12  717   0.465   0.479   1.223  3.3504  0.6771 -1.5740
   75c3c    H13  718   0.595   0.462   1.320  0.1626  0.9990  1.3793
   75c3c     C7  719   0.420   0.458   1.437  0.1012  0.7596  0.4388
   75c3c    H14  720   0.316   0.486   1.420 -0.2215 -0.3669  0.4844
   75c3c    H15  721   0.444   0.486   1.540  0.9959  2.7449 -0.3032
   75c3c     C8  722   0.419   0.303   1.429  0.0927  0.1529  0.2486
   75c3c    H16  723   0.363   0.255   1.509  1.8434 -0.3889  1.1797
   75c3c    H17  724   0.518   0.259   1.435  0.7260  1.8177  3.1725
   75c3c    H18  725   0.375   0.273   1.334  0.7504 -0.3762  0.1165
   76c3c      N  726   1.203   0.559   2.305 -0.0661 -0.0637  0.5673
   76c3c     C1  727   1.105   0.499   2.208 -0.1028  0.2713 -0.2387
   76c3c     C2  728   1.253   0.664   2.218 -0.8619  0.4808  0.1512
   76c3c     C3  729   1.029   0.611   2.162  0.2066  0.1958 -0.7076
   76c3c     C4  730   1.126   0.719   2.151 -0.2883  0.2476  0.2156
   76c3c     C5  731   1.135   0.615   2.426 -0.0492 -0.3041  0.4518
   76c3c     C6  732   1.319   0.473   2.340 -0.1301 -0.4292  0.5960
   76c3c     H1  733   1.038   0.431   2.261 -1.1358  3.3772  2.5766
   76c3c     H2  734   1.137   0.445   2.119  1.0891 -0.2543  0.5007
   76c3c     H3  735   1.305   0.733   2.284  2.9730 -1.0666 -1.1321
   76c3c     H4  736   1.322   0.635   2.139  0.5441  1.1841  1.1174
   76c3c     H5  737   0.943   0.636   2.225 -0.2210 -1.1681 -0.7106
   76c3c     H6  738   0.988   0.577   2.067 -2.6592  0.0866  0.5211
   76c3c     H7  739   1.095   0.814   2.194  1.9984  1.8896 -1.6616
   76c3c     H8  740   1.141   0.735   2.045 -4.3611  1.4204 -0.2400
   76c3c     H9  741   1.054   0.565   2.479  0.7267 -0.6697  1.3123
   76c3c    H10  742   1.210   0.630   2.504  0.0175  1.0251  0.1499
   76c3c    H11  743   1.100   0.718   2.417 -2.2746 -0.8709  2.1358
   76c3c    H12  744   1.400   0.531   2.385 -1.8820  1.9756  0.7362
   76c3c    H13  745   1.274   0.408   2.415 -0.1389  1.4950  2.3254
   76c3c     C7  746   1.386   0.390   2.228  0.2913 -0.0999 -0.1056
   76c3c    H14  747   1.427   0.452   2.149  1.1686 -1.0943 -0.4444
   76c3c    H15  748   1.312   0.321   2.186  2.2989 -1.9363 -0.7565
   76c3c     C8  749   1.499   0.304   2.281  0.4113  0.6885  0.4076
   76c3c    H16  750   1.510   0.217   2.215 -1.6262 -0.0212  0.9878
   76c3c    H17  751   1.475   0.256   2.376 -0.6794 -1.2351 -0.8088
   76c3c    H18  752   1.586   0.367   2.302  1.9451 -0.8008 -1.2339
   77c3c      N  753   0.783   1.063   2.404  0.0313 -0.8316 -0.3196
   77c3c     C1  754   0.866   0.980   2.488 -1.1395 -0.5698 -0.1778
   77c3c     C2  755   0.653   1.053   2.467  0.0456  0.0713  0.6884
   77c3c     C3  756   0.829   1.023   2.627  0.6399 -0.3633 -0.2427
   77c3c     C4  757   0.680   1.046   2.615 -0.2440  0.5598 -0.6687
   77c3c     C5  758   0.816   1.203   2.417 -0.2524  0.1912  0.2974
   77c3c     C6  759   0.803   1.013   2.266  0.1556 -0.3031 -0.6418
   77c3c     H1  760   0.972   0.980   2.464 -1.4849  1.8208 -1.8532
   77c3c     H2  761   0.844   0.874   2.477 -2.2995 -0.5367  1.5527
   77c3c     H3  762   0.582   1.128   2.431 -0.7396 -0.0892  1.9074
   77c3c     H4  763   0.601   0.960   2.443 -1.4425  1.1200 -0.2487
   77c3c     H5  764   0.883   1.113   2.656 -0.5018  0.9249 -2.0162
   77c3c     H6  765   0.836   0.954   2.711  1.5389 -0.1788 -0.1627
   77c3c     H7  766   0.644   1.144   2.647 -0.5831  0.7204 -1.5489
   77c3c     H8  767   0.620   0.971   2.666 -1.1448  0.4007 -1.9703
   77c3c     H9  768   0.922   1.218   2.396 -0.4957 -0.0500 -1.1670
   77c3c    H10  769   0.764   1.250   2.333 -0.2140 -1.3946 -0.6192
   77c3c    H11  770   0.797   1.253   2.512  0.5641  0.4294  0.3402
   77c3c    H12  771   0.753   1.087   2.203 -1.0260  0.9639  1.7168
   77c3c    H13  772   0.906   1.009   2.232 -0.3108  0.9277 -2.3075
   77c3c     C7  773   0.729   0.881   2.217  0.6009 -0.4378 -0.4966
   77c3c    H14  774   0.621   0.896   2.212  0.4050 -0.9561  1.7446
   77c3c    H15  775   0.754   0.794   2.278 -0.3482 -0.5682 -0.2851
   77c3c     C8  776   0.774   0.846   2.071  0.1421  0.3550  0.0319
   77c3c    H16  777   0.882   0.834   2.058  0.4098  1.2548  1.3533
   77c3c    H17  778   0.742   0.930   2.008 -0.6238  0.8036  1.0160
   77c3c    H18  779   0.731   0.757   2.026  1.5186  0.2711 -1.1725
   78c3c      N  780   2.453   0.829   2.787  0.2644  0.0626  0.7012
   78c3c     C1  781   2.394   0.836   2.920  0.8974 -0.7463 -0.4162
   78c3c     C2  782   2.337   0.823   2.691 -0.3426 -0.1402  0.2180
   78c3c     C3  783   2.263   0.918   2.905 -0.1475  0.0803 -0.3212
   78c3c     C4  784   2.236   0.917   2.752 -0.4445 -0.1903 -0.0540
   78c3c     C5  785   2.532   0.951   2.763 -0.0419  0.2229 -0.1346
   78c3c     C6  786   2.548   0.709   2.770  0.0380  0.0017 -0.0985
   78c3c     H1  787   2.458   0.879   2.998 -2.5955  3.3553  0.4202
   78c3c     H2  788   2.352   0.741   2.954 -0.3611 -0.9605 -2.5178
   78c3c     H3  789   2.347   0.848   2.585  0.8542 -0.8951  0.1337
   78c3c     H4  790   2.274   0.734   2.693 -1.1517  0.4263  0.2209
   78c3c     H5  791   2.289   1.020   2.935 -0.2746 -0.4257  1.5944
   78c3c     H6  792   2.188   0.880   2.974 -0.6076 -0.0766 -0.9082
   78c3c     H7  793   2.263   1.013   2.708  1.2533 -0.3716  0.5528
   78c3c     H8  794   2.130   0.907   2.733 -0.4486  2.0259 -1.3637
   78c3c     H9  795   2.623   0.949   2.822  0.5441  0.2257 -1.0371
   78c3c    H10  796   2.567   0.950   2.660 -0.6669  0.1644 -0.3482
   78c3c    H11  797   2.479   1.046   2.768  0.7705  0.7201 -0.8507
   78c3c    H12  798   2.574   0.708   2.664  1.4198  0.0607  0.2297
   78c3c    H13  799   2.636   0.724   2.831  0.0740  1.9805 -0.5922
   78c3c     C7  800   2.496   0.573   2.806  0.9189 -0.0442  0.7980
   78c3c    H14  801   2.397   0.559   2.765  0.5813  0.2972  1.4935
   78c3c    H15  802   2.493   0.570   2.915  0.4577  1.4046  0.8303
   78c3c     C8  803   2.588   0.448   2.764  0.4128  0.0336  0.2521
   78c3c    H16  804   2.688   0.452   2.806  1.1951  1.3322 -1.6640
   78c3c    H17  805   2.609   0.446   2.657 -0.7031 -1.3052  0.0439
   78c3c    H18  806   2.544   0.353   2.794  0.5413  0.0623  0.5441
   79c3c      N  807   2.194   0.818   1.867 -0.1918  0.5018 -0.5250
   79c3c     C1  808   2.128   0.718   1.785  0.3748 -0.3914  0.2231
   79c3c     C2  809   2.150   0.792   2.008  0.8860 -0.1033 -0.1329
   79c3c     C3  810   2.116   0.591   1.874 -0.5611 -0.3247  0.0555
   79c3c     C4  811   2.142   0.641   2.020 -0.8695 -0.2548  0.0841
   79c3c     C5  812   2.342   0.786   1.862 -0.2503  0.9442  0.5878
   79c3c     C6  813   2.169   0.955   1.820  1.1996  0.3111 -0.0668
   79c3c     H1  814   2.171   0.703   1.686  0.0236  2.8205 -0.4826
   79c3c     H2  815   2.026   0.749   1.760  0.5653 -1.8848 -2.6408
   79c3c     H3  816   2.209   0.839   2.087 -0.3109 -0.4429  0.9925
   79c3c     H4  817   2.049   0.825   2.032 -0.0936 -3.3889  0.4601
   79c3c     H5  818   2.187   0.519   1.834  0.6886  0.5081  0.7353
   79c3c     H6  819   2.017   0.545   1.877 -0.3589 -0.9464 -2.1884
   79c3c     H7  820   2.231   0.593   2.061 -0.1329  0.6888 -0.3933
   79c3c     H8  821   2.066   0.616   2.094  0.4042  0.3555  1.6250
   79c3c     H9  822   2.381   0.809   1.763  1.2880  2.5918  1.5531
   79c3c    H10  823   2.414   0.847   1.916 -0.2442  1.2584  0.2270
   79c3c    H11  824   2.360   0.682   1.890  1.6064  0.5085 -2.0273
   79c3c    H12  825   2.223   1.007   1.899  1.2111 -0.8174  0.6824
   79c3c    H13  826   2.220   0.975   1.726  1.2522  1.5934  0.2123
   79c3c     C7  827   2.020   1.007   1.809 -0.1675 -0.2027  0.1083
   79c3c    H14  828   1.981   1.000   1.910 -3.3861  0.1941 -1.0676
   79c3c    H15  829   1.958   0.950   1.741 -1.2702 -1.5680  2.2123
   79c3c     C8  830   2.017   1.157   1.773  0.4152 -0.0992  0.2789
   79c3c    H16  831   2.055   1.181   1.674  0.7824  0.4873  0.5534
   79c3c    H17  832   2.075   1.215   1.845  0.8977 -0.4696  0.1972
   79c3c    H18  833   1.913   1.188   1.773  0.3229 -0.4015 -0.0671
   80c3c      N  834   2.754   0.136   1.631  0.2248  0.2268  0.2269
   80c3c     C1  835   2.838   0.117   1.751 -0.2195  0.5346  0.4235
   80c3c     C2  836   2.849   0.121   1.518  0.4354 -0.5439  0.2039
   80c3c     C3  837   2.938   0.003   1.717  0.1609  0.4785  0.1031
   80c3c     C4  838   2.959   0.030   1.569 -0.0151  0.0445 -0.1657
   80c3c     C5  839   2.647   0.029   1.626 -0.5451  0.0114 -0.1147
   80c3c     C6  840   2.674   0.266   1.632  0.4833  0.5790 -0.6584
   80c3c     H1  841   2.781   0.105   1.842  0.0832  3.6138  1.0724
   80c3c     H2  842   2.897   0.207   1.772  1.4700 -0.9017  1.9741
   80c3c     H3  843   2.794   0.103   1.425  0.0320  0.2104  0.2912
   80c3c     H4  844   2.898   0.218   1.505  1.8922 -1.2617  0.2709
   80c3c     H5  845   2.884  -0.092   1.717 -0.0219  0.5790 -0.9804
   80c3c     H6  846   3.024  -0.020   1.779  0.8099  1.4134 -0.4376
   80c3c     H7  847   2.966  -0.063   1.513 -1.3069  0.5609 -1.2292
   80c3c     H8  848   3.060   0.069   1.553 -0.6649  1.4483 -0.9191
   80c3c     H9  849   2.592   0.031   1.720  0.2442 -0.7876  0.3697
   80c3c    H10  850   2.582   0.051   1.541 -0.9155  1.7619  0.6007
   80c3c    H11  851   2.679  -0.071   1.598 -1.0483 -0.5827  1.3434
   80c3c    H12  852   2.620   0.270   1.537 -3.7136 -1.4861  1.5406
   80c3c    H13  853   2.589   0.269   1.699  0.8419  1.0041 -0.2191
   80c3c     C7  854   2.754   0.397   1.645 -0.0520  0.7675 -0.0305
   80c3c    H14  855   2.807   0.414   1.552  2.9519 -0.9863  1.2596
   80c3c    H15  856   2.827   0.391   1.726  1.8452 -0.3523 -1.7705
   80c3c     C8  857   2.663   0.509   1.686 -1.1710  0.3454  0.8559
   80c3c    H16  858   2.607   0.491   1.777 -0.5389 -2.1655  0.7789
   80c3c    H17  859   2.585   0.518   1.611 -1.3890  0.1857  1.0658
   80c3c    H18  860   2.713   0.606   1.680  1.3535 -1.0346 -2.4082
   81c3c      N  861   0.158   1.171   2.907  0.3605 -0.0994 -0.3338
   81c3c     C1  862   0.083   1.289   2.865 -0.1923 -0.3641  0.6555
   81c3c     C2  863   0.268   1.163   2.817  0.2106  0.0481 -0.2790
   81c3c     C3  864   0.198   1.397   2.831 -0.1213 -0.1400  0.0510
   81c3c     C4  865   0.319   1.305   2.796 -0.2928 -0.2341  0.0262
   81c3c     C5  866   0.206   1.194   3.039  0.7125 -0.4884  0.1355
   81c3c     C6  867   0.086   1.048   2.919  0.2382 -0.0102  0.3008
   81c3c     H1  868  -0.004   1.314   2.925  0.9932 -0.4549  2.4646
   81c3c     H2  869   0.051   1.268   2.763 -0.0029 -0.5732  0.6385
   81c3c     H3  870   0.342   1.092   2.855 -1.3811 -1.4826  0.0034
   81c3c     H4  871   0.232   1.131   2.719  2.0363  1.4742 -1.4613
   81c3c     H5  872   0.226   1.460   2.916  0.9551  1.1655 -1.2359
   81c3c     H6  873   0.174   1.462   2.747  0.6856  1.7850  1.2748
   81c3c     H7  874   0.405   1.333   2.857 -1.1532 -1.7193  1.9434
   81c3c     H8  875   0.345   1.331   2.693 -1.9385 -1.0114 -0.5958
   81c3c     H9  876   0.125   1.207   3.110  0.1074 -0.4108 -0.5602
   81c3c    H10  877   0.270   1.112   3.072 -1.2209 -2.3712 -0.6102
   81c3c    H11  878   0.267   1.280   3.063 -1.3573  0.4336  2.2807
   81c3c    H12  879   0.167   0.975   2.927  0.1344 -0.0845  0.6662
   81c3c    H13  880   0.025   1.047   3.009  1.5283  1.9013  1.2345
   81c3c     C7  881   0.002   1.009   2.804 -0.1630  0.8730 -0.2546
   81c3c    H14  882   0.063   0.997   2.715 -0.6167  0.1360 -0.4732
   81c3c    H15  883  -0.072   1.085   2.781 -1.8528 -0.7160 -0.2123
   81c3c     C8  884  -0.072   0.878   2.826  0.1563  0.1721  0.0310
   81c3c    H16  885  -0.135   0.853   2.740  0.1153  0.2325  0.0443
   81c3c    H17  886  -0.140   0.889   2.910 -0.7188  2.4962 -0.9447
   81c3c    H18  887  -0.004   0.795   2.842  1.3959  1.0196 -0.7230
   82c3c      N  888   2.872   2.492   2.843  0.4759 -0.2421 -0.0062
   82c3c     C1  889   2.899   2.395   2.950  0.4028  0.3676  0.5392
   82c3c     C2  890   2.968   2.596   2.871 -0.1266  0.8624 -0.3907
   82c3c     C3  891   3.052   2.394   2.967 -0.4562 -0.3856  0.2119
   82c3c     C4  892   3.100   2.530   2.902  0.3108  0.8911  0.2811
   82c3c     C5  893   2.900   2.435   2.710  0.1643 -0.2531 -0.0660
   82c3c     C6  894   2.734   2.538   2.837 -0.2848  0.3518  0.1564
   82c3c     H1  895   2.856   2.298   2.928  0.2776  0.8542 -1.4673
   82c3c     H2  896   2.853   2.425   3.045  2.8357  0.8646  1.5835
   82c3c     H3  897   2.955   2.677   2.799  1.6847  1.7429  0.2449
   82c3c     H4  898   2.939   2.653   2.959 -0.8921  0.7488 -0.5644
   82c3c     H5  899   3.078   2.304   2.913 -0.4552 -0.4576  0.3322
   82c3c     H6  900   3.070   2.390   3.075 -1.1382  0.6656  0.3693
   82c3c     H7  901   3.167   2.510   2.819 -1.4252  2.7819 -1.6216
   82c3c     H8  902   3.148   2.603   2.967 -1.8212  1.5077  1.1976
   82c3c     H9  903   2.833   2.354   2.681  0.4107 -1.5639  2.8105
   82c3c    H10  904   2.900   2.504   2.626 -1.3257 -1.7240 -1.3248
   82c3c    H11  905   2.999   2.390   2.715  1.3894  2.3321 -0.6263
   82c3c    H12  906   2.726   2.623   2.770 -1.2797  0.4479  0.3880
   82c3c    H13  907   2.671   2.453   2.811  0.1524  0.1407 -0.2271
   82c3c     C7  908   2.670   2.589   2.970 -0.5169  0.9926  0.1791
   82c3c    H14  909   2.738   2.651   3.029  0.9113  0.3583 -0.7817
   82c3c    H15  910   2.627   2.518   3.041  2.1093  0.1782  1.0195
   82c3c     C8  911   2.547   2.678   2.942 -0.3689 -0.2085  0.5937
   82c3c    H16  912   2.582   2.773   2.901 -1.1406 -1.0989 -2.2079
   82c3c    H17  913   2.490   2.688   3.034  2.3430  1.5357  2.1866
   82c3c    H18  914   2.482   2.630   2.869  0.9740 -0.6695 -0.3205
   83c3c      N  915   0.817   1.835   0.890 -0.1669  0.6092  0.1316
   83c3c     C1  916   0.843   1.982   0.902 -0.1303  0.1133 -0.4241
   83c3c     C2  917   0.723   1.808   1.003 -0.7588  0.5663 -0.7074
   83c3c     C3  918   0.698   2.046   0.924 -0.2746  0.3196  0.8970
   83c3c     C4  919   0.618   1.923   0.979 -0.3173  0.0766 -0.2542
   83c3c     C5  920   0.762   1.806   0.756 -0.2516 -0.4573 -0.3729
   83c3c     C6  921   0.938   1.758   0.906  0.2786 -0.4150 -0.0356
   83c3c     H1  922   0.895   2.026   0.817 -0.2168  2.0226  0.4897
   83c3c     H2  923   0.903   1.997   0.991 -1.9598  1.7334  0.5761
   83c3c     H3  924   0.677   1.709   1.004 -0.7944  0.5592 -2.1091
   83c3c     H4  925   0.777   1.827   1.096 -4.1976  0.3250  1.4249
   83c3c     H5  926   0.658   2.077   0.827  1.8595 -2.2299 -0.8633
   83c3c     H6  927   0.692   2.119   1.005  3.1146  1.5610  0.1200
   83c3c     H7  928   0.551   1.880   0.904  3.4354  0.6071 -4.1173
   83c3c     H8  929   0.566   1.938   1.073  0.7210 -3.8644  1.0480
   83c3c     H9  930   0.834   1.822   0.676  1.8715 -1.9077  1.2242
   83c3c    H10  931   0.728   1.703   0.760 -1.1179 -0.1310  1.3890
   83c3c    H11  932   0.674   1.866   0.731 -0.4070  0.0508  1.3209
   83c3c    H12  933   0.907   1.654   0.907 -0.9618 -0.0552 -0.7506
   83c3c    H13  934   1.011   1.766   0.826  2.4262  3.0250  2.1447
   83c3c     C7  935   1.026   1.768   1.032  0.0315 -0.0722 -0.8373
   83c3c    H14  936   0.970   1.779   1.125  0.6848  3.0279 -0.7393
   83c3c    H15  937   1.069   1.868   1.038 -2.6278  1.2003 -2.0301
   83c3c     C8  938   1.151   1.680   1.042  0.4114  0.3225  0.1827
   83c3c    H16  939   1.119   1.576   1.044  0.7670  0.1685 -1.2883
   83c3c    H17  940   1.205   1.697   1.135  3.4526 -1.8480 -1.0697
   83c3c    H18  941   1.214   1.694   0.954 -0.0812 -0.3390 -0.2752
   84c3c      N  942   0.565   2.710   1.485 -0.0714  0.3164 -0.1199
   84c3c     C1  943   0.680   2.756   1.559  0.1661  0.4265  0.1074
   84c3c     C2  944   0.609   2.708   1.350  0.6775 -0.0242 -0.2481
   84c3c     C3  945   0.802   2.677   1.493 -0.9553  0.4980 -0.1957
   84c3c     C4  946   0.747   2.646   1.353 -0.1957  0.7526 -0.1985
   84c3c     C5  947   0.536   2.574   1.536 -0.1619  0.1295  0.1700
   84c3c     C6  948   0.442   2.788   1.499 -0.0558  0.1552  0.8186
   84c3c     H1  949   0.673   2.750   1.668  1.9733  1.4180  0.2868
   84c3c     H2  950   0.696   2.861   1.537  2.7382  0.5756  2.4393
   84c3c     H3  951   0.548   2.639   1.292 -0.3632  1.3983 -0.9052
   84c3c     H4  952   0.615   2.810   1.312  0.8530 -1.4325 -4.2534
   84c3c     H5  953   0.835   2.589   1.549  0.2213  0.5315 -0.8202
   84c3c     H6  954   0.882   2.750   1.478  1.6328 -2.1093  0.3327
   84c3c     H7  955   0.737   2.540   1.330 -2.1784  0.6301  1.0855
   84c3c     H8  956   0.818   2.682   1.278  0.9094 -0.0969  0.4330
   84c3c     H9  957   0.621   2.506   1.534  0.6324  1.1390 -0.8950
   84c3c    H10  958   0.498   2.572   1.638  0.0420 -0.9219  0.2273
   84c3c    H11  959   0.464   2.522   1.473 -0.1505 -0.4624  0.6448
   84c3c    H12  960   0.373   2.720   1.449 -1.6557  3.0286 -1.0830
   84c3c    H13  961   0.420   2.786   1.605 -0.5048  1.0310  0.7499
   84c3c     C7  962   0.433   2.938   1.438 -0.3150 -0.3806 -0.3879
   84c3c    H14  963   0.442   2.933   1.329  0.4467  0.9703 -0.3957
   84c3c    H15  964   0.518   2.994   1.475  0.3265  0.1597 -2.5721
   84c3c     C8  965   0.297   3.006   1.467  0.6416 -0.5968  0.0918
   84c3c    H16  966   0.297   3.107   1.427  0.7137 -0.3243  0.7781
   84c3c    H17  967   0.285   3.002   1.575 -1.5100  1.8000 -0.0144
   84c3c    H18  968   0.217   2.952   1.417  0.6751 -1.8462  1.3519
   85c3c      N  969   1.842   2.503   3.067 -0.1520  0.2921  0.0649
   85c3c     C1  970   1.832   2.548   3.206 -0.0170 -0.0762 -0.3563
   85c3c     C2  971   1.896   2.369   3.068 -0.2167  0.0592  0.0492
   85c3c     C3  972   1.794   2.422   3.283  0.0575 -0.7051 -0.4833
   85c3c     C4  973   1.839   2.311   3.194 -0.1201  0.5013 -1.0192
   85c3c     C5  974   1.703   2.498   3.014 -0.1244 -0.2241  0.6846
   85c3c     C6  975   1.914   2.597   2.983  0.4541 -0.2794 -0.0823
   85c3c     H1  976   1.761   2.631   3.211  0.6929  0.4068  2.6395
   85c3c     H2  977   1.923   2.596   3.242  1.2828 -1.5399 -1.6369
   85c3c     H3  978   1.867   2.317   2.978  1.0005 -1.1495  0.3314
   85c3c     H4  979   2.005   2.365   3.077 -0.1774 -1.0485 -0.8028
   85c3c     H5  980   1.690   2.414   3.313 -0.4138 -2.2046 -2.4556
   85c3c     H6  981   1.846   2.416   3.379 -1.7236  0.2138  0.5541
   85c3c     H7  982   1.757   2.244   3.166  0.5672 -0.3340 -1.0435
   85c3c     H8  983   1.914   2.257   3.251 -2.0248  0.2424  1.3405
   85c3c     H9  984   1.659   2.598   3.010 -0.4699 -0.3635  0.9958
   85c3c    H10  985   1.708   2.462   2.912  2.5749 -0.3638  0.8445
   85c3c    H11  986   1.639   2.432   3.073 -1.2108  1.5082  1.4958
   85c3c    H12  987   1.902   2.574   2.877  1.4954  2.3102 -0.7866
   85c3c    H13  988   1.873   2.698   2.981  0.8501 -0.0887  1.1285
   85c3c     C7  989   2.060   2.623   3.014  0.0411 -0.4816 -0.3915
   85c3c    H14  990   2.120   2.534   2.995 -0.4266 -0.3344 -2.6177
   85c3c    H15  991   2.066   2.657   3.117 -1.0240 -2.3290  0.3057
   85c3c     C8  992   2.129   2.726   2.928  0.5431 -0.1444 -0.2556
   85c3c    H16  993   2.116   2.701   2.822  0.8419 -0.8290 -0.1329
   85c3c    H17  994   2.235   2.737   2.951  0.7228 -2.0540 -0.0646
   85c3c    H18  995   2.075   2.818   2.949 -1.6315 -1.3129 -0.5286
   86c3c      N  996   2.711   1.628   0.609 -0.2279 -0.0082 -0.1553
   86c3c     C1  997   2.841   1.563   0.567  0.3330 -0.0036 -0.3178
   86c3c     C2  998   2.611   1.522   0.593 -0.1815 -0.2803 -0.1091
   86c3c     C3  999   2.829   1.425   0.618 -0.4670 -0.7673  0.0246
   86c3c     C4 1000   2.678   1.392   0.634 -0.0619  0.3065  0.6884
   86c3c     C5 1001   2.721   1.665   0.752  0.4989  0.4374 -0.3775
   86c3c     C6 1002   2.685   1.760   0.539  0.2199  0.3686  0.4525
   86c3c     H1 1003   2.930   1.615   0.603 -1.3960  3.2797 -0.6972
   86c3c     H2 1004   2.855   1.546   0.461 -0.7709 -0.1993 -0.4310
   86c3c     H3 1005   2.523   1.556   0.648  2.2361  1.6991  2.7298
   86c3c     H4 1006   2.576   1.506   0.491  1.0606 -0.0445 -0.5833
   86c3c     H5 1007   2.873   1.416   0.718  1.7700 -2.6104 -1.0586
   86c3c     H6 1008   2.873   1.349   0.552  1.7048  0.3816  0.0843
   86c3c     H7 1009   2.662   1.373   0.740 -1.4927 -1.3122  0.2060
   86c3c     H8 1010   2.655   1.307   0.569  0.4787 -0.4813  1.5244
   86c3c     H9 1011   2.809   1.727   0.765  1.5098 -1.4293  2.0398
   86c3c    H10 1012   2.643   1.730   0.793 -0.2988  0.0924 -1.3166
   86c3c    H11 1013   2.733   1.579   0.817 -1.4711  0.7466  0.4422
   86c3c    H12 1014   2.609   1.817   0.593 -0.4798 -0.7684  0.6960
   86c3c    H13 1015   2.777   1.816   0.550  0.8170 -0.5768  0.3698
   86c3c     C7 1016   2.668   1.745   0.385  1.1236  0.3523  0.0853
   86c3c    H14 1017   2.590   1.673   0.361  0.9409  1.2634 -2.1506
   86c3c    H15 1018   2.760   1.712   0.338  1.6975  1.2001  0.5831
   86c3c     C8 1019   2.624   1.876   0.313  1.0120 -0.8145 -0.1620
   86c3c    H16 1020   2.529   1.922   0.340  0.3580 -1.4824 -1.2879
   86c3c    H17 1021   2.619   1.862   0.205  0.7080 -2.2613  0.0334
   86c3c    H18 1022   2.695   1.957   0.331 -1.6399  2.2152 -2.7379
   87c3c      N 1023   0.173   2.021   2.522 -0.6481  0.4567  0.0565
   87c3c     C1 1024   0.139   1.887   2.474 -0.3186  0.0133 -0.1830
   87c3c     C2 1025   0.318   2.025   2.540 -0.2220  0.2739  0.1971
   87c3c     C3 1026   0.265   1.852   2.385 -1.1212 -0.1583 -0.9784
   87c3c     C4 1027   0.377   1.952   2.426 -0.4148  0.3609 -0.3994
   87c3c     C5 1028   0.143   2.121   2.413  0.4950 -0.0875 -0.2051
   87c3c     C6 1029   0.092   2.051   2.639  0.6493  0.9240 -0.3533
   87c3c     H1 1030   0.051   1.879   2.410  1.0021 -2.2622 -1.7956
   87c3c     H2 1031   0.123   1.811   2.551 -0.3595  1.3100  1.1128
   87c3c     H3 1032   0.352   2.128   2.548 -1.6665  0.8190 -0.4494
   87c3c     H4 1033   0.361   1.969   2.623 -0.4967  0.2637  0.3335
   87c3c     H5 1034   0.233   1.878   2.284  0.8320  1.0607 -1.3215
   87c3c     H6 1035   0.297   1.751   2.409 -2.0084  0.1179  1.4544
   87c3c     H7 1036   0.394   2.024   2.345 -0.4981  1.3083  0.4177
   87c3c     H8 1037   0.473   1.903   2.443 -0.6270 -0.6870 -2.0621
   87c3c     H9 1038   0.045   2.124   2.365 -0.5985  0.3795  1.9869
   87c3c    H10 1039   0.146   2.222   2.452  0.6704 -0.1829  0.0276
   87c3c    H11 1040   0.217   2.119   2.332  1.0423 -0.4277  0.2959
   87c3c    H12 1041   0.119   2.150   2.673 -1.6016  0.4301  3.1562
   87c3c    H13 1042  -0.011   2.064   2.606  0.4863 -1.6979 -1.0576
   87c3c     C7 1043   0.095   1.947   2.759  0.3713 -0.3709 -0.0665
   87c3c    H14 1044   0.198   1.930   2.789 -0.1298 -2.4204  0.5929
   87c3c    H15 1045   0.058   1.846   2.741 -0.5843 -0.0030 -0.1685
   87c3c     C8 1046   0.018   1.994   2.878  0.7229 -0.1827 -0.0165
   87c3c    H16 1047   0.057   2.088   2.916 -1.1201  1.0364 -1.0536
   87c3c    H17 1048   0.024   1.928   2.965  0.3079  2.0377  1.7336
   87c3c    H18 1049  -0.084   2.025   2.855  1.2618  2.6609  1.3163
   88c3c      N 1050   2.184   2.756   2.246  0.6567 -0.1988  0.1329
   88c3c     C1 1051   2.057   2.696   2.268 -0.5561  0.3999 -0.3025
   88c3c     C2 1052   2.153   2.861   2.150  0.8472 -0.9021 -0.8820
   88c3c     C3 1053   1.956   2.806   2.248  0.5127 -0.3186  0.0219
   88c3c     C4 1054   2.022   2.925   2.191  0.4615  0.1857 -0.3948
   88c3c     C5 1055   2.221   2.819   2.376  0.4902 -0.1834 -0.0987
   88c3c     C6 1056   2.286   2.660   2.210 -0.2557  0.1042  0.4168
   88c3c     H1 1057   2.040   2.659   2.369 -0.0567  1.5698  0.2253
   88c3c     H2 1058   2.026   2.621   2.195  0.2079 -0.1784 -0.0376
   88c3c     H3 1059   2.233   2.934   2.135 -1.3154  1.1663 -2.7397
   88c3c     H4 1060   2.155   2.819   2.049 -0.2637  1.1528 -1.7788
   88c3c     H5 1061   1.896   2.840   2.333  3.3861  0.2154  1.9037
   88c3c     H6 1062   1.893   2.768   2.168  0.2567 -1.6116  0.8080
   88c3c     H7 1063   2.036   2.998   2.271  1.2047 -0.8751  0.4551
   88c3c     H8 1064   1.957   2.956   2.109  1.1212  1.1652 -0.5595
   88c3c     H9 1065   2.255   2.741   2.444  0.6759 -1.4116 -1.5787
   88c3c    H10 1066   2.313   2.878   2.374 -0.0170  0.7845  2.3218
   88c3c    H11 1067   2.151   2.892   2.417  2.6228  1.8381  0.0745
   88c3c    H12 1068   2.379   2.715   2.196 -0.2668 -0.0463 -0.2621
   88c3c    H13 1069   2.309   2.583   2.284  1.1782  0.7059  0.6335
   88c3c     C7 1070   2.264   2.581   2.086  0.2736 -0.1406 -0.0087
   88c3c    H14 1071   2.262   2.645   1.998 -0.1739 -1.1792 -0.7648
   88c3c    H15 1072   2.173   2.522   2.093  0.5234 -0.2050  3.4490
   88c3c     C8 1073   2.365   2.472   2.074 -0.0374 -0.9556  0.1851
   88c3c    H16 1074   2.337   2.403   2.154  0.0617  0.0079  1.0676
   88c3c    H17 1075   2.467   2.509   2.082 -1.2761  2.2225  2.0161
   88c3c    H18 1076   2.341   2.419   1.982  2.1556  0.9956 -1.5855
   89c3c      N 1077   0.630   1.808   0.048  0.2585  0.3479 -0.2807
   89c3c     C1 1078   0.553   1.702   0.118  0.2889  0.0199  0.2353
   89c3c     C2 1079   0.736   1.736  -0.030  0.1866 -0.6847 -0.1906
   89c3c     C3 1080   0.546   1.585   0.013  0.5595  0.3073  0.1854
   89c3c     C4 1081   0.675   1.594  -0.064 -0.1806 -0.1861  0.6219
   89c3c     C5 1082   0.537   1.877  -0.044  0.8393  0.6489 -0.2714
   89c3c     C6 1083   0.692   1.909   0.138  0.1392 -0.7991 -0.1262
   89c3c     H1 1084   0.452   1.727   0.151 -0.2815 -0.1227 -1.3841
   89c3c     H2 1085   0.608   1.657   0.201  3.0219 -0.4062 -1.7503
   89c3c     H3 1086   0.769   1.791  -0.118 -1.0117  3.8637  2.0359
   89c3c     H4 1087   0.826   1.733   0.032  0.3323 -2.8733 -0.4776
   89c3c     H5 1088   0.458   1.598  -0.051  0.5328  0.8241  0.3225
   89c3c     H6 1089   0.523   1.491   0.062 -2.3127  1.2415  0.7732
   89c3c     H7 1090   0.657   1.586  -0.171 -0.1277  1.2519  0.4869
   89c3c     H8 1091   0.744   1.515  -0.035  1.3338  0.7117 -0.4497
   89c3c     H9 1092   0.452   1.906   0.018 -0.9705 -0.4708 -2.1702
   89c3c    H10 1093   0.570   1.976  -0.075 -0.6898  1.2453 -0.0326
   89c3c    H11 1094   0.491   1.816  -0.121 -1.9188  2.5898 -0.2166
   89c3c    H12 1095   0.752   1.982   0.084 -0.6442 -0.6520 -0.7947
   89c3c    H13 1096   0.603   1.958   0.178  0.9113 -0.2409  0.9488
   89c3c     C7 1097   0.775   1.861   0.257  0.4632 -0.1047  0.0851
   89c3c    H14 1098   0.854   1.789   0.233 -0.8969 -1.3536 -0.7559
   89c3c    H15 1099   0.712   1.811   0.330 -1.9530  2.6655 -0.0063
   89c3c     C8 1100   0.851   1.968   0.331 -0.2813  0.2153  0.5524
   89c3c    H16 1101   0.924   1.927   0.400  1.0825 -1.0062 -1.5489
   89c3c    H17 1102   0.781   2.036   0.379 -1.1770  1.2252 -2.0657
   89c3c    H18 1103   0.923   2.025   0.273 -0.1275 -0.5096  0.0144
   90c3c      N 1104   2.920   0.919   2.055 -0.6315  0.2289  0.6628
   90c3c     C1 1105   2.798   0.986   2.009 -0.0700 -0.3204  1.0323
   90c3c     C2 1106   2.883   0.776   2.071  0.1468 -1.2127  0.1173
   90c3c     C3 1107   2.711   0.871   1.942 -0.0761 -0.0191  0.3891
   90c3c     C4 1108   2.781   0.740   1.961  0.4066 -0.0881 -0.0384
   90c3c     C5 1109   3.011   0.930   1.945  0.6821 -0.1414 -0.4967
   90c3c     C6 1110   2.984   0.984   2.171 -0.1024  0.2781 -0.2238
   90c3c     H1 1111   2.804   1.078   1.951 -0.9403 -1.7670 -1.4733
   90c3c     H2 1112   2.737   1.000   2.098  0.6583  1.3308  1.2902
   90c3c     H3 1113   2.969   0.709   2.070  0.6611 -0.5456 -1.4563
   90c3c     H4 1114   2.826   0.767   2.163 -1.1477 -0.0897 -0.5558
   90c3c     H5 1115   2.690   0.890   1.836 -1.7342  2.7399  1.1509
   90c3c     H6 1116   2.613   0.879   1.988 -0.0377  0.2119  0.4348
   90c3c     H7 1117   2.833   0.698   1.874 -1.8188 -1.4839 -0.7488
   90c3c     H8 1118   2.711   0.660   1.985 -0.3506 -0.1977 -2.4308
   90c3c     H9 1119   3.037   1.036   1.942  0.7891 -0.0197  2.5186
   90c3c    H10 1120   3.102   0.877   1.972  1.0535  0.6299 -0.2236
   90c3c    H11 1121   2.976   0.897   1.848  2.0166  0.0206 -1.0399
   90c3c    H12 1122   3.056   0.908   2.201 -2.6174 -2.1672 -0.1637
   90c3c    H13 1123   3.045   1.071   2.147  0.3240  0.1909  0.5389
   90c3c     C7 1124   2.891   1.005   2.292  0.0659  0.5849  0.1828
   90c3c    H14 1125   2.832   0.915   2.308  0.4711  0.2953  0.0575
   90c3c    H15 1126   2.835   1.093   2.263  2.0872  1.3549 -1.4914
   90c3c     C8 1127   2.966   1.027   2.421  0.2682 -0.2790 -0.1705
   90c3c    H16 1128   3.024   1.120   2.417  3.9466 -2.4904 -1.0814
   90c3c    H17 1129   3.058   0.972   2.442  2.0787  2.9042  0.6678
   90c3c    H18 1130   2.896   1.027   2.505  1.2327 -0.1698  0.6562
   91c3c      N 1131   1.060   0.987   1.235  0.8488  0.2537  0.7832
   91c3c     C1 1132   0.963   1.011   1.122  0.3535 -0.1423 -0.2854
   91c3c     C2 1133   1.003   0.861   1.298 -0.3425 -0.0537 -0.1400
   91c3c     C3 1134   0.924   0.867   1.068 -0.6244  0.4088 -0.0979
   91c3c     C4 1135   0.959   0.773   1.180  0.5281  0.5395  0.2946
   91c3c     C5 1136   1.189   0.960   1.165  0.2931 -0.0788 -0.2822
   91c3c     C6 1137   1.088   1.100   1.325  0.5625  0.1715  0.1892
   91c3c     H1 1138   0.997   1.083   1.048 -2.2047  0.4550 -0.8938
   91c3c     H2 1139   0.868   1.042   1.166  1.7452 -1.1184  3.6383
   91c3c     H3 1140   1.082   0.819   1.361 -0.9568 -1.3409 -0.2084
   91c3c     H4 1141   0.917   0.879   1.362  0.5343  1.3213  0.6877
   91c3c     H5 1142   0.979   0.834   0.980 -2.1172  0.3837 -1.0278
   91c3c     H6 1143   0.816   0.869   1.052 -0.3578  0.0828 -2.0310
   91c3c     H7 1144   1.037   0.704   1.149  1.2345  1.9342 -1.1033
   91c3c     H8 1145   0.870   0.712   1.198  0.4821 -0.3673 -2.7469
   91c3c     H9 1146   1.215   1.041   1.097  0.9191  1.0094  1.2080
   91c3c    H10 1147   1.279   0.965   1.227  1.3404  1.4825 -1.8638
   91c3c    H11 1148   1.198   0.872   1.101  0.7658  1.6021 -2.5973
   91c3c    H12 1149   1.169   1.063   1.388  0.5927  1.4099  0.8916
   91c3c    H13 1150   1.138   1.182   1.273 -2.3013  1.9377  0.1674
   91c3c     C7 1151   0.965   1.157   1.397  0.0708  0.3043 -0.0829
   91c3c    H14 1152   0.892   1.084   1.431 -0.1738  0.1298 -0.9661
   91c3c    H15 1153   0.921   1.245   1.350  0.5033 -0.3764 -1.7712
   91c3c     C8 1154   1.007   1.225   1.531 -0.3333  0.4100 -0.2446
   91c3c    H16 1155   1.092   1.291   1.515  0.1079 -0.4697 -1.5963
   91c3c    H17 1156   1.048   1.144   1.592 -1.1965  0.1704  0.0335
   91c3c    H18 1157   0.935   1.274   1.597 -2.5640 -2.6741 -0.2510
   92c3c      N 1158   0.348   0.612   2.025 -0.1256 -0.9476 -0.1227
   92c3c     C1 1159   0.350   0.492   1.942 -0.3274 -0.0177 -0.5545
   92c3c     C2 1160   0.202   0.653   2.029  0.6347 -0.0781  0.0502
   92c3c     C3 1161   0.219   0.415   1.981  0.0755 -0.0854  0.5215
   92c3c     C4 1162   0.128   0.517   2.034  0.2551 -0.2869 -0.6113
   92c3c     C5 1163   0.397   0.578   2.158  0.9290 -0.1494 -0.5896
   92c3c     C6 1164   0.438   0.716   1.977 -0.6888  0.2319  0.2131
   92c3c     H1 1165   0.439   0.429   1.949 -0.7757 -0.7601 -1.4277
   92c3c     H2 1166   0.343   0.530   1.841  0.5657 -0.2866 -0.7284
   92c3c     H3 1167   0.174   0.719   2.110  0.3345 -0.5423  0.3230
   92c3c     H4 1168   0.172   0.696   1.933 -0.9655  1.2333  1.1384
   92c3c     H5 1169   0.243   0.343   2.059  2.0003 -0.3812 -0.3077
   92c3c     H6 1170   0.180   0.362   1.894 -1.8535  0.9871  0.7247
   92c3c     H7 1171   0.099   0.501   2.137 -2.1505  1.9573 -0.8777
   92c3c     H8 1172   0.039   0.508   1.972 -2.2292  1.7722  2.5487
   92c3c     H9 1173   0.400   0.667   2.222  1.6328 -0.8877  0.4168
   92c3c    H10 1174   0.332   0.500   2.196  0.1233  1.5516  1.6098
   92c3c    H11 1175   0.498   0.537   2.149  0.2662 -1.4865 -2.3198
   92c3c    H12 1176   0.450   0.799   2.048  0.8974  0.2747 -0.0844
   92c3c    H13 1177   0.534   0.665   1.975 -0.3141  0.6265  4.2200
   92c3c     C7 1178   0.418   0.779   1.836 -0.1077 -0.2329 -0.1490
   92c3c    H14 1179   0.316   0.819   1.830 -0.5273 -1.4971 -1.7517
   92c3c    H15 1180   0.433   0.703   1.759 -0.9429 -2.0525  1.4479
   92c3c     C8 1181   0.515   0.890   1.805  0.3077  0.2975  0.0042
   92c3c    H16 1182   0.614   0.852   1.779  0.1602 -0.9876  1.2798
   92c3c    H17 1183   0.521   0.955   1.892 -1.7189 -0.6500  0.8769
   92c3c    H18 1184   0.479   0.947   1.719 -0.8125  0.6261  0.6861
   93c3c      N 1185   2.789   2.092   1.790  0.3465 -0.1726  0.0901
   93c3c     C1 1186   2.750   1.988   1.690  0.3683 -0.2736  0.6666
   93c3c     C2 1187   2.717   2.205   1.738  0.0652 -0.5462 -0.3010
   93c3c     C3 1188   2.603   1.996   1.665 -0.3695  0.3539 -0.5312
   93c3c     C4 1189   2.584   2.148   1.667 -0.2615 -0.6740  0.0464
   93c3c     C5 1190   2.729   2.061   1.925  0.0394  0.1293 -0.2564
   93c3c     C6 1191   2.932   2.120   1.815 -0.1497 -0.5644 -0.2235
   93c3c     H1 1192   2.775   1.884   1.708  0.8361 -0.3043 -0.1744
   93c3c     H2 1193   2.798   2.019   1.598  3.4407 -1.7514  1.7268
   93c3c     H3 1194   2.710   2.284   1.813  0.4729  0.3479 -1.1950
   93c3c     H4 1195   2.777   2.248   1.658 -1.1982 -0.1095 -1.0154
   93c3c     H5 1196   2.555   1.932   1.740 -0.0494  1.2327  0.4416
   93c3c     H6 1197   2.577   1.941   1.574 -0.9730 -0.7276  0.2789
   93c3c     H7 1198   2.495   2.187   1.716  0.0036 -0.6889  0.5403
   93c3c     H8 1199   2.578   2.185   1.565  2.9205  0.5632  0.2545
   93c3c     H9 1200   2.790   1.985   1.973  0.8546  1.1122  0.2989
   93c3c    H10 1201   2.734   2.146   1.995 -2.4522  1.7051 -1.9234
   93c3c    H11 1202   2.631   2.014   1.930 -0.9195  1.8092 -2.6029
   93c3c    H12 1203   2.948   2.201   1.886  0.1120 -0.2136 -0.6854
   93c3c    H13 1204   2.967   2.025   1.857  0.4535 -0.3269 -0.1838
   93c3c     C7 1205   3.026   2.136   1.686 -0.2051 -0.7127 -0.4322
   93c3c    H14 1206   2.995   2.204   1.607 -1.8627 -2.1566 -1.0621
   93c3c    H15 1207   3.024   2.037   1.639  1.7105 -1.0511  0.1562
   93c3c     C8 1208   3.166   2.172   1.730 -1.4712 -0.2201  0.9319
   93c3c    H16 1209   3.164   2.269   1.778 -1.0992  2.1550 -3.5507
   93c3c    H17 1210   3.233   2.188   1.645 -0.9638  0.7348  1.5051
   93c3c    H18 1211   3.216   2.095   1.789  1.2837  0.1889 -0.7476
   94c3c      N 1212   2.050   0.373   0.555 -0.0015  0.3474 -0.4417
   94c3c     C1 1213   2.125   0.258   0.502 -0.2628 -0.0206 -0.2828
   94c3c     C2 1214   2.024   0.330   0.700  0.2039 -0.3448  0.0887
   94c3c     C3 1215   2.212   0.209   0.621 -0.1815 -0.1558  0.2950
   94c3c     C4 1216   2.158   0.262   0.749 -0.0436 -0.5466 -0.2364
   94c3c     C5 1217   2.130   0.497   0.554 -0.6870  0.2561 -0.2552
   94c3c     C6 1218   1.925   0.403   0.470  0.0648 -0.5921  0.0034
   94c3c     H1 1219   2.181   0.288   0.414 -0.2033 -2.0566 -0.9821
   94c3c     H2 1220   2.064   0.173   0.470  0.8765 -0.3816 -1.5526
   94c3c     H3 1221   2.012   0.428   0.745  0.3654 -1.3955  2.5004
   94c3c     H4 1222   1.939   0.263   0.712  0.2528 -0.3852  0.2148
   94c3c     H5 1223   2.316   0.242   0.623 -0.3566  0.3722  2.1063
   94c3c     H6 1224   2.219   0.100   0.625 -1.3728 -0.2944 -0.9932
   94c3c     H7 1225   2.222   0.337   0.795  1.2656 -1.8536  0.1249
   94c3c     H8 1226   2.154   0.185   0.827  0.7053 -1.3290 -0.9690
   94c3c     H9 1227   2.153   0.523   0.451  1.3272  1.6509  0.5139
   94c3c    H10 1228   2.066   0.580   0.583 -0.3759  0.7386 -0.9216
   94c3c    H11 1229   2.227   0.495   0.604  0.2750 -1.3094 -2.0934
   94c3c    H12 1230   1.870   0.492   0.499  1.2586  0.8029 -1.8634
   94c3c    H13 1231   1.970   0.440   0.377 -2.8316  0.6664 -0.9408
   94c3c     C7 1232   1.817   0.286   0.446 -0.1149  0.7229  0.6126
   94c3c    H14 1233   1.779   0.258   0.544 -0.2984  1.3361  0.7226
   94c3c    H15 1234   1.851   0.191   0.405  0.9899 -0.8988  5.0300
   94c3c     C8 1235   1.710   0.349   0.358  0.0656  0.4283  0.0121
   94c3c    H16 1236   1.749   0.394   0.267  0.6883  0.0283  0.0817
   94c3c    H17 1237   1.659   0.424   0.419  0.1717 -0.0980  0.7498
   94c3c    H18 1238   1.639   0.274   0.324 -0.1669  1.5338 -2.0245
   95c3c      N 1239   1.650   2.003   2.416  0.5886 -0.0468 -0.3180
   95c3c     C1 1240   1.672   1.921   2.293  0.4969 -0.2319 -0.6219
   95c3c     C2 1241   1.786   2.015   2.467  0.2317 -0.8824  0.2302
   95c3c     C3 1242   1.798   1.977   2.222 -0.0035  0.2676 -0.0347
   95c3c     C4 1243   1.867   2.045   2.339  0.2764 -0.9139 -0.5036
   95c3c     C5 1244   1.587   2.131   2.382 -0.2520  0.0025  0.1267
   95c3c     C6 1245   1.562   1.941   2.504  0.6301 -0.0323 -0.4453
   95c3c     H1 1246   1.580   1.926   2.235 -2.2144 -1.7513  3.2721
   95c3c     H2 1247   1.684   1.814   2.309  2.3739  0.0022 -0.3314
   95c3c     H3 1248   1.784   2.087   2.549  0.0673  0.6291 -1.0674
   95c3c     H4 1249   1.835   1.931   2.515  0.3830 -0.2937  1.1293
   95c3c     H5 1250   1.764   2.041   2.140  1.1770  1.1336  0.1406
   95c3c     H6 1251   1.852   1.900   2.168 -0.5528  0.0776 -0.3096
   95c3c     H7 1252   1.886   2.149   2.315 -2.2884 -0.5635 -1.1178
   95c3c     H8 1253   1.963   1.992   2.341 -0.2037 -1.7519  0.7159
   95c3c     H9 1254   1.487   2.099   2.351  0.5032 -0.4018 -2.0066
   95c3c    H10 1255   1.593   2.187   2.475 -0.1960  1.0478 -0.5051
   95c3c    H11 1256   1.637   2.180   2.299  2.0657 -1.6021  0.5288
   95c3c    H12 1257   1.528   2.002   2.588  1.1541 -1.6013  0.9240
   95c3c    H13 1258   1.462   1.929   2.463  0.2671  1.1500  0.0611
   95c3c     C7 1259   1.594   1.805   2.556 -0.4540  0.4173  0.0669
   95c3c    H14 1260   1.699   1.789   2.583 -1.3254 -1.0526  2.7573
   95c3c    H15 1261   1.584   1.731   2.476  0.1658  0.5792 -0.1656
   95c3c     C8 1262   1.520   1.771   2.681 -0.1626 -0.4152  0.5606
   95c3c    H16 1263   1.413   1.769   2.660 -0.1220  2.1013  0.0244
   95c3c    H17 1264   1.536   1.842   2.762  0.8731  0.6011 -0.5189
   95c3c    H18 1265   1.545   1.669   2.709 -0.5343 -0.6409  0.0742
   96c3c      N 1266   0.381   3.065   2.332  0.3419 -0.8423 -0.9631
   96c3c     C1 1267   0.310   2.947   2.359  0.4046 -0.1029  0.2247
   96c3c     C2 1268   0.310   3.154   2.426 -0.4645 -0.1306  0.3875
   96c3c     C3 1269   0.294   2.930   2.510 -0.2961  0.0403  0.1918
   96c3c     C4 1270   0.279   3.067   2.551 -0.0219  0.6340 -0.4059
   96c3c     C5 1271   0.526   3.060   2.374  0.0907  0.8093 -0.4895
   96c3c     C6 1272   0.377   3.114   2.197 -0.4149  0.1151  0.1774
   96c3c     H1 1273   0.360   2.862   2.312  0.6997  0.1871  0.0109
   96c3c     H2 1274   0.213   2.953   2.309 -0.2922  1.0874  1.6980
   96c3c     H3 1275   0.361   3.246   2.455  3.3350 -0.8940 -3.3793
   96c3c     H4 1276   0.211   3.186   2.394  0.4041  1.0556 -1.2339
   96c3c     H5 1277   0.388   2.888   2.545  0.1024  1.3419  0.6991
   96c3c     H6 1278   0.209   2.865   2.534 -1.0622 -0.8924 -4.5030
   96c3c     H7 1279   0.343   3.077   2.639  0.5206 -0.7115 -0.6344
   96c3c     H8 1280   0.183   3.106   2.585 -0.1101 -0.1569  0.2861
   96c3c     H9 1281   0.540   3.027   2.477 -0.1365 -0.4895 -0.8749
   96c3c    H10 1282   0.579   2.991   2.309 -0.5184 -0.4646  0.3603
   96c3c    H11 1283   0.567   3.160   2.360 -0.3910  0.8302 -1.8672
   96c3c    H12 1284   0.420   3.213   2.207  0.6539 -0.2104 -1.0747
   96c3c    H13 1285   0.453   3.064   2.137 -1.5411 -0.0629 -1.1293
   96c3c     C7 1286   0.235   3.110   2.128 -0.5871 -0.3702 -0.1017
   96c3c    H14 1287   0.167   3.188   2.162 -0.6341 -0.0395 -0.9473
   96c3c    H15 1288   0.178   3.016   2.126  3.8510 -3.2671  1.3159
   96c3c     C8 1289   0.248   3.160   1.981  0.1566  0.5325  0.4839
   96c3c    H16 1290   0.264   3.078   1.911  0.6610  1.2169 -0.2186
   96c3c    H17 1291   0.330   3.232   1.969  0.3290  0.4629  1.2145
   96c3c    H18 1292   0.161   3.216   1.947  1.8242  3.0359  0.1322
   97c3c      N 1293   0.976   1.752   1.696 -0.6942  0.0793 -0.4029
   97c3c     C1 1294   1.045   1.877   1.674  0.6635 -0.4120  0.7285
   97c3c     C2 1295   1.078   1.654   1.746 -1.0861  0.5271 -0.1614
   97c3c     C3 1296   1.146   1.889   1.787  0.2611 -0.2721 -0.7223
   97c3c     C4 1297   1.169   1.742   1.834 -0.1722 -0.7170 -0.2632
   97c3c     C5 1298   0.865   1.755   1.794 -0.2306  0.1378  0.6674
   97c3c     C6 1299   0.922   1.696   1.576  0.7576  0.3485  0.2850
   97c3c     H1 1300   0.965   1.951   1.667 -0.8731 -1.9135  2.0186
   97c3c     H2 1301   1.092   1.888   1.577  0.8260  0.4115  0.8976
   97c3c     H3 1302   1.038   1.564   1.793 -0.0277 -0.7143 -1.6062
   97c3c     H4 1303   1.145   1.612   1.672  0.9799  2.1313  0.7734
   97c3c     H5 1304   1.099   1.961   1.854 -2.5537 -1.2726 -1.5521
   97c3c     H6 1305   1.239   1.936   1.754 -0.2173  0.5682 -0.9023
   97c3c     H7 1306   1.122   1.734   1.933 -0.4807  0.8211 -0.2560
   97c3c     H8 1307   1.269   1.702   1.830  0.0859 -0.0352 -0.7970
   97c3c     H9 1308   0.771   1.798   1.758  0.4543  1.2781  0.2501
   97c3c    H10 1309   0.835   1.653   1.820  1.0400 -0.2115  0.8045
   97c3c    H11 1310   0.891   1.807   1.886 -3.1004  0.4630  1.3403
   97c3c    H12 1311   0.859   1.608   1.586 -0.2931  0.8812 -1.2577
   97c3c    H13 1312   0.854   1.771   1.535  0.9245  0.4680  0.2254
   97c3c     C7 1313   1.011   1.662   1.462  0.0143  0.2987  0.5059
   97c3c    H14 1314   1.084   1.588   1.494 -0.6158 -0.0365  1.1708
   97c3c    H15 1315   1.062   1.752   1.425  1.2009  0.2135  1.8633
   97c3c     C8 1316   0.949   1.590   1.345  0.7026 -0.1727  0.4554
   97c3c    H16 1317   0.933   1.485   1.371  0.0724 -1.0416 -3.1759
   97c3c    H17 1318   1.031   1.580   1.273  0.9005 -3.0508  1.0448
   97c3c    H18 1319   0.864   1.636   1.294  0.0009 -2.4823 -0.5418
   98c3c      N 1320   0.980   1.386   0.505  0.1220 -0.2917  0.2027
   98c3c     C1 1321   0.842   1.372   0.548 -0.7143  0.6246  0.4306
   98c3c     C2 1322   0.965   1.339   0.365  0.0284  1.0523  0.8013
   98c3c     C3 1323   0.752   1.419   0.434 -0.7056  0.0546  0.0947
   98c3c     C4 1324   0.841   1.405   0.314 -0.0669 -0.0699  0.0799
   98c3c     C5 1325   1.038   1.521   0.513 -0.4869 -0.1546 -0.2408
   98c3c     C6 1326   1.071   1.312   0.596 -0.0551  0.1774  0.1144
   98c3c     H1 1327   0.827   1.431   0.639  0.2372  1.4352  0.0710
   98c3c     H2 1328   0.816   1.268   0.566 -0.4995  0.1696 -1.7435
   98c3c     H3 1329   1.054   1.348   0.303  0.1566  2.0630  1.1292
   98c3c     H4 1330   0.939   1.233   0.359 -2.3876  1.5422  1.8514
   98c3c     H5 1331   0.709   1.518   0.451 -0.2571  0.3821 -0.6092
   98c3c     H6 1332   0.662   1.359   0.426 -0.0169 -1.1706  1.3929
   98c3c     H7 1333   0.878   1.498   0.270 -0.5691 -1.1395 -2.7493
   98c3c     H8 1334   0.793   1.342   0.239 -1.8603  3.5516 -1.9211
   98c3c     H9 1335   1.049   1.560   0.614 -1.4396 -0.3860 -0.0372
   98c3c    H10 1336   1.138   1.540   0.474 -0.9888 -0.6567 -1.8093
   98c3c    H11 1337   0.979   1.596   0.460  1.9114  1.5356 -0.5814
   98c3c    H12 1338   1.174   1.338   0.572 -0.1243  0.4848  0.1560
   98c3c    H13 1339   1.071   1.351   0.698  0.4543 -2.5327  1.2119
   98c3c     C7 1340   1.053   1.165   0.613  0.3598  0.4621 -0.2426
   98c3c    H14 1341   1.066   1.113   0.518 -0.4452  0.5672 -0.4165
   98c3c    H15 1342   0.953   1.136   0.645  0.4137  0.2084 -0.2960
   98c3c     C8 1343   1.148   1.102   0.718 -0.1230 -1.0257 -0.1975
   98c3c    H16 1344   1.112   1.119   0.819 -0.4506  0.5275 -0.5574
   98c3c    H17 1345   1.241   1.158   0.706 -1.7452  1.5877 -1.0763
   98c3c    H18 1346   1.160   0.994   0.706  2.7522 -0.7239 -0.2842
   99c3c      N 1347   2.054   0.204   2.599  0.8937 -0.3924  0.3445
   99c3c     C1 1348   2.083   0.326   2.522 -1.2184 -0.0916  0.1255
   99c3c     C2 1349   1.923   0.236   2.667  0.0037  0.2327 -0.8112
   99c3c     C3 1350   1.948   0.374   2.471  0.1342 -0.6945 -0.2915
   99c3c     C4 1351   1.842   0.323   2.567 -0.0394 -0.6431 -0.8773
   99c3c     C5 1352   2.032   0.098   2.505 -0.3512  0.9366  0.7191
   99c3c     C6 1353   2.159   0.156   2.681 -0.3881  0.0869  0.3157
   99c3c     H1 1354   2.159   0.327   2.444 -0.7714  2.1992  0.5600
   99c3c     H2 1355   2.133   0.398   2.586  1.2401  0.3110 -2.1206
   99c3c     H3 1356   1.877   0.147   2.709  0.3873  0.1668 -0.5349
   99c3c     H4 1357   1.941   0.312   2.743  2.5696  1.7240 -2.8274
   99c3c     H5 1358   1.944   0.350   2.365 -0.1874 -3.5389  0.3346
   99c3c     H6 1359   1.934   0.481   2.455  1.1521 -0.6050 -0.5721
   99c3c     H7 1360   1.758   0.272   2.520  0.7241 -0.4573 -2.4779
   99c3c     H8 1361   1.796   0.409   2.615  1.4772 -0.7881  0.8693
   99c3c     H9 1362   2.104   0.079   2.425 -0.6889  0.2474  0.5726
   99c3c    H10 1363   2.022   0.001   2.553  1.2165  1.0135  1.2284
   99c3c    H11 1364   1.946   0.117   2.439  0.1225  1.0947  0.1378
   99c3c    H12 1365   2.121   0.067   2.730 -1.7881  0.4518 -0.0975
   99c3c    H13 1366   2.245   0.126   2.620 -0.8624 -1.1108  0.2436
   99c3c     C7 1367   2.203   0.239   2.802 -0.1312 -0.2360  0.1840
   99c3c    H14 1368   2.109   0.252   2.855 -0.2326 -1.5624  0.3523
   99c3c    H15 1369   2.241   0.335   2.766  0.8199 -0.3984  0.7339
   99c3c     C8 1370   2.308   0.172   2.894 -0.5908  0.1396 -0.4212
   99c3c    H16 1371   2.348   0.240   2.968  1.7406 -0.0065 -1.5126
   99c3c    H17 1372   2.395   0.145   2.834 -0.0854 -2.1447  1.2447
   99c3c    H18 1373   2.274   0.076   2.935  0.9420  0.4648  1.7180
  100c3c      N 1374   1.040   0.079   3.077 -0.0196  0.2085 -0.6825
  100c3c     C1 1375   0.955   0.142   3.183 -0.4416 -0.3099 -0.1042
  100c3c     C2 1376   1.150   0.182   3.059 -0.1926 -0.2194  0.3164
  100c3c     C3 1377   1.047   0.222   3.282  0.0681 -0.8048 -0.1721
  100c3c     C4 1378   1.173   0.248   3.197 -0.5391  0.6669 -0.9105
  100c3c     C5 1379   1.092  -0.041   3.145 -0.6397  0.5186 -1.3734
  100c3c     C6 1380   0.984   0.041   2.951  0.7203 -0.0708 -0.1462
  100c3c     H1 1381   0.897   0.062   3.229  0.5275 -1.1298 -0.2918
  100c3c     H2 1382   0.889   0.206   3.124 -1.2856 -1.9460 -0.9912
  100c3c     H3 1383   1.242   0.133   3.026  1.4817  2.4609  0.9157
  100c3c     H4 1384   1.128   0.260   2.987 -1.3937 -0.1761  0.7231
  100c3c     H5 1385   1.073   0.185   3.381 -0.2353 -1.9849 -0.5146
  100c3c     H6 1386   0.998   0.318   3.299 -0.0510 -0.7038 -1.0433
  100c3c     H7 1387   1.252   0.191   3.245 -0.7868 -0.4079 -1.7634
  100c3c     H8 1388   1.221   0.346   3.187  0.4969  0.4274  1.5226
  100c3c     H9 1389   1.023  -0.120   3.176 -0.5720  1.3433  1.0018
  100c3c    H10 1390   1.159  -0.101   3.084 -0.8367  0.6495 -1.7180
  100c3c    H11 1391   1.147  -0.017   3.236 -0.8626 -0.8434 -0.8671
  100c3c    H12 1392   1.063   0.016   2.880  1.0545 -0.1709  0.2592
  100c3c    H13 1393   0.937  -0.056   2.958  0.4794 -0.0602 -1.4030
  100c3c     C7 1394   0.895   0.139   2.880 -1.2734 -0.3638 -0.5863
  100c3c    H14 1395   0.941   0.238   2.884 -0.2668 -0.8194 -0.7301
  100c3c    H15 1396   0.799   0.150   2.929 -0.6137  1.3902  0.3659
  100c3c     C8 1397   0.885   0.117   2.730 -0.1722 -0.2113 -0.2287
  100c3c    H16 1398   0.829   0.195   2.678 -0.6996 -1.8161 -2.1265
  100c3c    H17 1399   0.828   0.024   2.721  1.2327 -1.1094  0.0840
  100c3c    H18 1400   0.985   0.106   2.688  0.4596  1.5277  0.8020
  101fsi     F1 1401   1.099   0.723   1.611  0.4971  0.0319  0.1176
  101fsi     S1 1402   1.009   0.801   1.712  0.1276 -0.3687 -0.1976
  101fsi      N 1403   0.942   0.692   1.796  0.2255  0.3586  0.3447
  101fsi     O1 1404   1.100   0.887   1.778 -0.1824 -0.0906  0.1194
  101fsi     O2 1405   0.912   0.869   1.632  0.1441 -0.4170  0.2119
  101fsi     S2 1406   0.860   0.561   1.749 -0.2869  0.2002  0.3028
  101fsi     O3 1407   0.888   0.497   1.624  0.4246  0.7683  0.2229
  101fsi     O4 1408   0.723   0.566   1.789  0.5980 -0.9302 -0.0070
  101fsi     F2 1409   0.914   0.455   1.844  0.4698  0.1090  0.2521
  102fsi     F1 1410   2.361   2.788   1.353  0.3853  0.3325  0.3979
  102fsi     S1 1411   2.496   2.846   1.415 -0.2261  0.3459 -0.0947
  102fsi      N 1412   2.533   2.962   1.318 -0.2572  0.1980  0.4918
  102fsi     O1 1413   2.452   2.894   1.542 -0.1262  0.5918  0.5250
  102fsi     O2 1414   2.578   2.732   1.406 -0.0476 -0.3000 -0.1971
  102fsi     S2 1415   2.666   2.962   1.228 -0.1178  0.0185 -0.1252
  102fsi     O3 1416   2.788   2.910   1.287 -0.1193 -0.2792  0.1260
  102fsi     O4 1417   2.677   3.080   1.147 -0.4096  0.2411 -0.0471
  102fsi     F2 1418   2.622   2.860   1.119 -0.1367  0.5134  0.2188
  103fsi     F1 1419   2.632   1.294   2.038  0.5303  0.8401  0.4266
  103fsi     S1 1420   2.744   1.381   1.971 -0.2006  0.0004  0.3540
  103fsi      N 1421   2.721   1.532   2.010 -0.2118  0.8446 -0.2351
  103fsi     O1 1422   2.871   1.335   2.025  0.5927  0.2090  0.0573
  103fsi     O2 1423   2.728   1.352   1.830  0.4226 -0.2281 -0.5635
  103fsi     S2 1424   2.689   1.647   1.922 -0.1911  0.3156 -0.2892
  103fsi     O3 1425   2.603   1.744   1.980 -0.1803  0.3307 -0.3519
  103fsi     O4 1426   2.660   1.616   1.782 -1.0411  0.6143 -0.3956
  103fsi     F2 1427   2.823   1.720   1.912  0.0719  0.1852 -0.0088
  104fsi     F1 1428   2.150   1.030   0.738 -0.2934  0.4265  0.1276
  104fsi     S1 1429   2.110   0.898   0.805 -0.3910  0.7217  0.2560
  104fsi      N 1430   1.957   0.890   0.760 -0.1400  0.4407 -0.3136
  104fsi     O1 1431   2.209   0.804   0.752  0.3635 -0.2265 -0.5289
  104fsi     O2 1432   2.121   0.933   0.944  0.5234  0.1102 -0.3880
  104fsi     S2 1433   1.885   0.832   0.629  0.2554  0.2344 -0.0869
  104fsi     O3 1434   1.959   0.783   0.521  0.2353 -0.1712  0.1371
  104fsi     O4 1435   1.764   0.897   0.596 -0.1953  0.9308 -0.1049
  104fsi     F2 1436   1.829   0.706   0.706 -0.1397 -0.0854  0.7498
  105fsi     F1 1437   2.714   1.410   2.666  0.5850 -0.2930  0.1787
  105fsi     S1 1438   2.827   1.468   2.756  0.1485  0.0559 -0.2276
  105fsi      N 1439   2.772   1.618   2.772 -0.5663 -0.1964 -0.6605
  105fsi     O1 1440   2.824   1.383   2.868 -0.0686 -0.3401 -0.1965
  105fsi     O2 1441   2.944   1.463   2.672  0.1366  0.0722  0.2040
  105fsi     S2 1442   2.674   1.668   2.891  0.4661 -0.4987 -0.4648
  105fsi     O3 1443   2.615   1.571   2.977  0.0211  0.4086  0.4874
  105fsi     O4 1444   2.591   1.781   2.855  0.8954  0.2451  0.2581
  105fsi     F2 1445   2.771   1.728   2.991 -0.3517  0.0424 -0.5352
  106fsi     F1 1446   1.386   0.770   2.632 -0.1906 -0.0347 -0.2796
  106fsi     S1 1447   1.437   0.895   2.558  0.0797 -0.1825 -0.0702
  106fsi      N 1448   1.312   0.992   2.539 -0.4553  0.2897 -0.4444
  106fsi     O1 1449   1.536   0.953   2.645 -0.5588 -0.2515 -0.0797
  106fsi     O2 1450   1.489   0.841   2.435  0.7655  0.8963  0.1476
  106fsi     S2 1451   1.246   1.077   2.648  0.0958 -0.0817  0.1575
  106fsi     O3 1452   1.172   1.185   2.589  0.7051 -0.3713  0.5709
  106fsi     O4 1453   1.316   1.104   2.772  0.0962  0.0254  0.0471
  106fsi     F2 1454   1.140   0.979   2.699 -0.1077 -0.1293 -0.3610
  107fsi     F1 1455   1.291   1.938   0.636  0.2371 -0.6634 -0.0043
  107fsi     S1 1456   1.225   1.804   0.592 -0.1388 -0.0252  0.2013
  107fsi      N 1457   1.296   1.775   0.459 -0.7926  0.1178  0.6351
  107fsi     O1 1458   1.270   1.709   0.696 -0.3239  0.4184  0.2254
  107fsi     O2 1459   1.087   1.819   0.586  0.7829  0.8428 -0.2554
  107fsi     S2 1460   1.259   1.801   0.309 -0.0818 -0.0523  0.2010
  107fsi     O3 1461   1.127   1.771   0.272  0.8011  0.2056  0.3451
  107fsi     O4 1462   1.365   1.754   0.223 -0.0005  0.3936 -0.1207
  107fsi     F2 1463   1.264   1.954   0.305 -0.0677 -0.3444  0.0824
  108fsi     F1 1464   0.605   0.264   2.784  0.1140 -0.8302 -0.0020
  108fsi     S1 1465   0.480   0.311   2.862 -0.0034  0.3159 -0.1117
  108fsi      N 1466   0.533   0.388   2.983  0.4553  0.3783  0.0984
  108fsi     O1 1467   0.407   0.390   2.765 -0.0090  0.0016  0.3929
  108fsi     O2 1468   0.412   0.190   2.907  0.1705  0.7938  0.1641
  108fsi     S2 1469   0.599   0.333   3.115  0.5058  0.3009  0.0093
  108fsi     O3 1470   0.641   0.192   3.110  0.0400  0.2977 -0.0726
  108fsi     O4 1471   0.542   0.381   3.236  0.1975 -0.0167  0.5441
  108fsi     F2 1472   0.739   0.408   3.110 -0.1551 -0.7495 -0.1541
  109fsi     F1 1473   2.290   2.504   0.639  0.4294 -0.1260  0.1559
  109fsi     S1 1474   2.275   2.351   0.680 -0.0248 -0.0518  0.0227
  109fsi      N 1475   2.359   2.282   0.570  0.7499 -0.1164  0.2587
  109fsi     O1 1476   2.323   2.354   0.813 -0.2584 -0.4364 -0.0685
  109fsi     O2 1477   2.136   2.323   0.660 -0.1444 -0.1427 -0.3476
  109fsi     S2 1478   2.453   2.167   0.591  0.1818 -0.0888  0.2804
  109fsi     O3 1479   2.506   2.175   0.724  0.3098  0.3512 -0.6568
  109fsi     O4 1480   2.544   2.155   0.477 -0.3484  0.2039  0.5258
  109fsi     F2 1481   2.359   2.040   0.589  0.0524  0.3700  0.5974
  110fsi     F1 1482   2.186   2.099   1.596  0.2444  0.5521  0.6231
  110fsi     S1 1483   2.048   2.023   1.586  0.0780 -0.1569 -0.0668
  110fsi      N 1484   1.942   2.123   1.646 -0.2615 -0.2634  0.0449
  110fsi     O1 1485   2.039   1.991   1.444  0.3869 -0.2455 -0.0052
  110fsi     O2 1486   2.074   1.912   1.672  0.2802  0.0707  0.1095
  110fsi     S2 1487   1.835   2.214   1.574 -0.2119  0.1574  0.1263
  110fsi     O3 1488   1.857   2.224   1.438  0.5162  1.1371  0.5591
  110fsi     O4 1489   1.810   2.339   1.645  0.2439 -0.4442 -0.4472
  110fsi     F2 1490   1.702   2.130   1.584  0.1348  0.2809  0.1521
  111fsi     F1 1491   2.475   0.373   0.912 -0.5517  0.3309  0.4537
  111fsi     S1 1492   2.564   0.461   1.004  0.3261 -0.1772 -0.2337
  111fsi      N 1493   2.491   0.457   1.147  0.3762  0.6324 -0.0032
  111fsi     O1 1494   2.687   0.386   1.004  0.2227 -0.4538  0.0151
  111fsi     O2 1495   2.561   0.589   0.938 -0.4514 -0.9938  0.1973
  111fsi     S2 1496   2.507   0.354   1.266  0.2950  0.1906 -0.2035
  111fsi     O3 1497   2.629   0.277   1.262 -0.3379 -0.4370  0.2627
  111fsi     O4 1498   2.386   0.287   1.306 -0.0530 -0.2202  0.2570
  111fsi     F2 1499   2.526   0.459   1.371  0.2889 -0.0974  0.0207
  112fsi     F1 1500   1.643   1.117   1.947  0.3417  0.6667 -0.6009
  112fsi     S1 1501   1.527   1.220   1.958  0.2617  0.1563 -0.0443
  112fsi      N 1502   1.411   1.144   2.030  0.0757  0.3332  0.1353
  112fsi     O1 1503   1.581   1.329   2.034  0.2183 -0.4109 -0.0796
  112fsi     O2 1504   1.500   1.256   1.826  0.4260 -0.5495 -0.2811
  112fsi     S2 1505   1.420   1.092   2.176  0.1812  0.0373 -0.3261
  112fsi     O3 1506   1.557   1.082   2.235  0.7896 -0.2166 -0.4121
  112fsi     O4 1507   1.343   0.973   2.184  0.4368 -0.1691 -0.2442
  112fsi     F2 1508   1.342   1.201   2.267 -0.0526  0.0030  0.1016
  113fsi     F1 1509   1.616   0.545   0.983 -0.5961  0.1909 -0.0176
  113fsi     S1 1510   1.566   0.508   0.838 -0.5198 -0.1989  0.0139
  113fsi      N 1511   1.526   0.641   0.777 -0.5122  0.0972  0.0199
  113fsi     O1 1512   1.683   0.451   0.769  0.0420 -0.5987 -0.0538
  113fsi     O2 1513   1.458   0.416   0.868 -0.1446  0.1493  0.2830
  113fsi     S2 1514   1.383   0.703   0.763  0.3943  0.0717  0.6772
  113fsi     O3 1515   1.282   0.631   0.689  0.0005 -0.1169 -0.1065
  113fsi     O4 1516   1.405   0.837   0.709 -0.1881 -0.2321 -0.2527
  113fsi     F2 1517   1.334   0.732   0.911 -0.0985 -0.2183 -0.0663
  114fsi     F1 1518   3.076   1.691   0.102 -0.4640  0.4184 -0.0297
  114fsi     S1 1519   3.234   1.702   0.142  0.7859 -0.4274 -0.3220
  114fsi      N 1520   3.240   1.639   0.290  0.5825 -0.2093  0.1290
  114fsi     O1 1521   3.300   1.624   0.037 -0.3871 -0.2708  0.5214
  114fsi     O2 1522   3.259   1.845   0.146 -0.2512  0.1132  0.1672
  114fsi     S2 1523   3.267   1.496   0.339 -0.1314 -0.1546  0.3079
  114fsi     O3 1524   3.237   1.388   0.245  0.2241  0.0482  0.7214
  114fsi     O4 1525   3.207   1.479   0.469  0.2861  0.4659 -0.3153
  114fsi     F2 1526   3.421   1.485   0.365  0.1440  0.6098 -0.0105
  115fsi     F1 1527   0.198   0.810   0.847 -0.1394 -0.3191 -0.2781
  115fsi     S1 1528   0.215   0.839   0.693 -0.1390  0.1552  0.2814
  115fsi      N 1529   0.093   0.926   0.650  0.5193  0.0258  0.3332
  115fsi     O1 1530   0.339   0.908   0.673 -0.0864 -0.0496 -0.1926
  115fsi     O2 1531   0.218   0.702   0.651 -0.3689 -0.4734 -0.7348
  115fsi     S2 1532   0.079   1.083   0.653  0.2394 -0.0748  0.1031
  115fsi     O3 1533  -0.002   1.139   0.546  0.3414  0.5881 -0.5253
  115fsi     O4 1534   0.197   1.151   0.684 -0.0705  0.4745 -0.0806
  115fsi     F2 1535  -0.011   1.106   0.781 -0.2135 -0.6101  0.5638
  116fsi     F1 1536   1.805   1.868   1.265 -0.4648 -1.2438  0.0813
  116fsi     S1 1537   1.761   1.774   1.143 -0.3361  0.5283  0.3149
  116fsi      N 1538   1.632   1.846   1.080  0.3763 -0.0091  0.1334
  116fsi     O1 1539   1.881   1.772   1.060  0.0701  0.6728 -0.2672
  116fsi     O2 1540   1.731   1.652   1.214  0.3921  0.7655 -0.2008
  116fsi     S2 1541   1.536   1.804   0.960 -0.2161 -0.1984 -0.1876
  116fsi     O3 1542   1.405   1.854   0.982 -0.2436  1.0034 -0.1924
  116fsi     O4 1543   1.547   1.672   0.909  0.4155  0.1952 -0.2590
  116fsi     F2 1544   1.588   1.897   0.843  0.3836 -0.2702 -0.0762
  117fsi     F1 1545   0.212   0.778   2.467 -0.2461  0.0520  0.1477
  117fsi     S1 1546   0.351   0.855   2.462 -0.0104  0.6684  0.0327
  117fsi      N 1547   0.360   0.901   2.314  0.1642  0.7823 -0.1311
  117fsi     O1 1548   0.331   0.957   2.555 -0.1558 -0.7956 -0.1590
  117fsi     O2 1549   0.456   0.758   2.485 -0.3557 -0.0424  0.0739
  117fsi     S2 1550   0.302   1.035   2.250 -0.1702  0.1483 -0.0575
  117fsi     O3 1551   0.209   1.111   2.324  0.0095 -0.1709  0.1504
  117fsi     O4 1552   0.265   1.016   2.114 -0.0708 -0.0101  0.1472
  117fsi     F2 1553   0.437   1.125   2.235  0.1163  0.3077  0.0288
  118fsi     F1 1554   1.380   2.734   1.232  0.1652 -0.2431  0.0945
  118fsi     S1 1555   1.369   2.730   1.390  0.1361 -0.5985  0.1789
  118fsi      N 1556   1.501   2.671   1.444  0.6958 -0.6551  0.2948
  118fsi     O1 1557   1.350   2.867   1.426 -0.2448  0.5398  0.0953
  118fsi     O2 1558   1.262   2.636   1.419  0.0961 -0.0658  0.1449
  118fsi     S2 1559   1.606   2.739   1.526 -0.0583 -0.2460 -0.1236
  118fsi     O3 1560   1.646   2.869   1.481  0.4919  0.9617 -0.1534
  118fsi     O4 1561   1.710   2.646   1.559 -0.4596 -0.0048 -0.4786
  118fsi     F2 1562   1.541   2.756   1.670 -0.1765 -0.1228  0.4730
  119fsi     F1 1563   2.468   1.332   1.063  0.1665  0.9998  0.6728
  119fsi     S1 1564   2.368   1.279   0.951 -0.2825 -0.4538 -0.2150
  119fsi      N 1565   2.411   1.135   0.923 -0.4360  0.2966  0.2320
  119fsi     O1 1566   2.243   1.275   1.024 -0.1979  0.1313 -0.1984
  119fsi     O2 1567   2.373   1.376   0.843  0.2139  0.0784  0.1840
  119fsi     S2 1568   2.475   1.077   0.790 -0.6899  0.1744  0.1072
  119fsi     O3 1569   2.424   1.151   0.681 -0.7276  0.4900 -0.2487
  119fsi     O4 1570   2.480   0.931   0.791  0.4141 -0.1645 -0.1494
  119fsi     F2 1571   2.625   1.110   0.806  0.3685 -0.5950 -0.1601
  120fsi     F1 1572   0.249   2.373   1.996  0.1578  0.2018 -0.6294
  120fsi     S1 1573   0.388   2.456   2.002  0.0805  0.0276 -0.1458
  120fsi      N 1574   0.363   2.582   1.912 -0.2307  0.1097  0.8746
  120fsi     O1 1575   0.416   2.485   2.141  0.2950 -0.1217 -0.3710
  120fsi     O2 1576   0.484   2.372   1.938 -0.4721 -0.0171 -0.3731
  120fsi     S2 1577   0.340   2.737   1.956  0.2446  0.0737  0.0619
  120fsi     O3 1578   0.313   2.750   2.097 -0.0338 -0.4666 -0.6997
  120fsi     O4 1579   0.257   2.815   1.868  0.2590 -0.4161 -0.0658
  120fsi     F2 1580   0.487   2.798   1.934 -0.3485  0.2437  0.0440
  121fsi     F1 1581   2.532   0.480   0.164 -0.3596  0.3059 -0.0259
  121fsi     S1 1582   2.389   0.448   0.232 -0.2290 -0.4538  0.3044
  121fsi      N 1583   2.287   0.438   0.110  0.7935  0.4818  0.2425
  121fsi     O1 1584   2.417   0.320   0.290  0.1850 -0.0942 -0.4916
  121fsi     O2 1585   2.366   0.554   0.319 -0.3133 -1.0841  0.2050
  121fsi     S2 1586   2.174   0.541   0.058 -0.0764 -0.1486 -0.5440
  121fsi     O3 1587   2.124   0.516  -0.076 -0.4100  0.7518 -0.6450
  121fsi     O4 1588   2.212   0.678   0.082  0.1163 -0.0874  0.7172
  121fsi     F2 1589   2.047   0.508   0.147  0.0072  0.7366  0.0771
  122fsi     F1 1590   2.094   1.573   2.912  0.3230  0.2870 -0.3466
  122fsi     S1 1591   2.207   1.594   2.800 -0.0495 -0.2671  0.2188
  122fsi      N 1592   2.320   1.503   2.867  0.1962  0.3880 -0.2981
  122fsi     O1 1593   2.149   1.550   2.674  0.1880  0.6878  0.3729
  122fsi     O2 1594   2.240   1.733   2.811 -0.8229 -0.0101  0.3113
  122fsi     S2 1595   2.336   1.342   2.856 -0.0683 -0.3922 -0.1470
  122fsi     O3 1596   2.215   1.271   2.849  0.1083 -0.5753 -0.0946
  122fsi     O4 1597   2.432   1.294   2.955  0.6186  0.5592 -0.0641
  122fsi     F2 1598   2.405   1.323   2.715 -0.6388  0.1782 -0.1848
  123fsi     F1 1599   0.488   1.633   2.324  0.3402  0.1173  0.8228
  123fsi     S1 1600   0.589   1.556   2.420  0.1259 -0.0256 -0.5609
  123fsi      N 1601   0.601   1.653   2.543 -0.1539  0.7982 -0.0572
  123fsi     O1 1602   0.530   1.433   2.460 -0.1627 -0.2250  0.0482
  123fsi     O2 1603   0.709   1.558   2.344  0.1425  0.2776  0.2173
  123fsi     S2 1604   0.720   1.743   2.588  0.1829 -0.1940  0.0757
  123fsi     O3 1605   0.700   1.802   2.719 -0.5928 -0.6085  0.5566
  123fsi     O4 1606   0.773   1.831   2.483  0.4454  0.4645  0.4925
  123fsi     F2 1607   0.830   1.641   2.618 -0.2470 -0.3134 -0.1397
  124fsi     F1 1608   0.712   2.698   2.810  0.0266 -0.1488  0.0301
  124fsi     S1 1609   0.646   2.840   2.785  0.1213 -0.2043  0.1509
  124fsi      N 1610   0.496   2.800   2.789  0.5785 -0.0550 -0.4607
  124fsi     O1 1611   0.691   2.927   2.895 -0.5947 -0.0987  0.2546
  124fsi     O2 1612   0.694   2.881   2.653  0.1748 -0.3740  0.0059
  124fsi     S2 1613   0.388   2.843   2.891 -0.6943  0.4118  0.1163
  124fsi     O3 1614   0.274   2.896   2.826  0.2938  0.3004  0.2078
  124fsi     O4 1615   0.429   2.905   3.018  0.2067 -0.2731  0.8290
  124fsi     F2 1616   0.333   2.698   2.933  0.5075 -0.2426  0.5084
  125fsi     F1 1617   2.041   1.947   0.616 -0.0306  0.1279  0.1412
  125fsi     S1 1618   1.926   1.975   0.518  0.4610 -0.9268  0.2248
  125fsi      N 1619   1.805   1.900   0.589 -0.0020  0.3797 -0.1770
  125fsi     O1 1620   1.912   2.118   0.529 -0.6015  0.3994  0.2801
  125fsi     O2 1621   1.966   1.920   0.394 -0.7007 -0.2302 -0.4104
  125fsi     S2 1622   1.682   1.844   0.504 -0.1772  0.1053  0.4096
  125fsi     O3 1623   1.636   1.933   0.401 -0.2436  0.0881 -0.4450
  125fsi     O4 1624   1.578   1.783   0.588 -0.5105 -0.2786  0.6302
  125fsi     F2 1625   1.741   1.723   0.423  0.6585  0.1045  0.4697
  126fsi     F1 1626   2.208   2.201   1.891  0.6769 -0.2925 -0.3610
  126fsi     S1 1627   2.138   2.115   1.999 -0.1691 -0.4388  0.3324
  126fsi      N 1628   1.990   2.137   1.966  0.7501  0.7008 -0.1849
  126fsi     O1 1629   2.182   1.983   1.970  0.3510 -0.1026 -0.4205
  126fsi     O2 1630   2.167   2.170   2.130 -0.1757  0.0438  0.1384
  126fsi     S2 1631   1.903   2.270   1.979 -0.3795 -0.6729 -0.0275
  126fsi     O3 1632   1.772   2.260   1.925 -0.6583  0.1613 -0.5283
  126fsi     O4 1633   1.977   2.393   1.947  0.2417  0.3881  0.9382
  126fsi     F2 1634   1.873   2.287   2.129  0.2639 -0.0746 -0.2783
  127fsi     F1 1635   1.966   1.908   2.890 -0.3741  0.4804  0.4268
  127fsi     S1 1636   1.821   1.939   2.955 -0.5450  0.0525 -0.0164
  127fsi      N 1637   1.748   1.802   2.954  0.4676  0.5318 -0.0153
  127fsi     O1 1638   1.848   1.975   3.092 -0.2923 -0.6553  0.4184
  127fsi     O2 1639   1.759   2.032   2.871 -0.1261  0.0135  0.5744
  127fsi     S2 1640   1.727   1.685   3.060  0.3152 -0.0725  0.1276
  127fsi     O3 1641   1.630   1.587   3.019  0.0005 -0.2944  0.6408
  127fsi     O4 1642   1.729   1.721   3.198  0.2245 -0.0512  0.5167
  127fsi     F2 1643   1.865   1.609   3.046  0.4559 -0.2065  0.1823
  128fsi     F1 1644   0.568   1.162   0.030 -0.0722  0.0906  0.3700
  128fsi     S1 1645   0.659   1.129  -0.087  0.2293 -0.0676 -0.2613
  128fsi      N 1646   0.797   1.089  -0.017 -0.3570 -0.7824  0.0675
  128fsi     O1 1647   0.590   1.010  -0.140 -0.1828  0.2100  0.0044
  128fsi     O2 1648   0.659   1.242  -0.174  0.1922 -0.1202 -0.6725
  128fsi     S2 1649   0.929   1.168  -0.008 -0.1162 -0.0950 -0.0787
  128fsi     O3 1650   1.031   1.109   0.070 -1.2347 -0.5634  0.0495
  128fsi     O4 1651   0.914   1.312   0.002 -0.3582  0.6126 -0.1989
  128fsi     F2 1652   0.978   1.153  -0.157 -0.4391  0.5449  0.1986
  129fsi     F1 1653   0.116   0.037   1.165 -0.1426  0.0952  0.2092
  129fsi     S1 1654  -0.002  -0.036   1.109  0.0910 -0.0720  0.4924
  129fsi      N 1655   0.028  -0.034   0.955  0.0288  0.7525  0.3476
  129fsi     O1 1656   0.016  -0.169   1.168 -0.6880 -0.1941  0.1154
  129fsi     O2 1657  -0.116   0.033   1.162  0.4417 -0.8582 -0.6109
  129fsi     S2 1658  -0.012   0.064   0.835 -0.0529  0.1441  0.4568
  129fsi     O3 1659  -0.091   0.170   0.883 -0.3591  0.1596 -0.9215
  129fsi     O4 1660  -0.048  -0.005   0.713  0.5939  0.4298 -0.0325
  129fsi     F2 1661   0.117   0.143   0.792  0.0873  0.5731 -0.4613
  130fsi     F1 1662   3.027   0.097   2.296 -0.6532 -0.0679 -0.4109
  130fsi     S1 1663   2.878   0.076   2.250  0.0956 -0.7261 -0.3261
  130fsi      N 1664   2.836   0.230   2.253  0.5270  0.4862  0.0478
  130fsi     O1 1665   2.882   0.017   2.121 -0.2659  0.2484  0.5101
  130fsi     O2 1666   2.812  -0.006   2.349 -0.1958  0.2441 -0.2011
  130fsi     S2 1667   2.854   0.335   2.134  0.2915 -0.2345 -0.0299
  130fsi     O3 1668   2.945   0.295   2.028 -0.4057  0.1032  0.2230
  130fsi     O4 1669   2.844   0.474   2.182 -0.3116 -0.2516  0.4114
  130fsi     F2 1670   2.715   0.325   2.058  0.0892 -0.0863 -0.1385
  131fsi     F1 1671   0.527   0.778   0.376 -0.6235 -0.3757 -0.5885
  131fsi     S1 1672   0.577   0.914   0.314 -0.3414  0.2249 -0.2294
  131fsi      N 1673   0.438   0.996   0.309 -0.0153 -0.3461 -0.8578
  131fsi     O1 1674   0.660   0.962   0.422 -0.4930  0.8899 -0.0967
  131fsi     O2 1675   0.640   0.886   0.188 -0.2430 -0.4462  0.5632
  131fsi     S2 1676   0.401   1.125   0.373  0.2293 -0.3530  0.4335
  131fsi     O3 1677   0.468   1.166   0.496  0.3203  0.0235 -0.0913
  131fsi     O4 1678   0.259   1.151   0.374 -0.1698 -0.5361 -0.5181
  131fsi     F2 1679   0.455   1.226   0.273  0.0920 -0.8925 -0.1562
  132fsi     F1 1680   2.551   2.717   2.380  0.7372 -0.1333 -0.1207
  132fsi     S1 1681   2.583   2.701   2.534 -0.7764 -0.1845 -0.0483
  132fsi      N 1682   2.574   2.848   2.596 -0.7091  0.7842 -0.5803
  132fsi     O1 1683   2.488   2.605   2.574 -0.2762  0.3586 -0.4124
  132fsi     O2 1684   2.722   2.656   2.524 -0.3838  0.3047  0.0692
  132fsi     S2 1685   2.442   2.916   2.650  0.1037  0.1513  0.1370
  132fsi     O3 1686   2.331   2.831   2.686 -0.3561  0.0559  0.1681
  132fsi     O4 1687   2.409   3.027   2.567 -0.8463  0.1427 -0.0986
  132fsi     F2 1688   2.482   2.984   2.788  0.4553 -0.5845  0.7162
  133fsi     F1 1689   1.975   1.494   1.689  0.0581  0.0537  0.1903
  133fsi     S1 1690   1.828   1.536   1.659 -0.2430  0.1012  0.2059
  133fsi      N 1691   1.808   1.682   1.719 -0.2403 -0.6598 -0.1407
  133fsi     O1 1692   1.808   1.523   1.514 -0.1618 -0.3349  0.3214
  133fsi     O2 1693   1.746   1.445   1.733  0.2021  0.0479 -0.2964
  133fsi     S2 1694   1.729   1.716   1.856 -0.4401 -0.5401  0.2702
  133fsi     O3 1695   1.776   1.840   1.915 -0.5500  0.5722 -0.1598
  133fsi     O4 1696   1.708   1.608   1.946  0.3023 -0.5859 -0.5365
  133fsi     F2 1697   1.587   1.752   1.806  0.0050  0.0260  0.3771
  134fsi     F1 1698   2.459   1.120   1.676 -0.2862  0.1041 -0.0428
  134fsi     S1 1699   2.453   1.221   1.550 -0.2672  0.5014 -0.7820
  134fsi      N 1700   2.296   1.230   1.538 -0.8129  0.3381 -0.1148
  134fsi     O1 1701   2.520   1.337   1.592  0.3630 -0.0765 -0.0603
  134fsi     O2 1702   2.516   1.145   1.449 -0.1675 -0.2881  0.1998
  134fsi     S2 1703   2.195   1.183   1.424  0.0654 -0.3339  0.1297
  134fsi     O3 1704   2.254   1.130   1.301 -0.0522  0.4335  0.2746
  134fsi     O4 1705   2.086   1.270   1.402 -0.5508 -0.7566 -0.3717
  134fsi     F2 1706   2.123   1.058   1.494  0.3107  0.2873  0.0197
  135fsi     F1 1707   2.414   0.676   2.369 -0.1653 -0.0398 -0.2158
  135fsi     S1 1708   2.530   0.727   2.275  0.4359  0.3283 -0.2132
  135fsi      N 1709   2.464   0.850   2.196 -0.2903  0.0696 -0.0226
  135fsi     O1 1710   2.641   0.759   2.366  0.0791  0.3824 -0.0954
  135fsi     O2 1711   2.553   0.624   2.181 -0.1025 -0.2475  0.2594
  135fsi     S2 1712   2.459   1.001   2.248  0.3420 -0.0168 -0.1920
  135fsi     O3 1713   2.437   1.089   2.140  0.2440 -0.4544 -0.7576
  135fsi     O4 1714   2.552   1.045   2.345  0.2261 -0.5504 -0.0927
  135fsi     F2 1715   2.322   0.995   2.330 -0.4718 -0.2635 -0.3394
  136fsi     F1 1716   0.308   1.885   1.894  0.1745  0.1118 -0.9046
  136fsi     S1 1717   0.372   1.991   1.988 -0.1466 -0.0607 -0.0509
  136fsi      N 1718   0.483   1.905   2.061 -0.3042 -0.0650 -0.3536
  136fsi     O1 1719   0.431   2.087   1.903  0.1651  0.0839  0.0543
  136fsi     O2 1720   0.263   2.023   2.070  0.1095  0.0553  0.5082
  136fsi     S2 1721   0.638   1.916   2.072 -0.2493 -0.3444 -0.1004
  136fsi     O3 1722   0.708   2.013   1.993 -0.2384  0.4502 -0.0189
  136fsi     O4 1723   0.701   1.788   2.101 -0.2160 -0.6575  0.2492
  136fsi     F2 1724   0.640   1.991   2.217 -0.3128 -1.1239  0.0711
  137fsi     F1 1725   1.895   2.958   0.781 -0.3680 -0.1726 -0.6161
  137fsi     S1 1726   1.969   2.925   0.642  0.0986  0.1256  0.1642
  137fsi      N 1727   1.988   2.768   0.645 -0.1086  0.5740 -0.5633
  137fsi     O1 1728   1.871   2.979   0.550 -0.0125 -0.6008  0.4631
  137fsi     O2 1729   2.092   2.994   0.642 -0.5305 -0.3117  0.4503
  137fsi     S2 1730   1.937   2.659   0.546 -0.2311 -0.1447  0.1087
  137fsi     O3 1731   1.823   2.695   0.468  0.2732 -0.0998  0.0589
  137fsi     O4 1732   1.943   2.528   0.609 -0.4764 -0.0675 -0.1313
  137fsi     F2 1733   2.061   2.649   0.442  0.6904  0.1742 -0.2340
  138fsi     F1 1734   2.708   2.087   2.710  0.1766 -0.2388  0.3809
  138fsi     S1 1735   2.572   2.157   2.753  0.0770 -0.1411  0.2352
  138fsi      N 1736   2.602   2.185   2.898 -0.1031 -0.5711 -0.6187
  138fsi     O1 1737   2.570   2.277   2.674  0.5346 -0.4425  0.5000
  138fsi     O2 1738   2.474   2.055   2.732  0.1017 -0.3227 -0.0316
  138fsi     S2 1739   2.543   2.125   3.033 -0.0270  0.2510  0.0876
  138fsi     O3 1740   2.411   2.064   3.029 -0.1381  0.2248  0.0141
  138fsi     O4 1741   2.579   2.211   3.144  0.5282 -0.0307 -0.6009
  138fsi     F2 1742   2.634   2.002   3.048 -0.2742 -0.0197 -0.3448
  139fsi     F1 1743   0.491   1.332   1.098  0.2536 -0.9120 -0.3371
  139fsi     S1 1744   0.344   1.358   1.051 -0.0426  0.0372  0.3103
  139fsi      N 1745   0.344   1.514   1.025  0.0783 -0.0219  0.4730
  139fsi     O1 1746   0.335   1.271   0.936 -0.2363 -0.1431 -0.1477
  139fsi     O2 1747   0.263   1.322   1.172  0.0496 -0.1381 -0.2859
  139fsi     S2 1748   0.325   1.586   0.884  0.0696  0.2559 -0.0404
  139fsi     O3 1749   0.366   1.507   0.770 -0.0938 -0.2381 -0.7676
  139fsi     O4 1750   0.369   1.722   0.892 -0.2828  0.0459  0.1437
  139fsi     F2 1751   0.176   1.584   0.864  0.0894 -0.0154  0.2043
  140fsi     F1 1752   1.016   1.373   2.171 -0.0496 -0.1864  0.0949
  140fsi     S1 1753   0.904   1.391   2.065 -0.3357  0.1070 -0.0830
  140fsi      N 1754   0.981   1.337   1.942 -0.1000  0.2304  0.4680
  140fsi     O1 1755   0.788   1.312   2.102 -0.2955  0.2136 -0.1560
  140fsi     O2 1756   0.893   1.536   2.066  0.3519  0.5044 -0.3447
  140fsi     S2 1757   1.025   1.193   1.919  0.2122 -0.0021  0.2500
  140fsi     O3 1758   1.030   1.109   2.036 -0.3403  0.1504  0.0080
  140fsi     O4 1759   1.134   1.188   1.826 -0.2014 -0.3068  0.6648
  140fsi     F2 1760   0.901   1.139   1.833  0.0528  0.3163 -0.5010
  141fsi     F1 1761   1.512   0.421   1.619 -0.4007  0.4459  0.0448
  141fsi     S1 1762   1.380   0.347   1.594 -0.3810 -0.1814  0.0920
  141fsi      N 1763   1.303   0.455   1.507 -0.3221  0.0609  0.3624
  141fsi     O1 1764   1.422   0.229   1.526 -0.1582  0.0731  0.2539
  141fsi     O2 1765   1.320   0.340   1.727  0.1769 -0.5029  0.8125
  141fsi     S2 1766   1.277   0.475   1.355  0.3251  0.3736  0.2134
  141fsi     O3 1767   1.372   0.409   1.273  0.0428 -0.2516 -0.3042
  141fsi     O4 1768   1.257   0.614   1.325 -0.2655 -0.0598 -0.0590
  141fsi     F2 1769   1.144   0.406   1.328  0.1427  0.3931  0.0625
  142fsi     F1 1770   2.166   2.201   0.382  0.1808 -0.2431  0.7035
  142fsi     S1 1771   2.222   2.175   0.241 -0.1015  0.0942 -0.2143
  142fsi      N 1772   2.217   2.320   0.179 -0.0037 -1.0424 -0.0797
  142fsi     O1 1773   2.355   2.129   0.256 -0.4223  0.1864  0.1247
  142fsi     O2 1774   2.129   2.086   0.181 -0.1087  0.2873  0.2687
  142fsi     S2 1775   2.312   2.447   0.198 -0.1235  0.2056  0.0442
  142fsi     O3 1776   2.436   2.428   0.274  0.1797 -0.4246 -0.1558
  142fsi     O4 1777   2.247   2.575   0.218  0.4551  0.1596 -0.0158
  142fsi     F2 1778   2.355   2.457   0.052  0.4232  0.0895  0.5655
  143fsi     F1 1779   2.274   0.645   1.314  0.1210 -0.3563  0.6966
  143fsi     S1 1780   2.206   0.717   1.192 -0.1101 -0.0991  0.2439
  143fsi      N 1781   2.108   0.608   1.138 -0.5912  0.0911 -0.2247
  143fsi     O1 1782   2.128   0.824   1.254  0.2971  0.0374  0.2090
  143fsi     O2 1783   2.312   0.752   1.102  0.1609 -0.4804  0.3220
  143fsi     S2 1784   2.130   0.504   1.030 -0.5149 -0.2235  0.0830
  143fsi     O3 1785   2.161   0.367   1.076 -0.5253  0.0423 -0.8984
  143fsi     O4 1786   2.215   0.558   0.925 -0.3479 -0.0967 -0.0484
  143fsi     F2 1787   1.984   0.492   0.965 -0.3186  0.6972  0.5188
  144fsi     F1 1788   2.135   2.241   2.559  0.0913 -0.2744  0.3760
  144fsi     S1 1789   2.092   2.377   2.603  0.1688 -0.0838 -0.0648
  144fsi      N 1790   1.972   2.409   2.500  0.1544 -0.1641  0.1277
  144fsi     O1 1791   2.061   2.361   2.738  0.0037 -0.0153  0.3398
  144fsi     O2 1792   2.206   2.463   2.567  0.6983 -0.1390 -0.5733
  144fsi     S2 1793   1.828   2.474   2.522  0.5373  0.1330 -0.2418
  144fsi     O3 1794   1.802   2.603   2.460  0.2022  0.1510  0.1914
  144fsi     O4 1795   1.760   2.450   2.648 -0.2671 -0.6456 -0.1701
  144fsi     F2 1796   1.743   2.392   2.422 -0.5722  0.2751 -0.1137
  145fsi     F1 1797   1.411   1.070   1.434 -0.0404 -0.4808  0.1984
  145fsi     S1 1798   1.421   0.956   1.535 -0.1054  0.1469 -0.1435
  145fsi      N 1799   1.570   0.900   1.507 -0.2144  0.1151 -0.4059
  145fsi     O1 1800   1.399   1.012   1.665  0.1847 -0.0292  0.0217
  145fsi     O2 1801   1.320   0.865   1.489 -0.4195 -0.0431  1.2428
  145fsi     S2 1802   1.711   0.947   1.579  0.1424 -0.0757 -0.1118
  145fsi     O3 1803   1.704   1.077   1.631  0.5417  0.2936 -0.2906
  145fsi     O4 1804   1.822   0.913   1.505 -0.3793  0.3792 -0.0455
  145fsi     F2 1805   1.715   0.859   1.707 -0.0436 -0.0870 -0.0732
  146fsi     F1 1806   1.248   2.450   0.660  0.0275 -0.4926  0.1316
  146fsi     S1 1807   1.311   2.315   0.611  0.2647  0.1811 -0.4369
  146fsi      N 1808   1.462   2.339   0.636 -0.6450 -0.1707 -0.6250
  146fsi     O1 1809   1.252   2.216   0.697 -0.4330 -0.3180 -0.0628
  146fsi     O2 1810   1.277   2.310   0.470 -0.1568 -0.5734  0.2260
  146fsi     S2 1811   1.567   2.410   0.543  0.2905  0.3674 -0.1282
  146fsi     O3 1812   1.518   2.439   0.415  0.2118  0.5797 -0.2741
  146fsi     O4 1813   1.699   2.351   0.551  0.0499  0.3785 -0.2574
  146fsi     F2 1814   1.579   2.555   0.611 -0.3971  0.5891 -0.0089
  147fsi     F1 1815   2.452   2.571   1.016 -0.2290 -0.8186 -0.1245
  147fsi     S1 1816   2.522   2.447   1.096  0.0577  0.1563 -0.2491
  147fsi      N 1817   2.400   2.367   1.134 -0.7168 -0.0537 -0.1461
  147fsi     O1 1818   2.598   2.376   1.001  0.0250  0.0792 -0.2744
  147fsi     O2 1819   2.591   2.513   1.201  0.0914  0.1425 -0.2861
  147fsi     S2 1820   2.345   2.314   1.272 -0.1416  0.0584 -0.4032
  147fsi     O3 1821   2.200   2.299   1.276  0.0431  0.1925 -0.0904
  147fsi     O4 1822   2.405   2.373   1.391 -0.4860  0.8835 -0.2266
  147fsi     F2 1823   2.397   2.166   1.275 -0.2409 -0.4662  0.3383
  148fsi     F1 1824   2.769   2.670   1.735  0.3685  0.3296 -0.7370
  148fsi     S1 1825   2.628   2.600   1.786 -0.0048 -0.0316  0.0331
  148fsi      N 1826   2.524   2.715   1.824  0.4732 -0.8781  0.1584
  148fsi     O1 1827   2.593   2.537   1.664  0.7193  0.3845 -0.5577
  148fsi     O2 1828   2.672   2.507   1.887 -0.2816 -0.7672  0.5538
  148fsi     S2 1829   2.537   2.807   1.943 -0.0047  0.0082 -0.1737
  148fsi     O3 1830   2.598   2.744   2.058 -0.8679  0.0324  0.1474
  148fsi     O4 1831   2.417   2.881   1.959  1.2451 -0.0768 -0.0890
  148fsi     F2 1832   2.636   2.908   1.893  0.3605 -0.1492  0.2224
  149fsi     F1 1833   0.317   1.830   0.604 -0.5679  0.5497  0.0573
  149fsi     S1 1834   0.446   1.854   0.506  0.2219  0.6032  0.4104
  149fsi      N 1835   0.500   1.985   0.564  0.0379 -0.9993  0.3309
  149fsi     O1 1836   0.530   1.742   0.533  0.0234 -0.0496  0.8427
  149fsi     O2 1837   0.393   1.854   0.376  0.5267  0.4816  0.1290
  149fsi     S2 1838   0.455   2.127   0.521 -0.0102 -0.1310 -0.2337
  149fsi     O3 1839   0.331   2.130   0.452  0.2544 -0.8440  0.9252
  149fsi     O4 1840   0.558   2.219   0.476  0.3018 -0.3796  0.0188
  149fsi     F2 1841   0.416   2.180   0.661 -0.0636 -0.3413  0.5644
  150fsi     F1 1842   0.051   0.664   1.464 -0.4629 -0.5451  0.3234
  150fsi     S1 1843   0.092   0.713   1.599 -0.2031  0.3002  0.1403
  150fsi      N 1844   0.164   0.850   1.571 -0.2434  0.1573  0.2051
  150fsi     O1 1845  -0.033   0.714   1.673 -0.3699  0.0904  0.1113
  150fsi     O2 1846   0.179   0.608   1.645  0.3313 -0.0671 -0.2950
  150fsi     S2 1847   0.098   0.991   1.579 -0.1755 -0.2495  0.3158
  150fsi     O3 1848  -0.035   0.999   1.526 -0.1981 -0.2224 -0.0374
  150fsi     O4 1849   0.183   1.096   1.533 -0.2669  0.0874  0.0300
  150fsi     F2 1850   0.079   1.022   1.731  0.0420  0.2389 -0.3795
  151fsi     F1 1851   1.311   1.378   1.095 -0.3342  0.0281 -0.3692
  151fsi     S1 1852   1.445   1.300   1.087 -0.3853 -0.3378  0.1251
  151fsi      N 1853   1.446   1.243   0.942  0.2310 -0.9327  0.1360
  151fsi     O1 1854   1.545   1.402   1.112  0.2551 -0.1110  0.0130
  151fsi     O2 1855   1.421   1.191   1.184  0.5969 -0.2885  0.0334
  151fsi     S2 1856   1.535   1.285   0.818  0.1104 -0.0194  0.3023
  151fsi     O3 1857   1.476   1.387   0.734  0.3949 -0.6167  0.3652
  151fsi     O4 1858   1.582   1.167   0.747 -0.1747 -0.2267 -0.2382
  151fsi     F2 1859   1.672   1.362   0.874 -0.3028  0.4514  0.2225
  152fsi     F1 1860   0.987   2.264   1.974 -0.0021 -0.1906  0.2747
  152fsi     S1 1861   0.911   2.356   2.074  0.1104 -0.2112  0.0411
  152fsi      N 1862   0.923   2.511   2.026 -0.2557  0.4589  0.2378
  152fsi     O1 1863   0.782   2.308   2.078  0.4803  0.2838  0.5001
  152fsi     O2 1864   0.979   2.346   2.198 -0.2030  0.9121  0.0365
  152fsi     S2 1865   0.846   2.589   1.921  0.0883  0.1016  0.0633
  152fsi     O3 1866   0.776   2.503   1.833  0.3067  0.3699 -0.3973
  152fsi     O4 1867   0.923   2.690   1.855  0.1976  0.0640  0.0196
  152fsi     F2 1868   0.730   2.676   1.991 -0.1107  0.1510  0.3607
  153fsi     F1 1869   2.996   2.333   1.361 -0.2680 -0.0071 -0.3979
  153fsi     S1 1870   2.924   2.464   1.403  0.1397 -0.1185  0.9350
  153fsi      N 1871   3.004   2.512   1.530  0.1392 -0.1466  0.3401
  153fsi     O1 1872   2.946   2.535   1.283 -0.3960  0.1875 -0.0130
  153fsi     O2 1873   2.790   2.428   1.431 -0.3097 -0.5100 -0.3031
  153fsi     S2 1874   3.103   2.638   1.541  0.3691 -0.1573  0.2474
  153fsi     O3 1875   3.074   2.740   1.640  0.1675 -0.4417 -0.6790
  153fsi     O4 1876   3.148   2.690   1.416 -0.1050  0.3035  0.1391
  153fsi     F2 1877   3.230   2.572   1.597  0.2756  0.0028  0.2253
  154fsi     F1 1878   2.672   1.397   1.274 -0.2501  0.1530  0.1555
  154fsi     S1 1879   2.754   1.526   1.306  0.3027  0.0836  0.0433
  154fsi      N 1880   2.905   1.479   1.301  0.6988  0.4952  0.3400
  154fsi     O1 1881   2.718   1.620   1.201 -0.5592 -0.1289  0.4979
  154fsi     O2 1882   2.710   1.560   1.440  0.7668  0.2411 -0.2328
  154fsi     S2 1883   2.975   1.388   1.191 -0.2578  0.0160  0.0323
  154fsi     O3 1884   2.899   1.332   1.079 -0.2207 -0.8502 -0.5564
  154fsi     O4 1885   3.070   1.300   1.256 -0.2516 -0.2297 -0.1533
  154fsi     F2 1886   3.068   1.487   1.114  0.4415 -0.1306  0.2250
  155fsi     F1 1887   1.767   2.095   0.942  0.6005 -0.2957 -0.2197
  155fsi     S1 1888   1.867   2.214   0.945 -0.3111 -0.1096 -0.2205
  155fsi      N 1889   2.006   2.147   0.907  0.2341 -0.1644  0.0416
  155fsi     O1 1890   1.817   2.300   0.842  0.2275 -0.3883  0.4915
  155fsi     O2 1891   1.858   2.257   1.087 -0.6522 -0.8715 -0.0688
  155fsi     S2 1892   2.112   2.075   1.002  0.3637  0.0431 -0.8714
  155fsi     O3 1893   2.081   2.056   1.143  0.1261  0.0781  0.1132
  155fsi     O4 1894   2.244   2.115   0.969 -0.6624  0.0571 -0.6292
  155fsi     F2 1895   2.103   1.922   0.942 -0.0057 -0.2140 -0.4165
  156fsi     F1 1896   2.639   1.857   1.002  0.3319 -0.1699 -0.0795
  156fsi     S1 1897   2.690   2.003   1.008  0.0897  0.1513 -0.4006
  156fsi      N 1898   2.791   2.006   1.129 -0.0059 -0.0615  0.6490
  156fsi     O1 1899   2.754   2.022   0.885  0.0696 -0.5920 -0.3146
  156fsi     O2 1900   2.572   2.078   1.036 -0.2876 -0.1670  0.2609
  156fsi     S2 1901   2.760   2.022   1.282 -0.0642 -0.1720 -0.1291
  156fsi     O3 1902   2.871   1.985   1.367 -0.1403 -0.0420 -0.2559
  156fsi     O4 1903   2.631   1.980   1.323  0.2335 -0.0994  0.1777
  156fsi     F2 1904   2.757   2.182   1.293 -0.3000  0.1822 -0.2024
  157fsi     F1 1905   2.283   1.804   0.262  0.0755  0.1180  0.3956
  157fsi     S1 1906   2.216   1.728   0.137  0.1600 -0.0136 -0.2864
  157fsi      N 1907   2.313   1.609   0.114  0.4057 -0.9630  0.0477
  157fsi     O1 1908   2.082   1.696   0.180  0.1057  0.1323  0.3630
  157fsi     O2 1909   2.228   1.824   0.031  0.0011 -0.1910 -0.0792
  157fsi     S2 1910   2.346   1.488   0.205 -0.0433  0.2566 -0.2255
  157fsi     O3 1911   2.339   1.514   0.345  0.0374 -0.4402  0.3370
  157fsi     O4 1912   2.464   1.424   0.157  0.2675  0.1207  0.2957
  157fsi     F2 1913   2.229   1.381   0.181 -0.2192  0.5438 -0.0518
  158fsi     F1 1914   1.560   0.007   2.473  0.1288  0.1412  0.3829
  158fsi     S1 1915   1.667  -0.097   2.428 -0.4665 -0.0966 -0.2624
  158fsi      N 1916   1.768  -0.086   2.549  0.3564  0.1033  0.4377
  158fsi     O1 1917   1.601  -0.223   2.415 -0.5521 -0.8176 -0.2700
  158fsi     O2 1918   1.718  -0.038   2.308 -0.4585 -0.3820  0.5044
  158fsi     S2 1919   1.778  -0.180   2.678 -0.1577 -0.1668 -0.0905
  158fsi     O3 1920   1.699  -0.298   2.678 -0.1838  0.3573  0.3411
  158fsi     O4 1921   1.795  -0.118   2.802 -0.0140  0.2124  0.3148
  158fsi     F2 1922   1.915  -0.245   2.648 -0.6028  0.1790  0.1370
  159fsi     F1 1923   1.229   0.434   2.744  0.0325  0.0701  0.1221
  159fsi     S1 1924   1.378   0.376   2.735  0.4112 -0.2066 -0.3497
  159fsi      N 1925   1.421   0.371   2.887  0.1905 -0.0635  0.0224
  159fsi     O1 1926   1.360   0.250   2.669  0.2527  1.5256  1.3224
  159fsi     O2 1927   1.456   0.475   2.667 -0.6847 -0.3673 -0.1365
  159fsi     S2 1928   1.542   0.283   2.938  0.0535  0.0576 -0.1440
  159fsi     O3 1929   1.629   0.230   2.835  0.3370  0.4583 -0.2073
  159fsi     O4 1930   1.505   0.181   3.033 -0.2431  0.3177 -0.1990
  159fsi     F2 1931   1.633   0.367   3.028  0.2608 -0.4188 -0.0041
  160fsi     F1 1932   2.847   2.773   0.148  0.0371  0.2264 -0.1869
  160fsi     S1 1933   2.843   2.738   0.297 -0.0908 -0.1678  0.0574
  160fsi      N 1934   2.988   2.691   0.326  0.6349  0.4246  0.0222
  160fsi     O1 1935   2.811   2.867   0.358 -0.4056  0.6211 -0.4243
  160fsi     O2 1936   2.745   2.636   0.309 -0.0544 -0.2986  0.5761
  160fsi     S2 1937   3.114   2.776   0.375 -0.2094  0.1429  0.3708
  160fsi     O3 1938   3.235   2.700   0.406 -0.5991  0.3132  0.1115
  160fsi     O4 1939   3.082   2.889   0.458 -0.5787  0.3328  0.8038
  160fsi     F2 1940   3.153   2.842   0.241  0.3905 -0.5483 -0.1338
  161fsi     F1 1941   3.044   0.379   1.380  0.0066  0.5829 -0.5514
  161fsi     S1 1942   3.002   0.428   1.239  0.1399 -0.1359  0.0505
  161fsi      N 1943   3.130   0.508   1.188  0.6868  0.2065 -0.3478
  161fsi     O1 1944   2.968   0.312   1.165 -0.0552  0.2633  0.1624
  161fsi     O2 1945   2.896   0.518   1.268  0.1152 -0.1646 -0.1078
  161fsi     S2 1946   3.222   0.476   1.061  0.0065  0.2889  0.1236
  161fsi     O3 1947   3.325   0.576   1.041  0.4027 -0.1829 -0.2737
  161fsi     O4 1948   3.151   0.432   0.942  0.4478  0.1900 -0.2175
  161fsi     F2 1949   3.307   0.354   1.103 -1.3564 -0.1196 -0.1886
  162fsi     F1 1950   1.380   1.795   1.316 -0.3271  0.4225  0.2213
  162fsi     S1 1951   1.428   1.747   1.453  0.5806 -0.0112  0.4238
  162fsi      N 1952   1.483   1.605   1.417  0.4768 -0.2414  0.0749
  162fsi     O1 1953   1.534   1.836   1.486  1.1542 -0.3558  0.5140
  162fsi     O2 1954   1.311   1.757   1.537 -0.1638 -0.7791  0.1307
  162fsi     S2 1955   1.446   1.481   1.498  0.1011  0.1878 -0.0311
  162fsi     O3 1956   1.407   1.499   1.636 -0.4781 -0.4941 -0.0226
  162fsi     O4 1957   1.536   1.372   1.452  0.3571  0.1140 -0.5423
  162fsi     F2 1958   1.311   1.438   1.424  0.5244  0.1657  0.0494
  163fsi     F1 1959   1.114   0.077   2.446  0.4627 -0.5665  0.0974
  163fsi     S1 1960   1.179  -0.010   2.329  0.7872 -0.5903 -0.0019
  163fsi      N 1961   1.097  -0.147   2.342 -0.0690  0.2712 -0.6317
  163fsi     O1 1962   1.164   0.071   2.209 -0.7589 -0.4445  0.0341
  163fsi     O2 1963   1.312  -0.035   2.367 -0.5416 -0.0522  0.3110
  163fsi     S2 1964   1.009  -0.216   2.231 -0.2467  0.5494  0.3956
  163fsi     O3 1965   0.979  -0.351   2.266  0.2080 -0.0808 -0.0825
  163fsi     O4 1966   1.050  -0.196   2.090 -0.4574  0.3588  0.1689
  163fsi     F2 1967   0.870  -0.134   2.239 -0.4979 -0.3732 -0.1162
  164fsi     F1 1968   0.428   2.250   1.022 -0.0567 -0.2069 -0.2246
  164fsi     S1 1969   0.435   2.407   1.018 -0.0553  0.0169  0.3053
  164fsi      N 1970   0.282   2.449   1.033 -0.7134  0.2464 -0.1277
  164fsi     O1 1971   0.525   2.432   1.130  0.4063 -0.1297  0.2468
  164fsi     O2 1972   0.489   2.431   0.885  0.0379 -0.2553  1.0527
  164fsi     S2 1973   0.222   2.557   1.134 -0.2053  0.2602  0.2391
  164fsi     O3 1974   0.090   2.593   1.088  0.0011 -0.5369 -0.0756
  164fsi     O4 1975   0.312   2.659   1.177 -0.0688  0.4399  0.0811
  164fsi     F2 1976   0.188   2.482   1.262  0.0636  0.2990  0.6500
  165fsi     F1 1977   0.627   1.178   1.536 -0.1120  0.4835 -0.1936
  165fsi     S1 1978   0.575   1.221   1.393 -0.2037 -0.2270 -0.2876
  165fsi      N 1979   0.631   1.368   1.392 -0.1297 -0.2300  0.1102
  165fsi     O1 1980   0.654   1.135   1.310 -0.3185  0.2118 -0.7008
  165fsi     O2 1981   0.433   1.209   1.402 -0.1510  0.4534  0.0585
  165fsi     S2 1982   0.558   1.507   1.385  0.1554 -0.1849 -0.3243
  165fsi     O3 1983   0.595   1.594   1.498  0.0165  0.4308  0.3945
  165fsi     O4 1984   0.419   1.494   1.361 -0.2465 -0.6252 -0.1191
  165fsi     F2 1985   0.618   1.588   1.254  0.7961  0.0071  0.1384
  166fsi     F1 1986   0.505   0.772   0.863 -0.4001 -0.4388 -0.3043
  166fsi     S1 1987   0.612   0.674   0.803 -0.0215 -0.1668 -0.0145
  166fsi      N 1988   0.548   0.532   0.830 -0.2265 -0.2237 -0.7555
  166fsi     O1 1989   0.623   0.709   0.664 -0.1185  0.1964  0.5558
  166fsi     O2 1990   0.727   0.691   0.883 -0.4145  0.2505 -0.1270
  166fsi     S2 1991   0.504   0.431   0.728 -0.1546 -0.2426  0.3235
  166fsi     O3 1992   0.541   0.463   0.591 -0.5795 -0.2878 -0.6205
  166fsi     O4 1993   0.367   0.388   0.750  0.2161 -0.5894 -0.2743
  166fsi     F2 1994   0.595   0.305   0.756  0.2924 -0.0027 -0.6699
  167fsi     F1 1995   1.793   0.725   1.934  0.2188 -0.0280  0.0950
  167fsi     S1 1996   1.668   0.685   2.017  0.1552 -0.0618 -0.1203
  167fsi      N 1997   1.572   0.625   1.903  0.5794  0.8157 -0.1207
  167fsi     O1 1998   1.718   0.578   2.099  0.5346  0.0812  0.2778
  167fsi     O2 1999   1.625   0.808   2.070  0.2785  0.1327  0.3764
  167fsi     S2 2000   1.438   0.675   1.843 -0.3713 -0.4126  0.5057
  167fsi     O3 2001   1.426   0.680   1.699 -0.3430  0.1193  0.3962
  167fsi     O4 2002   1.394   0.794   1.914 -0.1473 -0.0300  0.1431
  167fsi     F2 2003   1.331   0.571   1.887  0.0804  0.5830  0.5973
  168fsi     F1 2004   1.640   2.509   2.148  0.8235 -0.4229  0.3072
  168fsi     S1 2005   1.603   2.610   2.027  0.0140 -0.2695  0.0402
  168fsi      N 2006   1.441   2.587   2.014  0.4170 -1.0210  0.3806
  168fsi     O1 2007   1.650   2.741   2.068  0.0637  0.5117 -0.0379
  168fsi     O2 2008   1.668   2.552   1.911 -0.2947 -0.4210 -0.3998
  168fsi     S2 2009   1.315   2.671   2.068  0.2546  0.0112  0.1974
  168fsi     O3 2010   1.345   2.740   2.191  0.0072 -0.0776 -0.1570
  168fsi     O4 2011   1.193   2.592   2.056  0.2883  0.1480 -1.1705
  168fsi     F2 2012   1.303   2.783   1.958  0.1413 -0.6177  0.3840
  169fsi     F1 2013   2.864   0.289   0.338  0.1920  1.2033  0.0770
  169fsi     S1 2014   2.957   0.227   0.440  0.1534  0.0158  0.1559
  169fsi      N 2015   3.095   0.256   0.378 -0.0625 -1.0977 -0.0340
  169fsi     O1 2016   2.925   0.301   0.558  0.0827  0.3754 -0.0449
  169fsi     O2 2017   2.923   0.089   0.421  0.0600  0.3395  0.0561
  169fsi     S2 2018   3.211   0.354   0.436 -0.1408 -0.0087  0.2499
  169fsi     O3 2019   3.341   0.340   0.373 -0.4028  0.8871  0.1768
  169fsi     O4 2020   3.210   0.364   0.579 -0.2592 -0.0731 -0.3270
  169fsi     F2 2021   3.157   0.489   0.377  0.4233  0.1797 -0.3155
  170fsi     F1 2022   1.533   1.522   0.251 -0.6122 -0.8660  0.3807
  170fsi     S1 2023   1.486   1.438   0.376 -0.4578  0.1124 -0.0628
  170fsi      N 2024   1.561   1.303   0.354  0.6469  0.5101  0.2557
  170fsi     O1 2025   1.537   1.509   0.492 -0.3171 -0.2757  0.2553
  170fsi     O2 2026   1.339   1.433   0.373  0.3190  0.0968  0.1644
  170fsi     S2 2027   1.530   1.184   0.256  0.3285 -0.1139  0.2317
  170fsi     O3 2028   1.631   1.085   0.252 -0.6767 -0.4262 -0.0490
  170fsi     O4 2029   1.469   1.226   0.134 -0.3996 -0.5376  0.4457
  170fsi     F2 2030   1.408   1.107   0.321 -0.2503 -0.2857  0.3969
  171fsi     F1 2031   1.144   2.280   3.017 -0.7068 -0.3169 -0.5050
  171fsi     S1 2032   1.162   2.166   3.127 -0.0989 -0.1123 -0.0384
  171fsi      N 2033   1.304   2.110   3.082  0.6308 -0.2687  0.1584
  171fsi     O1 2034   1.163   2.237   3.253  0.1571 -0.0380  0.1988
  171fsi     O2 2035   1.063   2.072   3.101  0.2940  0.3775 -0.8472
  171fsi     S2 2036   1.448   2.131   3.142 -0.0273  0.1052 -0.3087
  171fsi     O3 2037   1.513   2.007   3.189 -0.0013  0.0114 -0.1061
  171fsi     O4 2038   1.461   2.247   3.221 -0.5213  0.2829 -0.1874
  171fsi     F2 2039   1.525   2.166   3.012  0.1732  0.4920 -0.0082
  172fsi     F1 2040   3.039   0.713   2.538  0.3003  0.1886  0.0410
  172fsi     S1 2041   3.003   0.567   2.562  0.0394  0.3277 -0.1743
  172fsi      N 2042   3.080   0.485   2.453 -0.0444  0.3537 -0.5496
  172fsi     O1 2043   3.063   0.543   2.688  0.2822 -0.0879 -0.0786
  172fsi     O2 2044   2.860   0.556   2.541 -0.0312 -0.6943  0.1725
  172fsi     S2 2045   3.224   0.414   2.459  0.3308 -0.0433  0.1079
  172fsi     O3 2046   3.328   0.490   2.523 -0.0222 -0.5939 -0.0999
  172fsi     O4 2047   3.257   0.338   2.338 -0.3136  0.0873  0.2901
  172fsi     F2 2048   3.200   0.299   2.561 -0.3134 -0.0878 -0.2365
  173fsi     F1 2049   1.288   2.367   2.761  0.3467 -0.2605 -0.1864
  173fsi     S1 2050   1.420   2.372   2.672  0.3045 -0.2692 -0.0381
  173fsi      N 2051   1.362   2.366   2.527  0.1740 -0.1013  0.0680
  173fsi     O1 2052   1.474   2.496   2.712  0.0472  0.0343  0.1543
  173fsi     O2 2053   1.489   2.252   2.710  0.0183 -0.1179  0.1248
  173fsi     S2 2054   1.349   2.479   2.417 -0.5942 -0.0842  0.0106
  173fsi     O3 2055   1.433   2.596   2.438 -0.4456  0.1341  0.1267
  173fsi     O4 2056   1.212   2.502   2.377 -0.1371  0.0508 -0.4470
  173fsi     F2 2057   1.419   2.406   2.303 -0.3811  0.3751  0.9204
  174fsi     F1 2058   0.800   0.183   0.392 -0.2481 -0.1331  0.0443
  174fsi     S1 2059   0.665   0.116   0.423 -0.3068 -0.0403 -0.0612
  174fsi      N 2060   0.633   0.035   0.288  0.2519  0.0137  0.8288
  174fsi     O1 2061   0.701   0.033   0.538 -0.7749  0.2080  0.0539
  174fsi     O2 2062   0.576   0.222   0.441  0.1813 -0.4462  0.5106
  174fsi     S2 2063   0.694  -0.105   0.241  0.2134  0.3907 -0.3925
  174fsi     O3 2064   0.819  -0.145   0.292  0.6700  0.2678  0.2465
  174fsi     O4 2065   0.683  -0.113   0.102  0.1923 -0.0681  0.0784
  174fsi     F2 2066   0.585  -0.213   0.291 -0.1009  0.6268 -0.0464
  175fsi     F1 2067   1.782   0.516   1.217 -0.4086  0.2428  0.6354
  175fsi     S1 2068   1.758   0.575   1.360 -0.3864 -0.5944  0.0504
  175fsi      N 2069   1.784   0.456   1.460  0.3639  0.3049  0.3364
  175fsi     O1 2070   1.857   0.676   1.363 -0.3354  0.1668  0.0067
  175fsi     O2 2071   1.620   0.621   1.368  0.5453 -0.1878 -0.6908
  175fsi     S2 2072   1.919   0.399   1.512 -0.2074  0.1009 -0.3035
  175fsi     O3 2073   2.025   0.412   1.422  0.1527  0.3356  0.1402
  175fsi     O4 2074   1.908   0.275   1.577  0.4827  0.3812 -0.3241
  175fsi     F2 2075   1.961   0.497   1.635  0.3619  0.8471  0.2294
  176fsi     F1 2076   0.592   1.090   0.941 -0.2011  0.0120  0.2778
  176fsi     S1 2077   0.665   1.146   0.819  0.6203  0.1361  0.1015
  176fsi      N 2078   0.787   1.214   0.886  0.7821 -0.3470 -0.4342
  176fsi     O1 2079   0.699   1.028   0.744 -0.0796 -0.3377  0.0697
  176fsi     O2 2080   0.578   1.242   0.753 -0.6921  0.1451 -0.3996
  176fsi     S2 2081   0.809   1.354   0.950 -0.3768  0.0325 -0.4177
  176fsi     O3 2082   0.717   1.454   0.915  0.1199 -0.1446  0.3731
  176fsi     O4 2083   0.942   1.390   0.954 -0.3011  0.2692 -0.2977
  176fsi     F2 2084   0.769   1.332   1.107 -0.3783  0.5252  0.8872
  177fsi     F1 2085   0.171   0.818   0.359  0.5304  0.4509 -0.4936
  177fsi     S1 2086   0.113   0.839   0.219  0.6368 -0.0291  0.1582
  177fsi      N 2087   0.240   0.827   0.122 -0.4831 -0.1480 -0.7792
  177fsi     O1 2088   0.026   0.724   0.195  0.1344  0.2424 -0.4689
  177fsi     O2 2089   0.047   0.969   0.221 -0.6686  0.1022 -0.1187
  177fsi     S2 2090   0.322   0.696   0.081 -0.2146 -0.2368  0.1144
  177fsi     O3 2091   0.336   0.600   0.187 -0.0040  0.3713  0.3142
  177fsi     O4 2092   0.447   0.731   0.016  0.1107 -0.2649 -0.2031
  177fsi     F2 2093   0.231   0.628  -0.026 -0.3339  0.0918  0.4210
  178fsi     F1 2094   1.994   3.023   3.074  0.3418  0.0882 -0.7167
  178fsi     S1 2095   1.924   3.146   3.137 -0.1910  0.1458  0.3600
  178fsi      N 2096   1.852   3.088   3.256 -0.2762 -0.1644 -0.5301
  178fsi     O1 2097   2.033   3.227   3.172 -0.1397  0.5896  0.1172
  178fsi     O2 2098   1.836   3.192   3.037  0.3762  0.0211  0.6782
  178fsi     S2 2099   1.723   3.003   3.260 -0.4406 -0.2609  0.1966
  178fsi     O3 2100   1.717   2.904   3.366 -0.2397  0.9058  0.4869
  178fsi     O4 2101   1.672   2.969   3.131 -0.1091  0.0295  0.3267
  178fsi     F2 2102   1.616   3.111   3.306 -0.6661  0.1027 -0.4039
  179fsi     F1 2103   0.594   2.242   1.537  0.0131  0.0194 -0.1133
  179fsi     S1 2104   0.737   2.217   1.583 -0.5035  0.0473  0.2782
  179fsi      N 2105   0.778   2.086   1.499 -1.0821 -0.2340 -0.9519
  179fsi     O1 2106   0.807   2.336   1.540  0.1129 -0.2370 -0.0749
  179fsi     O2 2107   0.721   2.187   1.722 -0.1736  0.7054 -0.5903
  179fsi     S2 2108   0.789   2.064   1.345 -0.0738  0.4290 -0.0382
  179fsi     O3 2109   0.767   1.927   1.308  0.1046 -0.2694  0.3472
  179fsi     O4 2110   0.910   2.125   1.297  0.0184 -0.4874  0.2984
  179fsi     F2 2111   0.670   2.142   1.291  0.0940  0.4606 -0.4420
  180fsi     F1 2112   1.027   0.785   2.910  0.2280  0.7882  0.0338
  180fsi     S1 2113   0.938   0.686   2.981 -0.1864  0.1389 -0.0208
  180fsi      N 2114   0.802   0.696   2.913 -0.3821  0.8751  0.5698
  180fsi     O1 2115   1.005   0.562   2.958 -0.6258 -0.1383  0.0435
  180fsi     O2 2116   0.934   0.733   3.114  0.4307  0.5140 -0.4805
  180fsi     S2 2117   0.756   0.667   2.766  0.0910  0.1745  0.0890
  180fsi     O3 2118   0.860   0.677   2.664 -0.1012 -0.7660 -0.1375
  180fsi     O4 2119   0.620   0.715   2.745 -0.3014 -0.8562 -0.3143
  180fsi     F2 2120   0.741   0.511   2.773  0.0232  0.0488  0.2984
  181fsi     F1 2121   1.409   2.799   0.743  0.2832  0.0237 -0.2018
  181fsi     S1 2122   1.558   2.845   0.792  0.0179  0.0527 -0.0791
  181fsi      N 2123   1.546   2.998   0.814  0.0342  0.6695  0.2962
  181fsi     O1 2124   1.569   2.784   0.924  0.2459  0.0233  0.2314
  181fsi     O2 2125   1.649   2.803   0.691 -0.0758 -0.1736 -0.6878
  181fsi     S2 2126   1.577   3.112   0.712  0.4988 -0.1377 -0.2303
  181fsi     O3 2127   1.592   3.061   0.577  0.3276  0.1574  0.5159
  181fsi     O4 2128   1.676   3.198   0.764 -0.9664  0.3338  0.6635
  181fsi     F2 2129   1.451   3.207   0.707 -0.1050  0.1225 -0.1827
  182fsi     F1 2130   2.536   3.080   0.780 -0.0731 -0.3950 -0.3936
  182fsi     S1 2131   2.696   3.094   0.754  0.1555  0.1961  0.1044
  182fsi      N 2132   2.756   2.984   0.851  0.3992  0.7234  0.0733
  182fsi     O1 2133   2.706   3.068   0.614 -0.5557 -0.1944  0.1134
  182fsi     O2 2134   2.722   3.226   0.800 -0.6305  0.3251 -0.1132
  182fsi     S2 2135   2.805   2.842   0.824  0.3013  0.2058 -0.0869
  182fsi     O3 2136   2.883   2.794   0.937 -0.1849 -0.0466  0.6531
  182fsi     O4 2137   2.869   2.833   0.698 -0.3156 -0.1789 -0.0751
  182fsi     F2 2138   2.678   2.748   0.810  0.0552 -0.7120  0.2493
  183fsi     F1 2139   2.799   0.160   2.809 -0.2866 -1.1582  0.6001
  183fsi     S1 2140   2.840   0.119   2.663 -0.1870 -0.4329  0.2410
  183fsi      N 2141   2.956   0.015   2.679  0.3317  0.2701 -0.3558
  183fsi     O1 2142   2.725   0.057   2.613  0.0685 -0.0297  0.4316
  183fsi     O2 2143   2.874   0.242   2.595  0.5123  0.4757  0.1929
  183fsi     S2 2144   2.945  -0.142   2.710  0.5278 -0.1742  0.0985
  183fsi     O3 2145   2.985  -0.227   2.603  0.5001 -0.1137  0.0474
  183fsi     O4 2146   2.830  -0.189   2.783 -0.4529 -0.6145  0.2329
  183fsi     F2 2147   3.062  -0.167   2.820 -0.4756 -0.1194  0.0375
  184fsi     F1 2148   2.850   2.051   2.459  0.0398  0.9657  0.5912
  184fsi     S1 2149   2.832   2.161   2.355 -0.2526  0.0198  0.7982
  184fsi      N 2150   2.688   2.202   2.385 -0.2805 -0.0099  0.1024
  184fsi     O1 2151   2.917   2.267   2.399  0.1212 -0.2288 -0.3089
  184fsi     O2 2152   2.860   2.091   2.233 -0.2280  0.3444  0.0560
  184fsi     S2 2153   2.585   2.273   2.293 -0.3624 -0.1535 -0.0171
  184fsi     O3 2154   2.654   2.358   2.197  0.8776  0.3208 -0.0067
  184fsi     O4 2155   2.477   2.325   2.370 -0.5090  0.0641 -0.5931
  184fsi     F2 2156   2.525   2.151   2.206  0.1276 -0.4995 -0.0456
  185fsi     F1 2157   2.974   1.361   0.092 -0.0478  0.4380  0.1284
  185fsi     S1 2158   2.855   1.317   0.175  0.2044 -0.5591 -0.0614
  185fsi      N 2159   2.765   1.248   0.061 -0.1798 -0.0147 -0.2811
  185fsi     O1 2160   2.911   1.232   0.281 -0.6204  0.3970  0.3608
  185fsi     O2 2161   2.800   1.443   0.212  0.3745  0.6608 -0.1272
  185fsi     S2 2162   2.763   1.099   0.012  0.3831 -0.1779  0.0822
  185fsi     O3 2163   2.630   1.047   0.009  0.2193 -0.5611  0.1414
  185fsi     O4 2164   2.877   1.024   0.059  0.3932 -0.0534  0.0401
  185fsi     F2 2165   2.797   1.112  -0.142  0.0425 -0.3839  0.6257
  186fsi     F1 2166   2.976   1.832   0.390  0.2205 -0.5003 -0.2997
  186fsi     S1 2167   3.029   1.984   0.416  0.1213  0.0781 -0.0208
  186fsi      N 2168   3.041   2.054   0.271  0.3306 -0.1778 -0.0021
  186fsi     O1 2169   2.926   2.044   0.498  0.4081  0.0442 -0.4317
  186fsi     O2 2170   3.160   1.972   0.476  0.3427 -0.1553  0.3135
  186fsi     S2 2171   2.936   2.164   0.210 -0.1432  0.0378 -0.3111
  186fsi     O3 2172   2.833   2.207   0.297 -0.1193  0.1046  0.1552
  186fsi     O4 2173   2.908   2.148   0.072  0.2768 -0.0836  0.2016
  186fsi     F2 2174   3.024   2.286   0.208 -0.1095 -0.2253  0.1686
  187fsi     F1 2175   2.171   2.455   1.763  0.6607  0.4475  0.1628
  187fsi     S1 2176   2.142   2.530   1.629 -0.1006  0.0446 -0.0120
  187fsi      N 2177   2.017   2.609   1.664  0.4582  0.4315  0.5601
  187fsi     O1 2178   2.267   2.607   1.607  0.5697 -0.1028  0.3736
  187fsi     O2 2179   2.118   2.427   1.536 -0.3687  0.0429  0.4483
  187fsi     S2 2180   2.013   2.745   1.735 -0.2288  0.3700  0.2448
  187fsi     O3 2181   2.138   2.794   1.795 -0.1278  0.2066  0.5430
  187fsi     O4 2182   1.902   2.737   1.829 -0.0871  0.4173  0.2480
  187fsi     F2 2183   1.974   2.847   1.620  0.0631 -0.7281  0.0161
  188fsi     F1 2184   3.039   1.792   1.598 -0.2609  0.6595 -0.2517
  188fsi     S1 2185   3.123   1.712   1.703  0.5964 -0.0067 -0.2377
  188fsi      N 2186   3.041   1.576   1.724 -0.2134 -0.0973  0.3446
  188fsi     O1 2187   3.255   1.704   1.647 -0.1461 -0.0495  0.0841
  188fsi     O2 2188   3.103   1.790   1.821 -0.2474  0.4330  0.0365
  188fsi     S2 2189   3.052   1.447   1.635  0.0887  0.3336 -0.2711
  188fsi     O3 2190   3.150   1.445   1.532  0.4283 -0.3153 -0.4944
  188fsi     O4 2191   2.925   1.385   1.610 -1.0322  0.2171 -0.0381
  188fsi     F2 2192   3.124   1.340   1.734  0.1993  0.0515  0.1976
  189fsi     F1 2193   0.764   0.257   1.274  0.0260  0.5156  0.0359
  189fsi     S1 2194   0.691   0.128   1.217  0.3716  0.3391 -0.3936
  189fsi      N 2195   0.792   0.072   1.107 -0.1752 -0.1331 -0.2110
  189fsi     O1 2196   0.677   0.042   1.337 -0.5069 -0.1294 -0.9764
  189fsi     O2 2197   0.571   0.173   1.152 -0.4340  0.2689 -0.1265
  189fsi     S2 2198   0.870  -0.064   1.104 -0.2192 -0.2602 -0.0314
  189fsi     O3 2199   0.986  -0.045   1.020 -0.4613 -0.1778  0.0312
  189fsi     O4 2200   0.789  -0.183   1.092 -0.5174  0.0367 -0.0603
  189fsi     F2 2201   0.946  -0.071   1.240  0.2427 -0.2127  0.0112
  190fsi     F1 2202   2.073   1.114   2.171  0.3160 -0.3123  0.0032
  190fsi     S1 2203   1.923   1.095   2.220  0.0177  0.4738 -0.0612
  190fsi      N 2204   1.939   1.078   2.373 -0.2252  0.2230  0.0213
  190fsi     O1 2205   1.849   1.213   2.189 -0.4248  0.0909 -0.4562
  190fsi     O2 2206   1.880   0.972   2.158 -0.3090  0.5191 -0.4311
  190fsi     S2 2207   1.921   0.948   2.460  0.1852 -0.0331  0.1107
  190fsi     O3 2208   1.806   0.866   2.426  0.3131  0.0432 -0.1775
  190fsi     O4 2209   1.925   0.990   2.599 -0.2208 -0.0700  0.0189
  190fsi     F2 2210   2.051   0.875   2.439  0.1362  0.2725 -0.7161
  191fsi     F1 2211   0.323   2.372   0.133  0.2120 -0.3249  0.3868
  191fsi     S1 2212   0.328   2.234   0.052 -0.1133 -0.0333  0.0878
  191fsi      N 2213   0.278   2.279  -0.087 -0.0468  0.4817  0.5214
  191fsi     O1 2214   0.469   2.197   0.054  0.3360 -0.0070  0.1035
  191fsi     O2 2215   0.237   2.150   0.124  0.5250  0.5132 -0.3722
  191fsi     S2 2216   0.355   2.285  -0.220 -0.5122  0.2088 -0.5081
  191fsi     O3 2217   0.278   2.341  -0.328  0.2722 -0.2813  0.3082
  191fsi     O4 2218   0.434   2.170  -0.261  0.3119  0.2400 -0.1047
  191fsi     F2 2219   0.456   2.397  -0.189  0.1750 -0.4206 -0.3653
  192fsi     F1 2220   2.965   0.698   0.579  0.4849  0.1716 -0.5879
  192fsi     S1 2221   2.872   0.693   0.701 -0.0095 -0.0381 -0.2180
  192fsi      N 2222   2.722   0.682   0.635  0.8303  0.0124 -0.3018
  192fsi     O1 2223   2.917   0.576   0.774 -0.1147  0.3058  0.0667
  192fsi     O2 2224   2.896   0.819   0.768 -0.1422 -0.3165 -0.1712
  192fsi     S2 2225   2.622   0.561   0.622  0.0049 -0.0757 -0.0331
  192fsi     O3 2226   2.493   0.606   0.663  0.2979  0.3217 -0.7908
  192fsi     O4 2227   2.665   0.435   0.674 -0.0446 -0.1569 -0.4930
  192fsi     F2 2228   2.609   0.543   0.477  0.3704  0.3281  0.2874
  193fsi     F1 2229   1.223   1.608   2.258  0.0515 -0.0661 -0.1871
  193fsi     S1 2230   1.171   1.698   2.374 -0.2111  0.0760  0.1867
  193fsi      N 2231   1.201   1.845   2.318  0.3542 -0.4579 -0.9602
  193fsi     O1 2232   1.033   1.666   2.375 -0.0219 -0.0620  0.0459
  193fsi     O2 2233   1.249   1.657   2.487 -0.0094 -0.5071  0.1546
  193fsi     S2 2234   1.104   1.952   2.265 -0.1109  0.1850  0.2463
  193fsi     O3 2235   0.967   1.914   2.243  0.1858  0.1073 -0.0715
  193fsi     O4 2236   1.172   2.031   2.164  0.4024  0.0014  0.3559
  193fsi     F2 2237   1.072   2.048   2.379 -0.0790  0.4716  0.6185
  194fsi     F1 2238   1.616   0.915   1.162 -0.4469  0.1850 -0.2693
  194fsi     S1 2239   1.720   0.928   1.049 -0.2763  0.0598  0.2201
  194fsi      N 2240   1.753   1.079   1.059  0.1466 -0.6936  0.0121
  194fsi     O1 2241   1.822   0.832   1.082  0.4276 -0.8897 -0.5514
  194fsi     O2 2242   1.647   0.904   0.928  0.1158 -0.2340 -0.3281
  194fsi     S2 2243   1.850   1.155   1.155  0.1965 -0.1122 -0.1982
  194fsi     O3 2244   1.942   1.070   1.227  0.5534  0.6082  0.0277
  194fsi     O4 2245   1.784   1.259   1.228 -0.1861 -0.2675 -0.3317
  194fsi     F2 2246   1.944   1.230   1.057  0.0524  0.2355  0.1925
  195fsi     F1 2247   2.244   3.027   1.330  0.2908 -0.0872  0.3690
  195fsi     S1 2248   2.111   3.082   1.392 -0.1767 -0.0163  0.2545
  195fsi      N 2249   2.144   3.063   1.543 -0.0431  0.4190  0.4998
  195fsi     O1 2250   2.107   3.217   1.346 -0.2111  0.3165 -0.5297
  195fsi     O2 2251   2.006   2.994   1.342  0.4060 -0.2025 -0.9673
  195fsi     S2 2252   2.203   3.172   1.643  0.3946  0.4060 -0.1784
  195fsi     O3 2253   2.243   3.289   1.577  0.4604 -0.4264  0.5715
  195fsi     O4 2254   2.302   3.109   1.732 -0.4027 -0.7683 -0.6054
  195fsi     F2 2255   2.089   3.206   1.731  0.4783 -0.3430  0.1941
  196fsi     F1 2256   2.528   0.097   2.109 -0.2618  0.0653 -0.1712
  196fsi     S1 2257   2.470   0.061   2.251 -0.3889 -0.5660  0.2318
  196fsi      N 2258   2.543   0.159   2.350 -0.3979  0.0053  0.5481
  196fsi     O1 2259   2.325   0.085   2.244  0.4039 -0.4087 -0.2935
  196fsi     O2 2260   2.513  -0.073   2.263  0.0104  0.2351 -0.1612
  196fsi     S2 2261   2.499   0.303   2.398 -0.1419  0.2899  0.0317
  196fsi     O3 2262   2.382   0.357   2.333 -0.0462  0.7351 -0.1200
  196fsi     O4 2263   2.607   0.396   2.406 -0.8954 -0.0818 -0.8448
  196fsi     F2 2264   2.450   0.272   2.544 -0.1006  0.5409  0.0961
  197fsi     F1 2265   1.269   2.674   0.421 -0.3280  0.2306  0.4377
  197fsi     S1 2266   1.368   2.770   0.332  0.3091  0.2060  0.2471
  197fsi      N 2267   1.400   2.671   0.215  0.0269  1.1968 -0.3660
  197fsi     O1 2268   1.280   2.878   0.297  0.5739  0.0108  0.2456
  197fsi     O2 2269   1.475   2.793   0.419 -0.4376 -0.0907  0.3707
  197fsi     S2 2270   1.320   2.641   0.086 -0.0755  0.1932 -0.1213
  197fsi     O3 2271   1.206   2.721   0.066  0.6075  0.4420 -0.0309
  197fsi     O4 2272   1.303   2.502   0.056  0.4803  0.2286  0.0164
  197fsi     F2 2273   1.411   2.697  -0.024  0.0691  0.2728  0.1029
  198fsi     F1 2274   2.047   1.477   2.365 -0.3064 -0.0048  0.0796
  198fsi     S1 2275   1.947   1.594   2.310 -0.2191  0.0290 -0.0279
  198fsi      N 2276   2.034   1.655   2.195  0.2920 -0.1932  0.4773
  198fsi     O1 2277   1.826   1.527   2.268  0.2357  0.4208 -0.0859
  198fsi     O2 2278   1.940   1.688   2.418 -0.6953  0.1308  0.1855
  198fsi     S2 2279   2.053   1.602   2.050 -0.0590 -0.4560 -0.2904
  198fsi     O3 2280   2.065   1.710   1.956 -0.3867 -0.3817 -0.5437
  198fsi     O4 2281   1.983   1.481   2.013  0.0139  0.3947 -0.2194
  198fsi     F2 2282   2.204   1.547   2.068 -0.7757 -0.2450  0.4131
  199fsi     F1 2283   0.886   0.246   2.171 -0.0830 -0.2479  0.5452
  199fsi     S1 2284   0.726   0.256   2.167 -0.0512  0.3129  0.1328
  199fsi      N 2285   0.685   0.294   2.313  0.0358 -0.0574  0.5451
  199fsi     O1 2286   0.692   0.369   2.076  0.3890 -0.3093  0.2342
  199fsi     O2 2287   0.687   0.125   2.134  0.0450  0.2250  0.1372
  199fsi     S2 2288   0.706   0.429   2.403 -0.0468 -0.3004 -0.1084
  199fsi     O3 2289   0.615   0.431   2.518  0.5130 -0.2049  0.0023
  199fsi     O4 2290   0.729   0.551   2.324  0.4461 -0.1901 -0.3951
  199fsi     F2 2291   0.849   0.404   2.464  0.0143 -0.4953 -0.1290
  200fsi     F1 2292   1.297   3.062   2.694  0.0192  0.5282 -0.1345
  200fsi     S1 2293   1.349   2.916   2.722  0.2722 -0.0805 -0.3651
  200fsi      N 2294   1.219   2.864   2.789  0.3839 -0.0873 -0.4331
  200fsi     O1 2295   1.382   2.860   2.593 -0.0949  0.4517  0.1903
  200fsi     O2 2296   1.457   2.931   2.816 -0.3564 -0.5153  0.3260
  200fsi     S2 2297   1.099   2.763   2.754 -0.0693  0.3794  0.0502
  200fsi     O3 2298   1.096   2.702   2.621 -0.5222  0.3536  0.5103
  200fsi     O4 2299   0.977   2.819   2.808 -0.2344  0.2118  0.1138
  200fsi     F2 2300   1.118   2.638   2.847  0.5318 -0.0680 -0.2194
   3.08570   3.08570   3.08570
