simbox
 2300
    1Li      Li    1   1.297   1.724   1.089
    2Li      Li    2   1.709   1.420   0.294
    3Li      Li    3   2.160   2.914   1.381
    4Li      Li    4   1.173   2.662   2.255
    5Li      Li    5   1.347   1.828   0.454
    6Li      Li    6   1.891   0.425   1.723
    7Li      Li    7   2.515   1.933   0.833
    8Li      Li    8   0.541   0.966   3.031
    9Li      Li    9   0.910   2.257   0.099
   10Li      Li   10   2.619   2.048   1.276
   11Li      Li   11   0.578   2.574   1.329
   12Li      Li   12   1.354   1.442   1.724
   13Li      Li   13   1.794   2.747   2.054
   14Li      Li   14   2.849   1.364   2.583
   15Li      Li   15   0.617   2.125   1.738
   16Li      Li   16   0.385   2.005   2.989
   17Li      Li   17   1.343   0.680   2.083
   18Li      Li   18   1.592   2.677   2.858
   19Li      Li   19   2.023   1.621   2.576
   20Li      Li   20   1.392   2.262   2.395
   21Li      Li   21   2.659   3.006   1.008
   22Li      Li   22   1.271   1.042   1.382
   23Li      Li   23   3.051   1.762   0.901
   24Li      Li   24   1.856   1.890   0.612
   25Li      Li   25   1.710   1.213   1.382
   26Li      Li   26   0.772   0.229   0.313
   27Li      Li   27   0.446   0.821   0.705
   28Li      Li   28   1.338   0.684   2.428
   29Li      Li   29   1.784   0.582   0.469
   30Li      Li   30   1.975   1.869   3.036
   31Li      Li   31   3.027   2.801   1.201
   32Li      Li   32   0.464   1.277   0.798
   33Li      Li   33   1.387   2.228   0.702
   34Li      Li   34   2.992   1.342   1.859
   35Li      Li   35   2.578   2.605   2.875
   36Li      Li   36   0.432   2.899   2.903
   37Li      Li   37   2.172   0.548   1.473
   38Li      Li   38   2.496   2.158   0.294
   39Li      Li   39   1.399   0.056   2.450
   40Li      Li   40   2.104   0.724   1.101
   41Li      Li   41   0.182   1.152   0.394
   42Li      Li   42   0.059   0.185   0.629
   43Li      Li   43   2.430   2.874   2.309
   44Li      Li   44   2.381   0.927   0.699
   45Li      Li   45   0.102   0.657   1.098
   46Li      Li   46   1.799   1.275   2.106
   47Li      Li   47   1.450   0.331   0.715
   48Li      Li   48   0.128   0.917   2.525
   49Li      Li   49   2.578   0.351   2.348
   50Li      Li   50   2.331   2.027   1.850
   51c3c      N   51   1.023   1.983   2.708
   51c3c     C1   52   0.936   1.876   2.759
   51c3c     C2   53   1.148   1.980   2.784
   51c3c     C3   54   1.015   1.798   2.863
   51c3c     C4   55   1.158   1.842   2.845
   51c3c     C5   56   1.056   1.956   2.568
   51c3c     C6   57   0.951   2.110   2.714
   51c3c     H1   58   0.899   1.809   2.682
   51c3c     H2   59   0.843   1.912   2.804
   51c3c     H3   60   1.238   1.998   2.725
   51c3c     H4   61   1.150   2.052   2.866
   51c3c     H5   62   1.002   1.690   2.850
   51c3c     H6   63   0.980   1.826   2.962
   51c3c     H7   64   1.212   1.773   2.780
   51c3c     H8   65   1.209   1.848   2.941
   51c3c     H9   66   0.966   1.946   2.507
   51c3c    H10   67   1.114   2.035   2.520
   51c3c    H11   68   1.116   1.867   2.554
   51c3c    H12   69   1.008   2.188   2.662
   51c3c    H13   70   0.858   2.098   2.659
   51c3c     C7   71   0.917   2.164   2.855
   51c3c    H14   72   1.004   2.211   2.898
   51c3c    H15   73   0.888   2.084   2.923
   51c3c     C8   74   0.803   2.265   2.848
   51c3c    H16   75   0.709   2.218   2.819
   51c3c    H17   76   0.824   2.343   2.774
   51c3c    H18   77   0.788   2.314   2.944
   52c3c      N   78   1.442   2.146   1.232
   52c3c     C1   79   1.362   2.232   1.321
   52c3c     C2   80   1.480   2.226   1.114
   52c3c     C3   81   1.325   2.355   1.239
   52c3c     C4   82   1.447   2.368   1.152
   52c3c     C5   83   1.567   2.112   1.302
   52c3c     C6   84   1.367   2.027   1.192
   52c3c     H1   85   1.424   2.265   1.404
   52c3c     H2   86   1.275   2.183   1.366
   52c3c     H3   87   1.585   2.215   1.087
   52c3c     H4   88   1.426   2.198   1.024
   52c3c     H5   89   1.308   2.443   1.301
   52c3c     H6   90   1.236   2.337   1.179
   52c3c     H7   91   1.531   2.407   1.211
   52c3c     H8   92   1.429   2.432   1.065
   52c3c     H9   93   1.549   2.046   1.387
   52c3c    H10   94   1.637   2.063   1.234
   52c3c    H11   95   1.621   2.199   1.338
   52c3c    H12   96   1.428   1.967   1.123
   52c3c    H13   97   1.355   1.962   1.279
   52c3c     C7   98   1.229   2.055   1.127
   52c3c    H14   99   1.233   2.132   1.049
   52c3c    H15  100   1.160   2.096   1.201
   52c3c     C8  101   1.166   1.933   1.061
   52c3c    H16  102   1.140   1.857   1.134
   52c3c    H17  103   1.231   1.891   0.984
   52c3c    H18  104   1.073   1.961   1.012
   53c3c      N  105   1.703   1.292   2.645
   53c3c     C1  106   1.671   1.161   2.703
   53c3c     C2  107   1.810   1.269   2.548
   53c3c     C3  108   1.788   1.069   2.670
   53c3c     C4  109   1.894   1.155   2.604
   53c3c     C5  110   1.585   1.344   2.576
   53c3c     C6  111   1.737   1.393   2.747
   53c3c     H1  112   1.583   1.117   2.657
   53c3c     H2  113   1.652   1.165   2.810
   53c3c     H3  114   1.770   1.234   2.452
   53c3c     H4  115   1.864   1.360   2.525
   53c3c     H5  116   1.751   0.993   2.601
   53c3c     H6  117   1.825   1.018   2.759
   53c3c     H7  118   1.951   1.102   2.528
   53c3c     H8  119   1.968   1.187   2.678
   53c3c     H9  120   1.500   1.358   2.641
   53c3c    H10  121   1.609   1.443   2.536
   53c3c    H11  122   1.554   1.280   2.493
   53c3c    H12  123   1.750   1.490   2.700
   53c3c    H13  124   1.650   1.404   2.812
   53c3c     C7  125   1.859   1.368   2.837
   53c3c    H14  126   1.951   1.368   2.779
   53c3c    H15  127   1.851   1.272   2.888
   53c3c     C8  128   1.872   1.478   2.941
   53c3c    H16  129   1.779   1.492   2.996
   53c3c    H17  130   1.899   1.574   2.895
   53c3c    H18  131   1.946   1.454   3.017
   54c3c      N  132   2.142   2.406   1.035
   54c3c     C1  133   2.104   2.318   1.146
   54c3c     C2  134   2.079   2.350   0.914
   54c3c     C3  135   2.056   2.184   1.086
   54c3c     C4  136   2.066   2.199   0.937
   54c3c     C5  137   2.087   2.540   1.059
   54c3c     C6  138   2.288   2.424   1.022
   54c3c     H1  139   2.020   2.358   1.203
   54c3c     H2  140   2.183   2.305   1.219
   54c3c     H3  141   1.978   2.388   0.904
   54c3c     H4  142   2.130   2.375   0.821
   54c3c     H5  143   1.952   2.167   1.114
   54c3c     H6  144   2.115   2.099   1.119
   54c3c     H7  145   1.979   2.155   0.889
   54c3c     H8  146   2.152   2.142   0.901
   54c3c     H9  147   2.136   2.584   1.146
   54c3c    H10  148   2.104   2.607   0.975
   54c3c    H11  149   1.980   2.539   1.079
   54c3c    H12  150   2.308   2.501   0.948
   54c3c    H13  151   2.327   2.463   1.116
   54c3c     C7  152   2.370   2.300   0.983
   54c3c    H14  153   2.327   2.254   0.894
   54c3c    H15  154   2.368   2.225   1.063
   54c3c     C8  155   2.514   2.335   0.944
   54c3c    H16  156   2.565   2.389   1.024
   54c3c    H17  157   2.516   2.399   0.856
   54c3c    H18  158   2.572   2.246   0.921
   55c3c      N  159   0.508   2.710   0.430
   55c3c     C1  160   0.392   2.647   0.365
   55c3c     C2  161   0.525   2.841   0.366
   55c3c     C3  162   0.383   2.705   0.223
   55c3c     C4  163   0.474   2.827   0.222
   55c3c     C5  164   0.478   2.731   0.572
   55c3c     C6  165   0.630   2.627   0.426
   55c3c     H1  166   0.299   2.672   0.416
   55c3c     H2  167   0.398   2.538   0.364
   55c3c     H3  168   0.464   2.917   0.415
   55c3c     H4  169   0.628   2.877   0.370
   55c3c     H5  170   0.280   2.732   0.200
   55c3c     H6  171   0.416   2.632   0.149
   55c3c     H7  172   0.419   2.917   0.192
   55c3c     H8  173   0.555   2.813   0.151
   55c3c     H9  174   0.469   2.637   0.626
   55c3c    H10  175   0.558   2.787   0.621
   55c3c    H11  176   0.387   2.788   0.589
   55c3c    H12  177   0.710   2.676   0.481
   55c3c    H13  178   0.613   2.534   0.479
   55c3c     C7  179   0.687   2.589   0.288
   55c3c    H14  180   0.706   2.676   0.226
   55c3c    H15  181   0.617   2.525   0.235
   55c3c     C8  182   0.820   2.516   0.305
   55c3c    H16  183   0.815   2.438   0.380
   55c3c    H17  184   0.897   2.586   0.337
   55c3c    H18  185   0.851   2.472   0.210
   56c3c      N  186   1.501   2.447   1.668
   56c3c     C1  187   1.617   2.428   1.580
   56c3c     C2  188   1.557   2.459   1.802
   56c3c     C3  189   1.720   2.350   1.661
   56c3c     C4  190   1.681   2.373   1.806
   56c3c     C5  191   1.436   2.571   1.629
   56c3c     C6  192   1.397   2.342   1.663
   56c3c     H1  193   1.666   2.523   1.556
   56c3c     H2  194   1.595   2.380   1.485
   56c3c     H3  195   1.585   2.561   1.829
   56c3c     H4  196   1.486   2.421   1.876
   56c3c     H5  197   1.821   2.387   1.643
   56c3c     H6  198   1.719   2.245   1.634
   56c3c     H7  199   1.762   2.416   1.863
   56c3c     H8  200   1.655   2.279   1.855
   56c3c     H9  201   1.408   2.565   1.524
   56c3c    H10  202   1.346   2.591   1.688
   56c3c    H11  203   1.502   2.657   1.639
   56c3c    H12  204   1.322   2.363   1.739
   56c3c    H13  205   1.340   2.349   1.571
   56c3c     C7  206   1.443   2.197   1.685
   56c3c    H14  207   1.479   2.183   1.788
   56c3c    H15  208   1.523   2.166   1.618
   56c3c     C8  209   1.329   2.101   1.664
   56c3c    H16  210   1.328   2.062   1.562
   56c3c    H17  211   1.234   2.150   1.685
   56c3c    H18  212   1.337   2.017   1.733
   57c3c      N  213   2.207   1.722   1.217
   57c3c     C1  214   2.352   1.745   1.223
   57c3c     C2  215   2.146   1.806   1.320
   57c3c     C3  216   2.383   1.780   1.368
   57c3c     C4  217   2.256   1.845   1.419
   57c3c     C5  218   2.158   1.759   1.084
   57c3c     C6  219   2.170   1.581   1.235
   57c3c     H1  220   2.380   1.831   1.161
   57c3c     H2  221   2.410   1.660   1.189
   57c3c     H3  222   2.107   1.897   1.275
   57c3c     H4  223   2.063   1.760   1.372
   57c3c     H5  224   2.468   1.848   1.377
   57c3c     H6  225   2.407   1.693   1.428
   57c3c     H7  226   2.269   1.953   1.414
   57c3c     H8  227   2.234   1.816   1.521
   57c3c     H9  228   2.209   1.700   1.008
   57c3c    H10  229   2.051   1.739   1.072
   57c3c    H11  230   2.173   1.864   1.060
   57c3c    H12  231   2.063   1.568   1.225
   57c3c    H13  232   2.214   1.522   1.154
   57c3c     C7  233   2.214   1.516   1.365
   57c3c    H14  234   2.183   1.572   1.453
   57c3c    H15  235   2.323   1.509   1.369
   57c3c     C8  236   2.158   1.375   1.373
   57c3c    H16  237   2.181   1.317   1.284
   57c3c    H17  238   2.050   1.380   1.386
   57c3c    H18  239   2.202   1.324   1.458
   58c3c      N  240   0.935   0.326   1.868
   58c3c     C1  241   1.021   0.405   1.778
   58c3c     C2  242   1.010   0.204   1.903
   58c3c     C3  243   1.155   0.331   1.767
   58c3c     C4  244   1.119   0.187   1.797
   58c3c     C5  245   0.910   0.402   1.991
   58c3c     C6  246   0.804   0.300   1.805
   58c3c     H1  247   1.030   0.509   1.810
   58c3c     H2  248   0.981   0.418   1.678
   58c3c     H3  249   1.062   0.215   1.998
   58c3c     H4  250   0.946   0.116   1.914
   58c3c     H5  251   1.226   0.367   1.841
   58c3c     H6  252   1.201   0.342   1.668
   58c3c     H7  253   1.205   0.131   1.833
   58c3c     H8  254   1.082   0.138   1.707
   58c3c     H9  255   0.849   0.491   1.972
   58c3c    H10  256   0.857   0.342   2.066
   58c3c    H11  257   1.003   0.437   2.037
   58c3c    H12  258   0.739   0.250   1.877
   58c3c    H13  259   0.757   0.395   1.782
   58c3c     C7  260   0.806   0.215   1.675
   58c3c    H14  261   0.842   0.114   1.696
   58c3c    H15  262   0.875   0.256   1.601
   58c3c     C8  263   0.669   0.208   1.608
   58c3c    H16  264   0.624   0.307   1.598
   58c3c    H17  265   0.600   0.145   1.664
   58c3c    H18  266   0.677   0.167   1.508
   59c3c      N  267   1.379   0.698   0.472
   59c3c     C1  268   1.502   0.733   0.400
   59c3c     C2  269   1.322   0.825   0.516
   59c3c     C3  270   1.534   0.879   0.435
   59c3c     C4  271   1.436   0.923   0.540
   59c3c     C5  272   1.283   0.635   0.382
   59c3c     C6  273   1.402   0.607   0.586
   59c3c     H1  274   1.490   0.729   0.292
   59c3c     H2  275   1.585   0.666   0.422
   59c3c     H3  276   1.259   0.869   0.440
   59c3c     H4  277   1.263   0.810   0.606
   59c3c     H5  278   1.516   0.934   0.342
   59c3c     H6  279   1.635   0.904   0.467
   59c3c     H7  280   1.405   1.027   0.528
   59c3c     H8  281   1.479   0.915   0.639
   59c3c     H9  282   1.320   0.539   0.345
   59c3c    H10  283   1.188   0.620   0.432
   59c3c    H11  284   1.263   0.697   0.295
   59c3c    H12  285   1.308   0.592   0.638
   59c3c    H13  286   1.430   0.510   0.545
   59c3c     C7  287   1.507   0.652   0.690
   59c3c    H14  288   1.467   0.735   0.749
   59c3c    H15  289   1.597   0.689   0.643
   59c3c     C8  290   1.548   0.546   0.791
   59c3c    H16  291   1.595   0.456   0.749
   59c3c    H17  292   1.467   0.518   0.858
   59c3c    H18  293   1.625   0.592   0.852
   60c3c      N  294   0.367   2.301   0.664
   60c3c     C1  295   0.313   2.198   0.754
   60c3c     C2  296   0.314   2.430   0.710
   60c3c     C3  297   0.195   2.256   0.831
   60c3c     C4  298   0.189   2.403   0.794
   60c3c     C5  299   0.513   2.304   0.678
   60c3c     C6  300   0.342   2.271   0.522
   60c3c     H1  301   0.387   2.164   0.826
   60c3c     H2  302   0.285   2.107   0.701
   60c3c     H3  303   0.384   2.481   0.777
   60c3c     H4  304   0.293   2.498   0.628
   60c3c     H5  305   0.211   2.246   0.938
   60c3c     H6  306   0.102   2.206   0.806
   60c3c     H7  307   0.187   2.465   0.883
   60c3c     H8  308   0.098   2.424   0.737
   60c3c     H9  309   0.557   2.207   0.656
   60c3c    H10  310   0.562   2.375   0.612
   60c3c    H11  311   0.541   2.331   0.779
   60c3c    H12  312   0.399   2.339   0.459
   60c3c    H13  313   0.383   2.172   0.499
   60c3c     C7  314   0.195   2.273   0.477
   60c3c    H14  315   0.150   2.371   0.492
   60c3c    H15  316   0.136   2.202   0.535
   60c3c     C8  317   0.185   2.237   0.328
   60c3c    H16  318   0.233   2.141   0.308
   60c3c    H17  319   0.234   2.312   0.266
   60c3c    H18  320   0.081   2.229   0.296
   61c3c      N  321   1.024   0.319   0.688
   61c3c     C1  322   1.124   0.215   0.661
   61c3c     C2  323   1.090   0.414   0.778
   61c3c     C3  324   1.208   0.203   0.789
   61c3c     C4  325   1.202   0.341   0.852
   61c3c     C5  326   0.992   0.390   0.564
   61c3c     C6  327   0.899   0.265   0.744
   61c3c     H1  328   1.191   0.245   0.580
   61c3c     H2  329   1.080   0.120   0.631
   61c3c     H3  330   1.131   0.499   0.724
   61c3c     H4  331   1.020   0.460   0.848
   61c3c     H5  332   1.310   0.170   0.768
   61c3c     H6  333   1.166   0.129   0.858
   61c3c     H7  334   1.294   0.396   0.838
   61c3c     H8  335   1.184   0.336   0.960
   61c3c     H9  336   0.942   0.326   0.491
   61c3c    H10  337   0.926   0.475   0.584
   61c3c    H11  338   1.080   0.432   0.516
   61c3c    H12  339   0.824   0.345   0.742
   61c3c    H13  340   0.859   0.188   0.679
   61c3c     C7  341   0.899   0.212   0.889
   61c3c    H14  342   0.942   0.283   0.960
   61c3c    H15  343   0.959   0.121   0.897
   61c3c     C8  344   0.757   0.180   0.936
   61c3c    H16  345   0.704   0.121   0.862
   61c3c    H17  346   0.698   0.271   0.947
   61c3c    H18  347   0.757   0.129   1.032
   62c3c      N  348   0.836   2.859   0.941
   62c3c     C1  349   0.818   2.714   0.949
   62c3c     C2  350   0.704   2.915   0.969
   62c3c     C3  351   0.673   2.681   0.910
   62c3c     C4  352   0.597   2.811   0.934
   62c3c     C5  353   0.933   2.900   1.044
   62c3c     C6  354   0.894   2.902   0.812
   62c3c     H1  355   0.830   2.679   1.051
   62c3c     H2  356   0.891   2.659   0.890
   62c3c     H3  357   0.692   2.941   1.075
   62c3c     H4  358   0.685   3.007   0.914
   62c3c     H5  359   0.634   2.600   0.972
   62c3c     H6  360   0.666   2.649   0.807
   62c3c     H7  361   0.526   2.800   1.015
   62c3c     H8  362   0.542   2.840   0.845
   62c3c     H9  363   1.029   2.849   1.032
   62c3c    H10  364   0.951   3.007   1.044
   62c3c    H11  365   0.898   2.874   1.145
   62c3c    H12  366   0.910   3.010   0.813
   62c3c    H13  367   0.993   2.858   0.803
   62c3c     C7  368   0.818   2.867   0.683
   62c3c    H14  369   0.719   2.912   0.686
   62c3c    H15  370   0.808   2.759   0.674
   62c3c     C8  371   0.890   2.918   0.557
   62c3c    H16  372   0.995   2.888   0.555
   62c3c    H17  373   0.888   3.027   0.551
   62c3c    H18  374   0.845   2.878   0.467
   63c3c      N  375   2.255   2.655   0.462
   63c3c     C1  376   2.240   2.726   0.590
   63c3c     C2  377   2.358   2.728   0.387
   63c3c     C3  378   2.272   2.874   0.563
   63c3c     C4  379   2.356   2.874   0.436
   63c3c     C5  380   2.304   2.519   0.491
   63c3c     C6  381   2.127   2.642   0.389
   63c3c     H1  382   2.315   2.690   0.661
   63c3c     H2  383   2.144   2.711   0.638
   63c3c     H3  384   2.457   2.689   0.408
   63c3c     H4  385   2.345   2.719   0.279
   63c3c     H5  386   2.327   2.918   0.646
   63c3c     H6  387   2.182   2.933   0.550
   63c3c     H7  388   2.457   2.908   0.457
   63c3c     H8  389   2.313   2.941   0.362
   63c3c     H9  390   2.237   2.464   0.557
   63c3c    H10  391   2.316   2.462   0.399
   63c3c    H11  392   2.401   2.520   0.541
   63c3c    H12  393   2.142   2.579   0.301
   63c3c    H13  394   2.056   2.589   0.452
   63c3c     C7  395   2.056   2.771   0.342
   63c3c    H14  396   2.121   2.828   0.274
   63c3c    H15  397   2.032   2.835   0.427
   63c3c     C8  398   1.925   2.742   0.269
   63c3c    H16  399   1.852   2.696   0.336
   63c3c    H17  400   1.940   2.675   0.184
   63c3c    H18  401   1.880   2.833   0.230
   64c3c      N  402   0.297   2.711   2.191
   64c3c     C1  403   0.443   2.718   2.201
   64c3c     C2  404   0.260   2.568   2.192
   64c3c     C3  405   0.497   2.587   2.146
   64c3c     C4  406   0.388   2.486   2.178
   64c3c     C5  407   0.237   2.778   2.307
   64c3c     C6  408   0.243   2.783   2.072
   64c3c     H1  409   0.475   2.724   2.305
   64c3c     H2  410   0.486   2.805   2.151
   64c3c     H3  411   0.210   2.538   2.284
   64c3c     H4  412   0.189   2.543   2.112
   64c3c     H5  413   0.593   2.559   2.191
   64c3c     H6  414   0.512   2.592   2.038
   64c3c     H7  415   0.411   2.436   2.272
   64c3c     H8  416   0.380   2.410   2.100
   64c3c     H9  417   0.265   2.883   2.313
   64c3c    H10  418   0.128   2.773   2.306
   64c3c    H11  419   0.269   2.732   2.401
   64c3c    H12  420   0.135   2.776   2.073
   64c3c    H13  421   0.265   2.889   2.081
   64c3c     C7  422   0.292   2.737   1.933
   64c3c    H14  423   0.267   2.632   1.917
   64c3c    H15  424   0.400   2.746   1.924
   64c3c     C8  425   0.228   2.823   1.823
   64c3c    H16  426   0.243   2.929   1.840
   64c3c    H17  427   0.120   2.804   1.816
   64c3c    H18  428   0.270   2.801   1.725
   65c3c      N  429   0.838   2.245   2.269
   65c3c     C1  430   0.931   2.173   2.356
   65c3c     C2  431   0.911   2.354   2.203
   65c3c     C3  432   1.052   2.264   2.378
   65c3c     C4  433   1.033   2.383   2.288
   65c3c     C5  434   0.790   2.153   2.167
   65c3c     C6  435   0.720   2.289   2.343
   65c3c     H1  436   0.963   2.077   2.314
   65c3c     H2  437   0.884   2.144   2.450
   65c3c     H3  438   0.946   2.325   2.104
   65c3c     H4  439   0.851   2.443   2.190
   65c3c     H5  440   1.144   2.211   2.354
   65c3c     H6  441   1.057   2.298   2.481
   65c3c     H7  442   1.121   2.401   2.226
   65c3c     H8  443   1.012   2.472   2.347
   65c3c     H9  444   0.752   2.060   2.208
   65c3c    H10  445   0.711   2.199   2.108
   65c3c    H11  446   0.868   2.123   2.097
   65c3c    H12  447   0.648   2.333   2.273
   65c3c    H13  448   0.671   2.200   2.384
   65c3c     C7  449   0.743   2.388   2.458
   65c3c    H14  450   0.779   2.484   2.420
   65c3c    H15  451   0.819   2.352   2.527
   65c3c     C8  452   0.612   2.408   2.533
   65c3c    H16  453   0.578   2.314   2.578
   65c3c    H17  454   0.533   2.444   2.467
   65c3c    H18  455   0.624   2.480   2.614
   66c3c      N  456   0.607   1.207   1.924
   66c3c     C1  457   0.462   1.223   1.907
   66c3c     C2  458   0.626   1.140   2.052
   66c3c     C3  459   0.402   1.235   2.046
   66c3c     C4  460   0.508   1.179   2.140
   66c3c     C5  461   0.654   1.120   1.816
   66c3c     C6  462   0.679   1.336   1.915
   66c3c     H1  463   0.417   1.134   1.863
   66c3c     H2  464   0.434   1.305   1.841
   66c3c     H3  465   0.626   1.031   2.043
   66c3c     H4  466   0.719   1.166   2.103
   66c3c     H5  467   0.308   1.180   2.052
   66c3c     H6  468   0.381   1.339   2.072
   66c3c     H7  469   0.474   1.093   2.197
   66c3c     H8  470   0.537   1.256   2.212
   66c3c     H9  471   0.618   1.156   1.720
   66c3c    H10  472   0.762   1.111   1.815
   66c3c    H11  473   0.614   1.019   1.824
   66c3c    H12  474   0.786   1.319   1.922
   66c3c    H13  475   0.661   1.381   1.817
   66c3c     C7  476   0.646   1.442   2.019
   66c3c    H14  477   0.658   1.405   2.121
   66c3c    H15  478   0.543   1.476   2.007
   66c3c     C8  479   0.737   1.563   2.009
   66c3c    H16  480   0.746   1.601   1.907
   66c3c    H17  481   0.836   1.543   2.049
   66c3c    H18  482   0.697   1.643   2.072
   67c3c      N  483   2.846   0.988   0.920
   67c3c     C1  484   2.788   0.865   0.976
   67c3c     C2  485   2.738   1.083   0.896
   67c3c     C3  486   2.642   0.862   0.937
   67c3c     C4  487   2.607   1.006   0.908
   67c3c     C5  488   2.938   1.045   1.018
   67c3c     C6  489   2.923   0.961   0.798
   67c3c     H1  490   2.790   0.866   1.085
   67c3c     H2  491   2.840   0.774   0.947
   67c3c     H3  492   2.739   1.163   0.970
   67c3c     H4  493   2.745   1.136   0.801
   67c3c     H5  494   2.582   0.825   1.020
   67c3c     H6  495   2.625   0.799   0.851
   67c3c     H7  496   2.546   1.043   0.990
   67c3c     H8  497   2.549   1.016   0.816
   67c3c     H9  498   3.011   0.973   1.056
   67c3c    H10  499   2.993   1.129   0.977
   67c3c    H11  500   2.886   1.083   1.106
   67c3c    H12  501   2.970   1.054   0.767
   67c3c    H13  502   3.002   0.890   0.824
   67c3c     C7  503   2.849   0.905   0.677
   67c3c    H14  504   2.778   0.980   0.641
   67c3c    H15  505   2.793   0.816   0.704
   67c3c     C8  506   2.943   0.871   0.561
   67c3c    H16  507   3.003   0.783   0.585
   67c3c    H17  508   3.009   0.954   0.536
   67c3c    H18  509   2.887   0.846   0.470
   68c3c      N  510   2.424   1.853   2.312
   68c3c     C1  511   2.301   1.774   2.327
   68c3c     C2  512   2.386   1.990   2.350
   68c3c     C3  513   2.182   1.867   2.335
   68c3c     C4  514   2.238   2.007   2.317
   68c3c     C5  515   2.527   1.805   2.404
   68c3c     C6  516   2.477   1.840   2.175
   68c3c     H1  517   2.304   1.715   2.418
   68c3c     H2  518   2.288   1.704   2.245
   68c3c     H3  519   2.396   2.004   2.458
   68c3c     H4  520   2.450   2.064   2.302
   68c3c     H5  521   2.138   1.854   2.434
   68c3c     H6  522   2.106   1.844   2.260
   68c3c     H7  523   2.192   2.080   2.384
   68c3c     H8  524   2.221   2.042   2.216
   68c3c     H9  525   2.555   1.702   2.383
   68c3c    H10  526   2.618   1.864   2.395
   68c3c    H11  527   2.495   1.807   2.508
   68c3c    H12  528   2.575   1.886   2.165
   68c3c    H13  529   2.493   1.734   2.156
   68c3c     C7  530   2.385   1.892   2.063
   68c3c    H14  531   2.384   2.001   2.062
   68c3c    H15  532   2.284   1.860   2.087
   68c3c     C8  533   2.422   1.836   1.926
   68c3c    H16  534   2.454   1.732   1.932
   68c3c    H17  535   2.501   1.897   1.881
   68c3c    H18  536   2.340   1.834   1.854
   69c3c      N  537   1.683   1.252   0.763
   69c3c     C1  538   1.546   1.277   0.804
   69c3c     C2  539   1.759   1.269   0.888
   69c3c     C3  540   1.548   1.378   0.919
   69c3c     C4  541   1.689   1.376   0.972
   69c3c     C5  542   1.693   1.114   0.714
   69c3c     C6  543   1.727   1.335   0.649
   69c3c     H1  544   1.510   1.184   0.849
   69c3c     H2  545   1.477   1.303   0.724
   69c3c     H3  546   1.756   1.178   0.946
   69c3c     H4  547   1.863   1.295   0.871
   69c3c     H5  548   1.479   1.347   0.998
   69c3c     H6  549   1.517   1.477   0.885
   69c3c     H7  550   1.691   1.350   1.078
   69c3c     H8  551   1.737   1.474   0.962
   69c3c     H9  552   1.628   1.098   0.629
   69c3c    H10  553   1.795   1.089   0.683
   69c3c    H11  554   1.664   1.041   0.790
   69c3c    H12  555   1.830   1.310   0.623
   69c3c    H13  556   1.665   1.311   0.563
   69c3c     C7  557   1.717   1.485   0.670
   69c3c    H14  558   1.777   1.515   0.756
   69c3c    H15  559   1.613   1.511   0.689
   69c3c     C8  560   1.761   1.567   0.550
   69c3c    H16  561   1.691   1.555   0.467
   69c3c    H17  562   1.860   1.538   0.514
   69c3c    H18  563   1.761   1.673   0.574
   70c3c      N  564   1.610   0.262   2.071
   70c3c     C1  565   1.524   0.305   1.960
   70c3c     C2  566   1.641   0.381   2.150
   70c3c     C3  567   1.557   0.452   1.935
   70c3c     C4  568   1.595   0.505   2.071
   70c3c     C5  569   1.536   0.168   2.155
   70c3c     C6  570   1.735   0.195   2.027
   70c3c     H1  571   1.418   0.301   1.987
   70c3c     H2  572   1.534   0.242   1.872
   70c3c     H3  573   1.593   0.380   2.247
   70c3c     H4  574   1.747   0.387   2.173
   70c3c     H5  575   1.473   0.507   1.892
   70c3c     H6  576   1.642   0.464   1.867
   70c3c     H7  577   1.507   0.548   2.120
   70c3c     H8  578   1.672   0.582   2.066
   70c3c     H9  579   1.503   0.081   2.098
   70c3c    H10  580   1.597   0.132   2.237
   70c3c    H11  581   1.447   0.213   2.198
   70c3c    H12  582   1.794   0.168   2.115
   70c3c    H13  583   1.711   0.100   1.979
   70c3c     C7  584   1.825   0.275   1.931
   70c3c    H14  585   1.843   0.376   1.969
   70c3c    H15  586   1.774   0.285   1.835
   70c3c     C8  587   1.961   0.209   1.908
   70c3c    H16  588   1.951   0.113   1.857
   70c3c    H17  589   2.014   0.192   2.002
   70c3c    H18  590   2.026   0.271   1.846
   71c3c      N  591   2.272   1.276   0.400
   71c3c     C1  592   2.234   1.413   0.361
   71c3c     C2  593   2.401   1.245   0.336
   71c3c     C3  594   2.302   1.435   0.228
   71c3c     C4  595   2.433   1.361   0.241
   71c3c     C5  596   2.289   1.275   0.545
   71c3c     C6  597   2.166   1.177   0.370
   71c3c     H1  598   2.271   1.488   0.430
   71c3c     H2  599   2.126   1.428   0.355
   71c3c     H3  600   2.482   1.231   0.408
   71c3c     H4  601   2.398   1.153   0.279
   71c3c     H5  602   2.314   1.540   0.201
   71c3c     H6  603   2.243   1.385   0.152
   71c3c     H7  604   2.508   1.429   0.283
   71c3c     H8  605   2.472   1.327   0.145
   71c3c     H9  606   2.193   1.304   0.590
   71c3c    H10  607   2.315   1.177   0.585
   71c3c    H11  608   2.363   1.346   0.580
   71c3c    H12  609   2.194   1.081   0.414
   71c3c    H13  610   2.074   1.205   0.421
   71c3c     C7  611   2.131   1.150   0.222
   71c3c    H14  612   2.219   1.128   0.161
   71c3c    H15  613   2.083   1.237   0.177
   71c3c     C8  614   2.036   1.031   0.212
   71c3c    H16  615   1.948   1.044   0.275
   71c3c    H17  616   2.085   0.938   0.240
   71c3c    H18  617   1.999   1.019   0.110
   72c3c      N  618   1.578   2.819   1.171
   72c3c     C1  619   1.544   2.913   1.064
   72c3c     C2  620   1.577   2.687   1.108
   72c3c     C3  621   1.448   2.839   0.971
   72c3c     C4  622   1.473   2.692   0.996
   72c3c     C5  623   1.715   2.845   1.215
   72c3c     C6  624   1.491   2.826   1.291
   72c3c     H1  625   1.632   2.938   1.005
   72c3c     H2  626   1.504   3.007   1.102
   72c3c     H3  627   1.673   2.666   1.060
   72c3c     H4  628   1.561   2.609   1.182
   72c3c     H5  629   1.467   2.864   0.866
   72c3c     H6  630   1.345   2.864   0.994
   72c3c     H7  631   1.510   2.642   0.907
   72c3c     H8  632   1.379   2.643   1.024
   72c3c     H9  633   1.723   2.948   1.249
   72c3c    H10  634   1.745   2.780   1.297
   72c3c    H11  635   1.790   2.833   1.136
   72c3c    H12  636   1.530   2.759   1.368
   72c3c    H13  637   1.500   2.926   1.335
   72c3c     C7  638   1.340   2.795   1.273
   72c3c    H14  639   1.324   2.701   1.220
   72c3c    H15  640   1.294   2.874   1.214
   72c3c     C8  641   1.263   2.781   1.406
   72c3c    H16  642   1.312   2.835   1.487
   72c3c    H17  643   1.253   2.677   1.435
   72c3c    H18  644   1.162   2.820   1.395
   73c3c      N  645   0.291   2.016   1.363
   73c3c     C1  646   0.181   2.105   1.403
   73c3c     C2  647   0.407   2.104   1.344
   73c3c     C3  648   0.205   2.239   1.332
   73c3c     C4  649   0.352   2.238   1.293
   73c3c     C5  650   0.319   1.921   1.470
   73c3c     C6  651   0.262   1.932   1.245
   73c3c     H1  652   0.185   2.124   1.510
   73c3c     H2  653   0.083   2.062   1.382
   73c3c     H3  654   0.457   2.122   1.439
   73c3c     H4  655   0.483   2.062   1.279
   73c3c     H5  656   0.183   2.322   1.399
   73c3c     H6  657   0.142   2.251   1.244
   73c3c     H7  658   0.406   2.322   1.338
   73c3c     H8  659   0.365   2.251   1.185
   73c3c     H9  660   0.236   1.852   1.487
   73c3c    H10  661   0.406   1.859   1.446
   73c3c    H11  662   0.337   1.970   1.565
   73c3c    H12  663   0.352   1.875   1.221
   73c3c    H13  664   0.187   1.856   1.270
   73c3c     C7  665   0.213   2.003   1.119
   73c3c    H14  666   0.277   2.088   1.094
   73c3c    H15  667   0.113   2.043   1.132
   73c3c     C8  668   0.219   1.912   0.998
   73c3c    H16  669   0.144   1.833   1.005
   73c3c    H17  670   0.317   1.865   0.987
   73c3c    H18  671   0.202   1.972   0.909
   74c3c      N  672   2.417   0.351   0.352
   74c3c     C1  673   2.449   0.209   0.376
   74c3c     C2  674   2.434   0.415   0.483
   74c3c     C3  675   2.409   0.177   0.521
   74c3c     C4  676   2.402   0.312   0.591
   74c3c     C5  677   2.513   0.409   0.257
   74c3c     C6  678   2.283   0.371   0.293
   74c3c     H1  679   2.557   0.193   0.370
   74c3c     H2  680   2.403   0.142   0.303
   74c3c     H3  681   2.537   0.447   0.499
   74c3c     H4  682   2.371   0.503   0.495
   74c3c     H5  683   2.481   0.111   0.568
   74c3c     H6  684   2.312   0.127   0.526
   74c3c     H7  685   2.474   0.320   0.673
   74c3c     H8  686   2.303   0.327   0.632
   74c3c     H9  687   2.507   0.362   0.159
   74c3c    H10  688   2.496   0.515   0.243
   74c3c    H11  689   2.616   0.399   0.291
   74c3c    H12  690   2.273   0.475   0.264
   74c3c    H13  691   2.276   0.317   0.199
   74c3c     C7  692   2.160   0.336   0.379
   74c3c    H14  693   2.162   0.394   0.472
   74c3c    H15  694   2.159   0.231   0.406
   74c3c     C8  695   2.030   0.369   0.307
   74c3c    H16  696   2.018   0.311   0.216
   74c3c    H17  697   2.030   0.475   0.279
   74c3c    H18  698   1.943   0.351   0.371
   75c3c      N  699   0.598   0.695   1.409
   75c3c     C1  700   0.699   0.801   1.396
   75c3c     C2  701   0.618   0.631   1.540
   75c3c     C3  702   0.762   0.816   1.535
   75c3c     C4  703   0.757   0.673   1.586
   75c3c     C5  704   0.468   0.758   1.402
   75c3c     C6  705   0.600   0.596   1.299
   75c3c     H1  706   0.658   0.895   1.360
   75c3c     H2  707   0.775   0.775   1.322
   75c3c     H3  708   0.545   0.670   1.611
   75c3c     H4  709   0.603   0.523   1.539
   75c3c     H5  710   0.702   0.882   1.598
   75c3c     H6  711   0.864   0.856   1.533
   75c3c     H7  712   0.772   0.667   1.694
   75c3c     H8  713   0.834   0.613   1.539
   75c3c     H9  714   0.452   0.803   1.304
   75c3c    H10  715   0.387   0.687   1.419
   75c3c    H11  716   0.459   0.839   1.475
   75c3c    H12  717   0.514   0.530   1.310
   75c3c    H13  718   0.586   0.647   1.204
   75c3c     C7  719   0.725   0.508   1.291
   75c3c    H14  720   0.748   0.461   1.387
   75c3c    H15  721   0.812   0.568   1.264
   75c3c     C8  722   0.704   0.395   1.191
   75c3c    H16  723   0.641   0.428   1.109
   75c3c    H17  724   0.656   0.309   1.237
   75c3c    H18  725   0.799   0.363   1.149
   76c3c      N  726   1.308   0.683   2.853
   76c3c     C1  727   1.286   0.663   2.709
   76c3c     C2  728   1.353   0.822   2.866
   76c3c     C3  729   1.367   0.771   2.637
   76c3c     C4  730   1.431   0.858   2.741
   76c3c     C5  731   1.182   0.672   2.926
   76c3c     C6  732   1.403   0.585   2.911
   76c3c     H1  733   1.181   0.677   2.682
   76c3c     H2  734   1.313   0.563   2.676
   76c3c     H3  735   1.267   0.890   2.868
   76c3c     H4  736   1.411   0.839   2.957
   76c3c     H5  737   1.304   0.832   2.572
   76c3c     H6  738   1.449   0.729   2.578
   76c3c     H7  739   1.423   0.963   2.712
   76c3c     H8  740   1.537   0.837   2.749
   76c3c     H9  741   1.146   0.569   2.931
   76c3c    H10  742   1.193   0.708   3.028
   76c3c    H11  743   1.103   0.731   2.881
   76c3c    H12  744   1.408   0.600   3.019
   76c3c    H13  745   1.366   0.484   2.895
   76c3c     C7  746   1.548   0.593   2.860
   76c3c    H14  747   1.591   0.687   2.895
   76c3c    H15  748   1.552   0.593   2.751
   76c3c     C8  749   1.640   0.482   2.911
   76c3c    H16  750   1.598   0.382   2.898
   76c3c    H17  751   1.663   0.496   3.017
   76c3c    H18  752   1.735   0.484   2.858
   77c3c      N  753   1.108   1.113   2.487
   77c3c     C1  754   1.112   1.010   2.384
   77c3c     C2  755   1.094   1.038   2.611
   77c3c     C3  756   1.048   0.882   2.435
   77c3c     C4  757   1.009   0.914   2.578
   77c3c     C5  758   1.231   1.193   2.485
   77c3c     C6  759   0.999   1.208   2.464
   77c3c     H1  760   1.212   0.994   2.345
   77c3c     H2  761   1.050   1.044   2.300
   77c3c     H3  762   1.191   1.006   2.648
   77c3c     H4  763   1.053   1.101   2.690
   77c3c     H5  764   1.119   0.799   2.431
   77c3c     H6  765   0.962   0.856   2.374
   77c3c     H7  766   1.027   0.831   2.646
   77c3c     H8  767   0.902   0.934   2.583
   77c3c     H9  768   1.249   1.240   2.389
   77c3c    H10  769   1.227   1.274   2.558
   77c3c    H11  770   1.320   1.135   2.508
   77c3c    H12  771   0.996   1.278   2.548
   77c3c    H13  772   1.027   1.265   2.375
   77c3c     C7  773   0.855   1.162   2.435
   77c3c    H14  774   0.810   1.113   2.522
   77c3c    H15  775   0.855   1.092   2.352
   77c3c     C8  776   0.767   1.279   2.395
   77c3c    H16  777   0.799   1.321   2.299
   77c3c    H17  778   0.770   1.359   2.469
   77c3c    H18  779   0.663   1.247   2.385
   78c3c      N  780   2.514   1.063   2.546
   78c3c     C1  781   2.484   1.206   2.558
   78c3c     C2  782   2.395   0.999   2.488
   78c3c     C3  783   2.333   1.215   2.573
   78c3c     C4  784   2.275   1.091   2.508
   78c3c     C5  785   2.625   1.049   2.452
   78c3c     C6  786   2.554   1.005   2.674
   78c3c     H1  787   2.513   1.258   2.467
   78c3c     H2  788   2.537   1.257   2.638
   78c3c     H3  789   2.406   0.990   2.380
   78c3c     H4  790   2.378   0.899   2.527
   78c3c     H5  791   2.300   1.308   2.526
   78c3c     H6  792   2.300   1.216   2.677
   78c3c     H7  793   2.228   1.114   2.412
   78c3c     H8  794   2.199   1.046   2.571
   78c3c     H9  795   2.713   1.104   2.486
   78c3c    H10  796   2.656   0.946   2.434
   78c3c    H11  797   2.597   1.088   2.354
   78c3c    H12  798   2.576   0.898   2.661
   78c3c    H13  799   2.648   1.050   2.706
   78c3c     C7  800   2.454   1.022   2.790
   78c3c    H14  801   2.356   0.981   2.763
   78c3c    H15  802   2.440   1.128   2.811
   78c3c     C8  803   2.503   0.957   2.919
   78c3c    H16  804   2.597   1.002   2.951
   78c3c    H17  805   2.518   0.850   2.906
   78c3c    H18  806   2.431   0.972   2.999
   79c3c      N  807   1.948   0.838   1.728
   79c3c     C1  808   1.830   0.772   1.669
   79c3c     C2  809   1.909   0.890   1.858
   79c3c     C3  810   1.708   0.801   1.754
   79c3c     C4  811   1.762   0.858   1.882
   79c3c     C5  812   2.056   0.742   1.750
   79c3c     C6  813   2.005   0.941   1.639
   79c3c     H1  814   1.842   0.664   1.662
   79c3c     H2  815   1.807   0.806   1.568
   79c3c     H3  816   1.972   0.857   1.941
   79c3c     H4  817   1.918   0.998   1.865
   79c3c     H5  818   1.654   0.710   1.777
   79c3c     H6  819   1.640   0.871   1.705
   79c3c     H7  820   1.752   0.783   1.960
   79c3c     H8  821   1.707   0.947   1.911
   79c3c     H9  822   2.094   0.701   1.657
   79c3c    H10  823   2.142   0.790   1.798
   79c3c    H11  824   2.026   0.659   1.815
   79c3c    H12  825   2.092   0.984   1.689
   79c3c    H13  826   2.040   0.897   1.546
   79c3c     C7  827   1.915   1.060   1.609
   79c3c    H14  828   1.910   1.119   1.701
   79c3c    H15  829   1.813   1.035   1.583
   79c3c     C8  830   1.978   1.154   1.508
   79c3c    H16  831   2.015   1.105   1.418
   79c3c    H17  832   2.065   1.199   1.556
   79c3c    H18  833   1.910   1.234   1.477
   80c3c      N  834   2.576   0.289   1.661
   80c3c     C1  835   2.702   0.324   1.593
   80c3c     C2  836   2.499   0.204   1.568
   80c3c     C3  837   2.711   0.235   1.469
   80c3c     C4  838   2.565   0.219   1.431
   80c3c     C5  839   2.607   0.208   1.779
   80c3c     C6  840   2.503   0.408   1.706
   80c3c     H1  841   2.791   0.317   1.656
   80c3c     H2  842   2.701   0.428   1.559
   80c3c     H3  843   2.504   0.099   1.594
   80c3c     H4  844   2.393   0.229   1.566
   80c3c     H5  845   2.753   0.138   1.495
   80c3c     H6  846   2.770   0.279   1.389
   80c3c     H7  847   2.547   0.134   1.365
   80c3c     H8  848   2.529   0.309   1.381
   80c3c     H9  849   2.658   0.266   1.856
   80c3c    H10  850   2.515   0.169   1.824
   80c3c    H11  851   2.670   0.122   1.756
   80c3c    H12  852   2.420   0.378   1.769
   80c3c    H13  853   2.570   0.467   1.769
   80c3c     C7  854   2.449   0.505   1.598
   80c3c    H14  855   2.385   0.448   1.530
   80c3c    H15  856   2.529   0.548   1.538
   80c3c     C8  857   2.366   0.620   1.655
   80c3c    H16  858   2.427   0.684   1.719
   80c3c    H17  859   2.283   0.583   1.716
   80c3c    H18  860   2.326   0.683   1.576
   81c3c      N  861   0.487   1.405   2.789
   81c3c     C1  862   0.450   1.441   2.926
   81c3c     C2  863   0.416   1.501   2.704
   81c3c     C3  864   0.309   1.501   2.921
   81c3c     C4  865   0.297   1.559   2.781
   81c3c     C5  866   0.632   1.420   2.771
   81c3c     C6  867   0.456   1.265   2.752
   81c3c     H1  868   0.518   1.518   2.964
   81c3c     H2  869   0.457   1.356   2.994
   81c3c     H3  870   0.480   1.584   2.673
   81c3c     H4  871   0.380   1.452   2.614
   81c3c     H5  872   0.295   1.577   2.998
   81c3c     H6  873   0.232   1.426   2.937
   81c3c     H7  874   0.303   1.668   2.783
   81c3c     H8  875   0.202   1.532   2.735
   81c3c     H9  876   0.690   1.356   2.837
   81c3c    H10  877   0.663   1.397   2.669
   81c3c    H11  878   0.666   1.522   2.789
   81c3c    H12  879   0.489   1.248   2.650
   81c3c    H13  880   0.515   1.198   2.814
   81c3c     C7  881   0.308   1.222   2.761
   81c3c    H14  882   0.244   1.289   2.704
   81c3c    H15  883   0.273   1.225   2.864
   81c3c     C8  884   0.286   1.080   2.708
   81c3c    H16  885   0.338   1.007   2.769
   81c3c    H17  886   0.322   1.070   2.605
   81c3c    H18  887   0.180   1.055   2.709
   82c3c      N  888   2.807   2.152   2.412
   82c3c     C1  889   2.898   2.268   2.418
   82c3c     C2  890   2.669   2.202   2.421
   82c3c     C3  891   2.811   2.392   2.401
   82c3c     C4  892   2.678   2.349   2.460
   82c3c     C5  893   2.823   2.089   2.281
   82c3c     C6  894   2.837   2.052   2.517
   82c3c     H1  895   2.978   2.265   2.344
   82c3c     H2  896   2.949   2.276   2.514
   82c3c     H3  897   2.620   2.199   2.324
   82c3c     H4  898   2.604   2.145   2.488
   82c3c     H5  899   2.798   2.417   2.296
   82c3c     H6  900   2.851   2.479   2.453
   82c3c     H7  901   2.596   2.406   2.417
   82c3c     H8  902   2.678   2.360   2.568
   82c3c     H9  903   2.921   2.042   2.270
   82c3c    H10  904   2.747   2.012   2.265
   82c3c    H11  905   2.813   2.161   2.199
   82c3c    H12  906   2.775   1.964   2.502
   82c3c    H13  907   2.939   2.016   2.507
   82c3c     C7  908   2.814   2.099   2.664
   82c3c    H14  909   2.713   2.135   2.678
   82c3c    H15  910   2.880   2.181   2.690
   82c3c     C8  911   2.837   1.986   2.764
   82c3c    H16  912   2.937   1.943   2.755
   82c3c    H17  913   2.764   1.906   2.750
   82c3c    H18  914   2.825   2.021   2.866
   83c3c      N  915   0.600   1.619   0.987
   83c3c     C1  916   0.719   1.540   0.946
   83c3c     C2  917   0.632   1.760   0.965
   83c3c     C3  918   0.809   1.636   0.871
   83c3c     C4  919   0.782   1.767   0.938
   83c3c     C5  920   0.489   1.580   0.900
   83c3c     C6  921   0.553   1.599   1.125
   83c3c     H1  922   0.697   1.452   0.885
   83c3c     H2  923   0.778   1.500   1.028
   83c3c     H3  924   0.580   1.800   0.878
   83c3c     H4  925   0.605   1.825   1.049
   83c3c     H5  926   0.783   1.640   0.765
   83c3c     H6  927   0.915   1.612   0.878
   83c3c     H7  928   0.809   1.851   0.874
   83c3c     H8  929   0.839   1.775   1.030
   83c3c     H9  930   0.473   1.474   0.917
   83c3c    H10  931   0.397   1.633   0.924
   83c3c    H11  932   0.511   1.592   0.794
   83c3c    H12  933   0.479   1.676   1.150
   83c3c    H13  934   0.496   1.507   1.136
   83c3c     C7  935   0.664   1.598   1.229
   83c3c    H14  936   0.734   1.677   1.202
   83c3c    H15  937   0.720   1.505   1.229
   83c3c     C8  938   0.612   1.623   1.369
   83c3c    H16  939   0.551   1.541   1.407
   83c3c    H17  940   0.549   1.712   1.370
   83c3c    H18  941   0.695   1.639   1.438
   84c3c      N  942   0.839   2.799   1.825
   84c3c     C1  943   0.936   2.896   1.878
   84c3c     C2  944   0.914   2.673   1.818
   84c3c     C3  945   1.077   2.847   1.843
   84c3c     C4  946   1.058   2.708   1.783
   84c3c     C5  947   0.728   2.789   1.921
   84c3c     C6  948   0.779   2.835   1.694
   84c3c     H1  949   0.931   2.901   1.987
   84c3c     H2  950   0.916   2.997   1.841
   84c3c     H3  951   0.917   2.622   1.914
   84c3c     H4  952   0.871   2.601   1.748
   84c3c     H5  953   1.137   2.841   1.934
   84c3c     H6  954   1.128   2.913   1.773
   84c3c     H7  955   1.128   2.633   1.820
   84c3c     H8  956   1.077   2.711   1.675
   84c3c     H9  957   0.688   2.887   1.945
   84c3c    H10  958   0.645   2.732   1.880
   84c3c    H11  959   0.758   2.741   2.014
   84c3c    H12  960   0.732   2.746   1.653
   84c3c    H13  961   0.697   2.906   1.709
   84c3c     C7  962   0.869   2.898   1.585
   84c3c    H14  963   0.963   2.845   1.570
   84c3c    H15  964   0.898   3.000   1.612
   84c3c     C8  965   0.798   2.902   1.448
   84c3c    H16  966   0.710   2.965   1.450
   84c3c    H17  967   0.768   2.802   1.417
   84c3c    H18  968   0.866   2.941   1.372
   85c3c      N  969   1.693   2.378   0.267
   85c3c     C1  970   1.585   2.310   0.339
   85c3c     C2  971   1.730   2.288   0.156
   85c3c     C3  972   1.602   2.159   0.318
   85c3c     C4  973   1.684   2.147   0.192
   85c3c     C5  974   1.642   2.505   0.216
   85c3c     C6  975   1.809   2.412   0.352
   85c3c     H1  976   1.489   2.335   0.295
   85c3c     H2  977   1.579   2.338   0.445
   85c3c     H3  978   1.679   2.316   0.064
   85c3c     H4  979   1.836   2.290   0.132
   85c3c     H5  980   1.506   2.108   0.307
   85c3c     H6  981   1.654   2.110   0.400
   85c3c     H7  982   1.625   2.103   0.112
   85c3c     H8  983   1.770   2.082   0.209
   85c3c     H9  984   1.606   2.569   0.296
   85c3c    H10  985   1.720   2.559   0.161
   85c3c    H11  986   1.560   2.490   0.147
   85c3c    H12  987   1.885   2.460   0.290
   85c3c    H13  988   1.780   2.484   0.428
   85c3c     C7  989   1.875   2.295   0.423
   85c3c    H14  990   1.902   2.217   0.351
   85c3c    H15  991   1.799   2.252   0.488
   85c3c     C8  992   1.999   2.334   0.503
   85c3c    H16  993   1.978   2.411   0.577
   85c3c    H17  994   2.078   2.367   0.436
   85c3c    H18  995   2.041   2.248   0.557
   86c3c      N  996   2.762   1.483   0.595
   86c3c     C1  997   2.683   1.498   0.717
   86c3c     C2  998   2.878   1.401   0.630
   86c3c     C3  999   2.776   1.477   0.836
   86c3c     C4 1000   2.903   1.415   0.779
   86c3c     C5 1001   2.682   1.410   0.496
   86c3c     C6 1002   2.799   1.614   0.537
   86c3c     H1 1003   2.605   1.422   0.721
   86c3c     H2 1004   2.629   1.593   0.725
   86c3c     H3 1005   2.861   1.295   0.610
   86c3c     H4 1006   2.967   1.430   0.572
   86c3c     H5 1007   2.729   1.411   0.909
   86c3c     H6 1008   2.799   1.570   0.886
   86c3c     H7 1009   2.923   1.317   0.822
   86c3c     H8 1010   2.989   1.479   0.800
   86c3c     H9 1011   2.590   1.464   0.476
   86c3c    H10 1012   2.735   1.396   0.402
   86c3c    H11 1013   2.654   1.312   0.533
   86c3c    H12 1014   2.859   1.597   0.447
   86c3c    H13 1015   2.709   1.664   0.501
   86c3c     C7 1016   2.875   1.711   0.629
   86c3c    H14 1017   2.973   1.670   0.654
   86c3c    H15 1018   2.821   1.725   0.723
   86c3c     C8 1019   2.892   1.850   0.567
   86c3c    H16 1020   2.796   1.894   0.539
   86c3c    H17 1021   2.953   1.845   0.477
   86c3c    H18 1022   2.941   1.919   0.636
   87c3c      N 1023   0.264   1.930   2.216
   87c3c     C1 1024   0.251   2.053   2.296
   87c3c     C2 1025   0.404   1.891   2.230
   87c3c     C3 1026   0.387   2.124   2.290
   87c3c     C4 1027   0.486   2.018   2.242
   87c3c     C5 1028   0.179   1.825   2.273
   87c3c     C6 1029   0.219   1.944   2.077
   87c3c     H1 1030   0.233   2.028   2.400
   87c3c     H2 1031   0.168   2.116   2.264
   87c3c     H3 1032   0.421   1.836   2.322
   87c3c     H4 1033   0.438   1.825   2.149
   87c3c     H5 1034   0.417   2.162   2.388
   87c3c     H6 1035   0.387   2.207   2.219
   87c3c     H7 1036   0.566   2.004   2.314
   87c3c     H8 1037   0.529   2.047   2.147
   87c3c     H9 1038   0.073   1.848   2.264
   87c3c    H10 1039   0.196   1.729   2.225
   87c3c    H11 1040   0.199   1.811   2.379
   87c3c    H12 1041   0.225   1.847   2.028
   87c3c    H13 1042   0.112   1.967   2.077
   87c3c     C7 1043   0.288   2.047   1.986
   87c3c    H14 1044   0.393   2.020   1.974
   87c3c    H15 1045   0.285   2.147   2.031
   87c3c     C8 1046   0.220   2.053   1.849
   87c3c    H16 1047   0.115   2.082   1.858
   87c3c    H17 1048   0.224   1.956   1.800
   87c3c    H18 1049   0.270   2.125   1.784
   88c3c      N 1050   2.082   2.446   2.351
   88c3c     C1 1051   1.955   2.518   2.357
   88c3c     C2 1052   2.184   2.550   2.329
   88c3c     C3 1053   1.967   2.640   2.266
   88c3c     C4 1054   2.117   2.667   2.255
   88c3c     C5 1055   2.109   2.379   2.478
   88c3c     C6 1056   2.081   2.342   2.247
   88c3c     H1 1057   1.940   2.553   2.459
   88c3c     H2 1058   1.869   2.456   2.331
   88c3c     H3 1059   2.215   2.590   2.425
   88c3c     H4 1060   2.273   2.513   2.279
   88c3c     H5 1061   1.914   2.726   2.309
   88c3c     H6 1062   1.926   2.619   2.168
   88c3c     H7 1063   2.143   2.761   2.302
   88c3c     H8 1064   2.147   2.673   2.151
   88c3c     H9 1065   2.034   2.303   2.501
   88c3c    H10 1066   2.206   2.329   2.480
   88c3c    H11 1067   2.110   2.447   2.563
   88c3c    H12 1068   2.172   2.283   2.257
   88c3c    H13 1069   2.001   2.270   2.268
   88c3c     C7 1070   2.068   2.385   2.100
   88c3c    H14 1071   2.133   2.469   2.074
   88c3c    H15 1072   1.966   2.414   2.078
   88c3c     C8 1073   2.109   2.270   2.011
   88c3c    H16 1074   2.069   2.176   2.050
   88c3c    H17 1075   2.217   2.256   2.007
   88c3c    H18 1076   2.074   2.284   1.909
   89c3c      N 1077   0.888   1.675   0.345
   89c3c     C1 1078   0.753   1.688   0.292
   89c3c     C2 1079   0.968   1.785   0.292
   89c3c     C3 1080   0.765   1.764   0.161
   89c3c     C4 1081   0.908   1.816   0.155
   89c3c     C5 1082   0.879   1.686   0.491
   89c3c     C6 1083   0.946   1.543   0.313
   89c3c     H1 1084   0.688   1.745   0.358
   89c3c     H2 1085   0.704   1.592   0.278
   89c3c     H3 1086   0.958   1.874   0.354
   89c3c     H4 1087   1.075   1.762   0.287
   89c3c     H5 1088   0.693   1.846   0.158
   89c3c     H6 1089   0.746   1.696   0.078
   89c3c     H7 1090   0.912   1.923   0.134
   89c3c     H8 1091   0.963   1.764   0.077
   89c3c     H9 1092   0.826   1.602   0.536
   89c3c    H10 1093   0.978   1.693   0.538
   89c3c    H11 1094   0.828   1.777   0.524
   89c3c    H12 1095   1.034   1.528   0.375
   89c3c    H13 1096   0.872   1.468   0.341
   89c3c     C7 1097   0.989   1.505   0.171
   89c3c    H14 1098   1.057   1.578   0.128
   89c3c    H15 1099   0.902   1.495   0.106
   89c3c     C8 1100   1.066   1.373   0.179
   89c3c    H16 1101   1.019   1.302   0.246
   89c3c    H17 1102   1.166   1.392   0.219
   89c3c    H18 1103   1.078   1.325   0.082
   90c3c      N 1104   2.839   0.864   1.717
   90c3c     C1 1105   2.707   0.797   1.722
   90c3c     C2 1106   2.825   0.999   1.772
   90c3c     C3 1107   2.620   0.890   1.806
   90c3c     C4 1108   2.676   1.026   1.775
   90c3c     C5 1109   2.930   0.788   1.804
   90c3c     C6 1110   2.895   0.871   1.582
   90c3c     H1 1111   2.708   0.696   1.763
   90c3c     H2 1112   2.658   0.788   1.625
   90c3c     H3 1113   2.860   1.004   1.875
   90c3c     H4 1114   2.878   1.077   1.718
   90c3c     H5 1115   2.629   0.867   1.912
   90c3c     H6 1116   2.516   0.882   1.777
   90c3c     H7 1117   2.650   1.101   1.851
   90c3c     H8 1118   2.641   1.062   1.679
   90c3c     H9 1119   2.944   0.686   1.768
   90c3c    H10 1120   3.028   0.837   1.810
   90c3c    H11 1121   2.891   0.781   1.905
   90c3c    H12 1122   2.991   0.922   1.585
   90c3c    H13 1123   2.916   0.770   1.546
   90c3c     C7 1124   2.807   0.942   1.477
   90c3c    H14 1125   2.779   1.043   1.507
   90c3c    H15 1126   2.714   0.889   1.459
   90c3c     C8 1127   2.877   0.952   1.343
   90c3c    H16 1128   2.934   0.862   1.318
   90c3c    H17 1129   2.941   1.040   1.341
   90c3c    H18 1130   2.800   0.964   1.267
   91c3c      N 1131   0.958   1.245   1.593
   91c3c     C1 1132   1.021   1.313   1.482
   91c3c     C2 1133   0.814   1.246   1.565
   91c3c     C3 1134   0.918   1.403   1.414
   91c3c     C4 1135   0.787   1.335   1.444
   91c3c     C5 1136   1.006   1.107   1.604
   91c3c     C6 1137   0.995   1.312   1.718
   91c3c     H1 1138   1.053   1.239   1.409
   91c3c     H2 1139   1.109   1.368   1.513
   91c3c     H3 1140   0.772   1.148   1.546
   91c3c     H4 1141   0.760   1.291   1.648
   91c3c     H5 1142   0.935   1.412   1.307
   91c3c     H6 1143   0.919   1.505   1.454
   91c3c     H7 1144   0.755   1.276   1.358
   91c3c     H8 1145   0.710   1.407   1.468
   91c3c     H9 1146   1.111   1.101   1.634
   91c3c    H10 1147   0.946   1.050   1.675
   91c3c    H11 1148   0.998   1.052   1.511
   91c3c    H12 1149   0.950   1.259   1.802
   91c3c    H13 1150   1.102   1.300   1.733
   91c3c     C7 1151   0.962   1.462   1.728
   91c3c    H14 1152   0.855   1.482   1.725
   91c3c    H15 1153   1.008   1.521   1.649
   91c3c     C8 1154   1.021   1.515   1.857
   91c3c    H16 1155   1.129   1.510   1.849
   91c3c    H17 1156   0.992   1.451   1.940
   91c3c    H18 1157   0.992   1.618   1.878
   92c3c      N 1158   0.289   0.670   1.937
   92c3c     C1 1159   0.432   0.637   1.954
   92c3c     C2 1160   0.281   0.745   1.812
   92c3c     C3 1161   0.512   0.749   1.887
   92c3c     C4 1162   0.411   0.825   1.802
   92c3c     C5 1163   0.210   0.547   1.921
   92c3c     C6 1164   0.232   0.742   2.054
   92c3c     H1 1165   0.457   0.544   1.904
   92c3c     H2 1166   0.462   0.629   2.058
   92c3c     H3 1167   0.276   0.680   1.725
   92c3c     H4 1168   0.192   0.809   1.807
   92c3c     H5 1169   0.592   0.707   1.826
   92c3c     H6 1170   0.558   0.816   1.959
   92c3c     H7 1171   0.444   0.837   1.699
   92c3c     H8 1172   0.399   0.925   1.843
   92c3c     H9 1173   0.205   0.489   2.013
   92c3c    H10 1174   0.108   0.572   1.892
   92c3c    H11 1175   0.248   0.482   1.843
   92c3c    H12 1176   0.127   0.763   2.037
   92c3c    H13 1177   0.234   0.677   2.141
   92c3c     C7 1178   0.299   0.875   2.094
   92c3c    H14 1179   0.282   0.952   2.018
   92c3c    H15 1180   0.407   0.865   2.108
   92c3c     C8 1181   0.242   0.927   2.225
   92c3c    H16 1182   0.243   0.849   2.301
   92c3c    H17 1183   0.140   0.961   2.208
   92c3c    H18 1184   0.298   1.011   2.266
   93c3c      N 1185   2.746   2.159   1.677
   93c3c     C1 1186   2.860   2.236   1.626
   93c3c     C2 1187   2.656   2.256   1.741
   93c3c     C3 1188   2.876   2.357   1.720
   93c3c     C4 1189   2.742   2.370   1.793
   93c3c     C5 1190   2.673   2.093   1.568
   93c3c     C6 1191   2.788   2.053   1.768
   93c3c     H1 1192   2.841   2.273   1.526
   93c3c     H2 1193   2.951   2.177   1.619
   93c3c     H3 1194   2.585   2.299   1.671
   93c3c     H4 1195   2.595   2.209   1.819
   93c3c     H5 1196   2.898   2.448   1.664
   93c3c     H6 1197   2.956   2.342   1.792
   93c3c     H7 1198   2.695   2.466   1.770
   93c3c     H8 1199   2.756   2.365   1.901
   93c3c     H9 1200   2.739   2.030   1.508
   93c3c    H10 1201   2.594   2.028   1.606
   93c3c    H11 1202   2.624   2.164   1.503
   93c3c    H12 1203   2.697   2.008   1.807
   93c3c    H13 1204   2.840   1.976   1.710
   93c3c     C7 1205   2.878   2.083   1.889
   93c3c    H14 1206   2.827   2.150   1.959
   93c3c    H15 1207   2.971   2.130   1.858
   93c3c     C8 1208   2.914   1.954   1.963
   93c3c    H16 1209   2.956   1.880   1.894
   93c3c    H17 1210   2.827   1.907   2.009
   93c3c    H18 1211   2.987   1.970   2.042
   94c3c      N 1212   1.982   0.427   0.832
   94c3c     C1 1213   1.933   0.382   0.702
   94c3c     C2 1214   2.092   0.335   0.862
   94c3c     C3 1215   1.959   0.231   0.692
   94c3c     C4 1216   2.057   0.199   0.804
   94c3c     C5 1217   2.030   0.566   0.820
   94c3c     C6 1218   1.878   0.428   0.937
   94c3c     H1 1219   1.988   0.431   0.621
   94c3c     H2 1220   1.828   0.410   0.692
   94c3c     H3 1221   2.179   0.366   0.804
   94c3c     H4 1222   2.122   0.334   0.967
   94c3c     H5 1223   2.002   0.206   0.594
   94c3c     H6 1224   1.869   0.172   0.704
   94c3c     H7 1225   2.146   0.148   0.766
   94c3c     H8 1226   2.011   0.133   0.878
   94c3c     H9 1227   1.949   0.635   0.795
   94c3c    H10 1228   2.075   0.601   0.913
   94c3c    H11 1229   2.105   0.579   0.742
   94c3c    H12 1230   1.924   0.464   1.029
   94c3c    H13 1231   1.805   0.505   0.913
   94c3c     C7 1232   1.802   0.298   0.969
   94c3c    H14 1233   1.869   0.226   1.016
   94c3c    H15 1234   1.762   0.252   0.878
   94c3c     C8 1235   1.683   0.320   1.062
   94c3c    H16 1236   1.607   0.382   1.015
   94c3c    H17 1237   1.713   0.372   1.153
   94c3c    H18 1238   1.636   0.227   1.091
   95c3c      N 1239   1.704   2.116   2.482
   95c3c     C1 1240   1.734   2.093   2.341
   95c3c     C2 1241   1.821   2.070   2.557
   95c3c     C3 1242   1.831   1.976   2.330
   95c3c     C4 1243   1.894   1.971   2.467
   95c3c     C5 1244   1.686   2.259   2.505
   95c3c     C6 1245   1.580   2.048   2.524
   95c3c     H1 1246   1.782   2.180   2.296
   95c3c     H2 1247   1.645   2.072   2.282
   95c3c     H3 1248   1.890   2.152   2.579
   95c3c     H4 1249   1.798   2.029   2.655
   95c3c     H5 1250   1.904   1.992   2.252
   95c3c     H6 1251   1.781   1.881   2.309
   95c3c     H7 1252   1.996   2.008   2.454
   95c3c     H8 1253   1.896   1.869   2.507
   95c3c     H9 1254   1.607   2.302   2.444
   95c3c    H10 1255   1.665   2.279   2.610
   95c3c    H11 1256   1.776   2.316   2.482
   95c3c    H12 1257   1.551   2.084   2.623
   95c3c    H13 1258   1.499   2.076   2.456
   95c3c     C7 1259   1.580   1.895   2.529
   95c3c    H14 1260   1.662   1.855   2.590
   95c3c    H15 1261   1.599   1.855   2.430
   95c3c     C8 1262   1.447   1.842   2.585
   95c3c    H16 1263   1.362   1.887   2.534
   95c3c    H17 1264   1.436   1.863   2.691
   95c3c    H18 1265   1.440   1.735   2.571
   96c3c      N 1266   0.545   0.352   2.264
   96c3c     C1 1267   0.532   0.242   2.361
   96c3c     C2 1268   0.426   0.436   2.286
   96c3c     C3 1269   0.383   0.221   2.389
   96c3c     C4 1270   0.314   0.347   2.339
   96c3c     C5 1271   0.667   0.428   2.293
   96c3c     C6 1272   0.557   0.305   2.124
   96c3c     H1 1273   0.576   0.271   2.457
   96c3c     H2 1274   0.583   0.151   2.331
   96c3c     H3 1275   0.445   0.512   2.362
   96c3c     H4 1276   0.394   0.492   2.198
   96c3c     H5 1277   0.365   0.207   2.495
   96c3c     H6 1278   0.344   0.134   2.337
   96c3c     H7 1279   0.260   0.398   2.419
   96c3c     H8 1280   0.241   0.323   2.261
   96c3c     H9 1281   0.757   0.367   2.285
   96c3c    H10 1282   0.679   0.514   2.227
   96c3c    H11 1283   0.666   0.469   2.394
   96c3c    H12 1284   0.578   0.392   2.060
   96c3c    H13 1285   0.645   0.241   2.115
   96c3c     C7 1286   0.437   0.231   2.062
   96c3c    H14 1287   0.348   0.294   2.064
   96c3c    H15 1288   0.414   0.141   2.118
   96c3c     C8 1289   0.462   0.193   1.915
   96c3c    H16 1290   0.544   0.122   1.906
   96c3c    H17 1291   0.486   0.280   1.855
   96c3c    H18 1292   0.374   0.146   1.872
   97c3c      N 1293   1.631   1.731   1.754
   97c3c     C1 1294   1.665   1.850   1.675
   97c3c     C2 1295   1.651   1.612   1.670
   97c3c     C3 1296   1.692   1.804   1.534
   97c3c     C4 1297   1.674   1.654   1.527
   97c3c     C5 1298   1.722   1.724   1.868
   97c3c     C6 1299   1.500   1.741   1.817
   97c3c     H1 1300   1.755   1.901   1.709
   97c3c     H2 1301   1.586   1.925   1.676
   97c3c     H3 1302   1.745   1.565   1.699
   97c3c     H4 1303   1.574   1.535   1.680
   97c3c     H5 1304   1.792   1.831   1.501
   97c3c     H6 1305   1.617   1.856   1.475
   97c3c     H7 1306   1.764   1.606   1.487
   97c3c     H8 1307   1.594   1.624   1.460
   97c3c     H9 1308   1.709   1.804   1.940
   97c3c    H10 1309   1.711   1.632   1.925
   97c3c    H11 1310   1.825   1.730   1.832
   97c3c    H12 1311   1.489   1.662   1.890
   97c3c    H13 1312   1.498   1.836   1.870
   97c3c     C7 1313   1.377   1.738   1.728
   97c3c    H14 1314   1.375   1.644   1.673
   97c3c    H15 1315   1.379   1.821   1.658
   97c3c     C8 1316   1.249   1.749   1.810
   97c3c    H16 1317   1.236   1.848   1.852
   97c3c    H17 1318   1.250   1.679   1.894
   97c3c    H18 1319   1.160   1.725   1.751
   98c3c      N 1320   0.775   0.887   0.328
   98c3c     C1 1321   0.815   0.993   0.421
   98c3c     C2 1322   0.826   0.931   0.197
   98c3c     C3 1323   0.949   1.043   0.368
   98c3c     C4 1324   0.917   1.052   0.221
   98c3c     C5 1325   0.843   0.762   0.365
   98c3c     C6 1326   0.630   0.860   0.333
   98c3c     H1 1327   0.810   0.959   0.524
   98c3c     H2 1328   0.754   1.083   0.419
   98c3c     H3 1329   0.883   0.854   0.146
   98c3c     H4 1330   0.746   0.962   0.128
   98c3c     H5 1331   1.031   0.973   0.384
   98c3c     H6 1332   0.979   1.139   0.410
   98c3c     H7 1333   1.007   1.054   0.159
   98c3c     H8 1334   0.862   1.144   0.203
   98c3c     H9 1335   0.815   0.730   0.466
   98c3c    H10 1336   0.816   0.680   0.297
   98c3c    H11 1337   0.951   0.770   0.364
   98c3c    H12 1338   0.604   0.788   0.256
   98c3c    H13 1339   0.605   0.813   0.428
   98c3c     C7 1340   0.542   0.985   0.319
   98c3c    H14 1341   0.576   1.043   0.233
   98c3c    H15 1342   0.553   1.048   0.408
   98c3c     C8 1343   0.392   0.960   0.305
   98c3c    H16 1344   0.356   0.892   0.383
   98c3c    H17 1345   0.366   0.921   0.207
   98c3c    H18 1346   0.339   1.055   0.316
   99c3c      N 1347   2.092   0.597   2.240
   99c3c     C1 1348   2.232   0.636   2.221
   99c3c     C2 1349   2.030   0.706   2.316
   99c3c     C3 1350   2.262   0.743   2.324
   99c3c     C4 1351   2.132   0.818   2.332
   99c3c     C5 1352   2.028   0.587   2.109
   99c3c     C6 1353   2.079   0.466   2.308
   99c3c     H1 1354   2.246   0.683   2.124
   99c3c     H2 1355   2.301   0.552   2.225
   99c3c     H3 1356   1.937   0.744   2.274
   99c3c     H4 1357   2.003   0.671   2.416
   99c3c     H5 1358   2.346   0.804   2.292
   99c3c     H6 1359   2.286   0.700   2.422
   99c3c     H7 1360   2.123   0.891   2.250
   99c3c     H8 1361   2.121   0.872   2.426
   99c3c     H9 1362   2.078   0.514   2.046
   99c3c    H10 1363   1.923   0.561   2.118
   99c3c    H11 1364   2.033   0.684   2.058
   99c3c    H12 1365   1.973   0.440   2.319
   99c3c    H13 1366   2.122   0.388   2.244
   99c3c     C7 1367   2.145   0.452   2.447
   99c3c    H14 1368   2.109   0.525   2.519
   99c3c    H15 1369   2.252   0.472   2.439
   99c3c     C8 1370   2.129   0.313   2.507
   99c3c    H16 1371   2.177   0.237   2.446
   99c3c    H17 1372   2.024   0.287   2.519
   99c3c    H18 1373   2.174   0.310   2.607
  100c3c      N 1374   0.882   0.337   2.690
  100c3c     C1 1375   0.977   0.422   2.765
  100c3c     C2 1376   0.886   0.207   2.758
  100c3c     C3 1377   1.085   0.329   2.822
  100c3c     C4 1378   1.026   0.188   2.816
  100c3c     C5 1379   0.748   0.396   2.703
  100c3c     C6 1380   0.911   0.329   2.545
  100c3c     H1 1381   0.928   0.470   2.849
  100c3c     H2 1382   1.017   0.503   2.704
  100c3c     H3 1383   0.816   0.205   2.842
  100c3c     H4 1384   0.857   0.123   2.693
  100c3c     H5 1385   1.109   0.354   2.925
  100c3c     H6 1386   1.178   0.334   2.765
  100c3c     H7 1387   1.022   0.144   2.916
  100c3c     H8 1388   1.089   0.123   2.756
  100c3c     H9 1389   0.742   0.496   2.660
  100c3c    H10 1390   0.670   0.336   2.657
  100c3c    H11 1391   0.718   0.407   2.808
  100c3c    H12 1392   0.835   0.266   2.499
  100c3c    H13 1393   0.899   0.428   2.502
  100c3c     C7 1394   1.049   0.275   2.502
  100c3c    H14 1395   1.064   0.174   2.541
  100c3c    H15 1396   1.128   0.338   2.542
  100c3c     C8 1397   1.064   0.269   2.349
  100c3c    H16 1398   1.053   0.368   2.304
  100c3c    H17 1399   0.991   0.202   2.305
  100c3c    H18 1400   1.163   0.231   2.322
  101fsi     F1 1401   0.940   1.165   2.029
  101fsi     S1 1402   1.037   1.044   2.022
  101fsi      N 1403   0.954   0.926   2.088
  101fsi     O1 1404   1.062   1.026   1.883
  101fsi     O2 1405   1.148   1.088   2.101
  101fsi     S2 1406   0.872   0.813   2.016
  101fsi     O3 1407   0.823   0.845   1.885
  101fsi     O4 1408   0.783   0.739   2.101
  101fsi     F2 1409   0.981   0.705   1.992
  102fsi     F1 1410   2.293   2.781   0.886
  102fsi     S1 1411   2.219   2.900   0.956
  102fsi      N 1412   2.246   2.869   1.107
  102fsi     O1 1413   2.285   3.018   0.907
  102fsi     O2 1414   2.082   2.880   0.919
  102fsi     S2 1415   2.386   2.858   1.179
  102fsi     O3 1416   2.495   2.922   1.110
  102fsi     O4 1417   2.408   2.729   1.235
  102fsi     F2 1418   2.364   2.953   1.302
  103fsi     F1 1419   2.667   1.470   1.936
  103fsi     S1 1420   2.768   1.479   1.818
  103fsi      N 1421   2.686   1.559   1.711
  103fsi     O1 1422   2.882   1.548   1.873
  103fsi     O2 1423   2.795   1.343   1.783
  103fsi     S2 1424   2.670   1.713   1.705
  103fsi     O3 1425   2.704   1.775   1.829
  103fsi     O4 1426   2.553   1.763   1.638
  103fsi     F2 1427   2.787   1.757   1.609
  104fsi     F1 1428   1.613   0.828   0.948
  104fsi     S1 1429   1.573   0.745   1.076
  104fsi      N 1430   1.571   0.849   1.193
  104fsi     O1 1431   1.445   0.691   1.042
  104fsi     O2 1432   1.679   0.650   1.086
  104fsi     S2 1433   1.527   0.999   1.191
  104fsi     O3 1434   1.541   1.067   1.066
  104fsi     O4 1435   1.570   1.071   1.308
  104fsi     F2 1436   1.374   0.987   1.213
  105fsi     F1 1437   2.950   1.593   2.153
  105fsi     S1 1438   2.838   1.651   2.246
  105fsi      N 1439   2.865   1.581   2.384
  105fsi     O1 1440   2.865   1.792   2.247
  105fsi     O2 1441   2.716   1.610   2.185
  105fsi     S2 1442   2.955   1.631   2.502
  105fsi     O3 1443   3.060   1.722   2.466
  105fsi     O4 1444   2.988   1.525   2.593
  105fsi     F2 1445   2.858   1.721   2.583
  106fsi     F1 1446   2.298   0.700   3.006
  106fsi     S1 1447   2.196   0.671   2.889
  106fsi      N 1448   2.070   0.754   2.930
  106fsi     O1 1449   2.261   0.720   2.770
  106fsi     O2 1450   2.174   0.529   2.899
  106fsi     S2 1451   2.056   0.910   2.935
  106fsi     O3 1452   2.167   0.977   2.997
  106fsi     O4 1453   1.924   0.953   2.972
  106fsi     F2 1454   2.067   0.952   2.784
  107fsi     F1 1455   1.110   1.277   0.665
  107fsi     S1 1456   1.010   1.391   0.652
  107fsi      N 1457   1.106   1.515   0.643
  107fsi     O1 1458   0.941   1.355   0.533
  107fsi     O2 1459   0.933   1.385   0.773
  107fsi     S2 1460   1.241   1.524   0.562
  107fsi     O3 1461   1.256   1.421   0.464
  107fsi     O4 1462   1.357   1.562   0.637
  107fsi     F2 1463   1.216   1.652   0.473
  108fsi     F1 1464   0.507   0.111   2.727
  108fsi     S1 1465   0.382   0.123   2.822
  108fsi      N 1466   0.401   0.265   2.883
  108fsi     O1 1467   0.270   0.105   2.734
  108fsi     O2 1468   0.406   0.018   2.918
  108fsi     S2 1469   0.375   0.406   2.819
  108fsi     O3 1470   0.330   0.400   2.682
  108fsi     O4 1471   0.480   0.498   2.850
  108fsi     F2 1472   0.251   0.462   2.898
  109fsi     F1 1473   2.331   2.114   0.527
  109fsi     S1 1474   2.284   2.015   0.640
  109fsi      N 1475   2.319   1.874   0.582
  109fsi     O1 1476   2.366   2.053   0.752
  109fsi     O2 1477   2.143   2.039   0.653
  109fsi     S2 1478   2.441   1.781   0.614
  109fsi     O3 1479   2.563   1.852   0.642
  109fsi     O4 1480   2.447   1.664   0.531
  109fsi     F2 1481   2.406   1.723   0.755
  110fsi     F1 1482   2.304   2.281   1.683
  110fsi     S1 1483   2.269   2.164   1.585
  110fsi      N 1484   2.113   2.151   1.596
  110fsi     O1 1485   2.323   2.206   1.458
  110fsi     O2 1486   2.338   2.054   1.647
  110fsi     S2 1487   1.999   2.160   1.486
  110fsi     O3 1488   1.958   2.292   1.448
  110fsi     O4 1489   1.893   2.065   1.503
  110fsi     F2 1490   2.072   2.109   1.360
  111fsi     F1 1491   2.406   0.743   1.212
  111fsi     S1 1492   2.327   0.610   1.226
  111fsi      N 1493   2.291   0.569   1.079
  111fsi     O1 1494   2.413   0.518   1.294
  111fsi     O2 1495   2.209   0.650   1.294
  111fsi     S2 1496   2.397   0.519   0.976
  111fsi     O3 1497   2.528   0.571   1.001
  111fsi     O4 1498   2.349   0.523   0.841
  111fsi     F2 1499   2.408   0.365   1.007
  112fsi     F1 1500   1.840   0.907   2.142
  112fsi     S1 1501   1.738   0.976   2.236
  112fsi      N 1502   1.616   0.880   2.235
  112fsi     O1 1503   1.808   0.979   2.360
  112fsi     O2 1504   1.709   1.100   2.171
  112fsi     S2 1505   1.480   0.916   2.302
  112fsi     O3 1506   1.492   0.962   2.437
  112fsi     O4 1507   1.381   0.815   2.278
  112fsi     F2 1508   1.429   1.039   2.222
  113fsi     F1 1509   1.335   0.896   0.851
  113fsi     S1 1510   1.197   0.836   0.893
  113fsi      N 1511   1.092   0.932   0.830
  113fsi     O1 1512   1.201   0.703   0.837
  113fsi     O2 1513   1.200   0.849   1.035
  113fsi     S2 1514   1.053   0.953   0.681
  113fsi     O3 1515   1.002   0.835   0.616
  113fsi     O4 1516   1.148   1.028   0.605
  113fsi     F2 1517   0.933   1.052   0.693
  114fsi     F1 1518   0.022   1.632   0.117
  114fsi     S1 1519   0.097   1.667   0.251
  114fsi      N 1520   0.054   1.549   0.347
  114fsi     O1 1521   0.236   1.668   0.213
  114fsi     O2 1522   0.039   1.792   0.290
  114fsi     S2 1523   0.130   1.415   0.379
  114fsi     O3 1524   0.220   1.368   0.278
  114fsi     O4 1525   0.045   1.313   0.434
  114fsi     F2 1526   0.222   1.451   0.501
  115fsi     F1 1527   0.312   0.767   0.876
  115fsi     S1 1528   0.181   0.845   0.853
  115fsi      N 1529   0.231   0.990   0.816
  115fsi     O1 1530   0.122   0.773   0.744
  115fsi     O2 1531   0.118   0.834   0.981
  115fsi     S2 1532   0.214   1.076   0.684
  115fsi     O3 1533   0.189   1.003   0.563
  115fsi     O4 1534   0.312   1.179   0.673
  115fsi     F2 1535   0.083   1.157   0.708
  116fsi     F1 1536   1.852   1.692   1.255
  116fsi     S1 1537   1.782   1.809   1.179
  116fsi      N 1538   1.758   1.750   1.038
  116fsi     O1 1539   1.659   1.827   1.249
  116fsi     O2 1540   1.877   1.917   1.180
  116fsi     S2 1541   1.619   1.745   0.969
  116fsi     O3 1542   1.514   1.684   1.047
  116fsi     O4 1543   1.628   1.712   0.831
  116fsi     F2 1544   1.578   1.895   0.968
  117fsi     F1 1545   0.140   1.470   2.255
  117fsi     S1 1546   0.210   1.359   2.341
  117fsi      N 1547   0.360   1.395   2.329
  117fsi     O1 1548   0.156   1.373   2.474
  117fsi     O2 1549   0.184   1.236   2.272
  117fsi     S2 1550   0.425   1.534   2.352
  117fsi     O3 1551   0.351   1.622   2.437
  117fsi     O4 1552   0.480   1.588   2.232
  117fsi     F2 1553   0.548   1.493   2.439
  118fsi     F1 1554   1.486   2.878   1.738
  118fsi     S1 1555   1.574   2.953   1.845
  118fsi      N 1556   1.684   2.849   1.886
  118fsi     O1 1557   1.625   3.067   1.775
  118fsi     O2 1558   1.481   2.977   1.951
  118fsi     S2 1559   1.788   2.778   1.792
  118fsi     O3 1560   1.739   2.752   1.659
  118fsi     O4 1561   1.851   2.671   1.864
  118fsi     F2 1562   1.902   2.884   1.776
  119fsi     F1 1563   2.473   1.485   0.974
  119fsi     S1 1564   2.442   1.331   0.980
  119fsi      N 1565   2.553   1.278   1.074
  119fsi     O1 1566   2.309   1.322   1.033
  119fsi     O2 1567   2.463   1.284   0.845
  119fsi     S2 1568   2.539   1.241   1.224
  119fsi     O3 1569   2.503   1.355   1.303
  119fsi     O4 1570   2.643   1.153   1.266
  119fsi     F2 1571   2.412   1.149   1.226
  120fsi     F1 1572   0.602   2.519   1.812
  120fsi     S1 1573   0.643   2.382   1.869
  120fsi      N 1574   0.710   2.315   1.745
  120fsi     O1 1575   0.727   2.420   1.978
  120fsi     O2 1576   0.517   2.319   1.901
  120fsi     S2 1577   0.861   2.301   1.706
  120fsi     O3 1578   0.954   2.365   1.796
  120fsi     O4 1579   0.879   2.324   1.567
  120fsi     F2 1580   0.885   2.149   1.722
  121fsi     F1 1581   2.280   0.952   1.080
  121fsi     S1 1582   2.263   0.924   0.927
  121fsi      N 1583   2.116   0.876   0.913
  121fsi     O1 1584   2.292   1.046   0.859
  121fsi     O2 1585   2.351   0.816   0.897
  121fsi     S2 1586   2.001   0.969   0.865
  121fsi     O3 1587   1.999   1.094   0.936
  121fsi     O4 1588   1.880   0.895   0.847
  121fsi     F2 1589   2.043   1.009   0.719
  122fsi     F1 1590   2.100   1.411   2.528
  122fsi     S1 1591   2.092   1.434   2.374
  122fsi      N 1592   2.236   1.484   2.341
  122fsi     O1 1593   2.051   1.305   2.328
  122fsi     O2 1594   1.997   1.543   2.373
  122fsi     S2 1595   2.367   1.416   2.283
  122fsi     O3 1596   2.362   1.274   2.269
  122fsi     O4 1597   2.483   1.470   2.348
  122fsi     F2 1598   2.381   1.472   2.137
  123fsi     F1 1599   0.686   1.723   2.496
  123fsi     S1 1600   0.791   1.717   2.379
  123fsi      N 1601   0.926   1.715   2.455
  123fsi     O1 1602   0.764   1.595   2.310
  123fsi     O2 1603   0.769   1.842   2.311
  123fsi     S2 1604   0.984   1.599   2.542
  123fsi     O3 1605   0.893   1.547   2.640
  123fsi     O4 1606   1.119   1.626   2.581
  123fsi     F2 1607   0.998   1.486   2.441
  124fsi     F1 1608   1.065   2.756   2.896
  124fsi     S1 1609   0.953   2.653   2.935
  124fsi      N 1610   0.820   2.734   2.911
  124fsi     O1 1611   0.972   2.542   2.845
  124fsi     O2 1612   0.974   2.629   3.075
  124fsi     S2 1613   0.710   2.712   2.801
  124fsi     O3 1614   0.758   2.698   2.666
  124fsi     O4 1615   0.598   2.800   2.821
  124fsi     F2 1616   0.651   2.571   2.838
  125fsi     F1 1617   1.827   1.705   0.305
  125fsi     S1 1618   1.741   1.718   0.175
  125fsi      N 1619   1.644   1.596   0.190
  125fsi     O1 1620   1.678   1.846   0.190
  125fsi     O2 1621   1.839   1.700   0.072
  125fsi     S2 1622   1.505   1.588   0.263
  125fsi     O3 1623   1.458   1.710   0.324
  125fsi     O4 1624   1.507   1.470   0.344
  125fsi     F2 1625   1.399   1.557   0.152
  126fsi     F1 1626   2.130   2.031   1.867
  126fsi     S1 1627   2.033   1.911   1.870
  126fsi      N 1628   1.917   1.963   1.960
  126fsi     O1 1629   2.003   1.889   1.731
  126fsi     O2 1630   2.111   1.815   1.938
  126fsi     S2 1631   1.834   2.090   1.931
  126fsi     O3 1632   1.872   2.154   1.809
  126fsi     O4 1633   1.821   2.173   2.048
  126fsi     F2 1634   1.689   2.037   1.904
  127fsi     F1 1635   1.616   1.977   2.827
  127fsi     S1 1636   1.689   1.862   2.904
  127fsi      N 1637   1.569   1.787   2.972
  127fsi     O1 1638   1.760   1.788   2.804
  127fsi     O2 1639   1.770   1.935   2.997
  127fsi     S2 1640   1.490   1.659   2.926
  127fsi     O3 1641   1.511   1.620   2.790
  127fsi     O4 1642   1.356   1.658   2.977
  127fsi     F2 1643   1.557   1.546   3.008
  128fsi     F1 1644   1.032   1.321   2.792
  128fsi     S1 1645   1.145   1.393   2.874
  128fsi      N 1646   1.213   1.273   2.948
  128fsi     O1 1647   1.228   1.451   2.773
  128fsi     O2 1648   1.070   1.480   2.960
  128fsi     S2 1649   1.344   1.201   2.905
  128fsi     O3 1650   1.358   1.185   2.764
  128fsi     O4 1651   1.373   1.085   2.984
  128fsi     F2 1652   1.459   1.300   2.945
  129fsi     F1 1653   0.220   0.274   1.151
  129fsi     S1 1654   0.336   0.330   1.061
  129fsi      N 1655   0.274   0.318   0.917
  129fsi     O1 1656   0.355   0.464   1.109
  129fsi     O2 1657   0.442   0.234   1.083
  129fsi     S2 1658   0.177   0.419   0.846
  129fsi     O3 1659   0.116   0.514   0.934
  129fsi     O4 1660   0.094   0.350   0.751
  129fsi     F2 1661   0.272   0.504   0.755
  130fsi     F1 1662   2.957   0.199   2.305
  130fsi     S1 1663   2.837   0.213   2.204
  130fsi      N 1664   2.860   0.355   2.142
  130fsi     O1 1665   2.854   0.104   2.112
  130fsi     O2 1666   2.721   0.208   2.290
  130fsi     S2 1667   2.966   0.400   2.036
  130fsi     O3 1668   3.077   0.309   2.019
  130fsi     O4 1669   2.999   0.540   2.045
  130fsi     F2 1670   2.889   0.390   1.899
  131fsi     F1 1671   0.549   1.462   0.132
  131fsi     S1 1672   0.577   1.310   0.161
  131fsi      N 1673   0.638   1.307   0.306
  131fsi     O1 1674   0.449   1.245   0.148
  131fsi     O2 1675   0.672   1.274   0.060
  131fsi     S2 1676   0.569   1.355   0.439
  131fsi     O3 1677   0.518   1.489   0.434
  131fsi     O4 1678   0.637   1.315   0.559
  131fsi     F2 1679   0.441   1.266   0.443
  132fsi     F1 1680   2.432   2.506   2.555
  132fsi     S1 1681   2.437   2.658   2.591
  132fsi      N 1682   2.301   2.677   2.666
  132fsi     O1 1683   2.555   2.671   2.673
  132fsi     O2 1684   2.440   2.724   2.463
  132fsi     S2 1685   2.264   2.656   2.817
  132fsi     O3 1686   2.376   2.627   2.904
  132fsi     O4 1687   2.147   2.576   2.835
  132fsi     F2 1688   2.223   2.800   2.862
  133fsi     F1 1689   1.686   1.407   1.881
  133fsi     S1 1690   1.729   1.281   1.804
  133fsi      N 1691   1.596   1.206   1.776
  133fsi     O1 1692   1.794   1.331   1.686
  133fsi     O2 1693   1.803   1.210   1.901
  133fsi     S2 1694   1.507   1.203   1.649
  133fsi     O3 1695   1.567   1.269   1.536
  133fsi     O4 1696   1.371   1.234   1.682
  133fsi     F2 1697   1.505   1.052   1.607
  134fsi     F1 1698   2.515   1.283   1.756
  134fsi     S1 1699   2.404   1.283   1.646
  134fsi      N 1700   2.445   1.167   1.548
  134fsi     O1 1701   2.284   1.253   1.718
  134fsi     O2 1702   2.414   1.415   1.590
  134fsi     S2 1703   2.383   1.023   1.527
  134fsi     O3 1704   2.323   0.961   1.642
  134fsi     O4 1705   2.464   0.936   1.447
  134fsi     F2 1706   2.261   1.051   1.433
  135fsi     F1 1707   2.720   1.033   2.115
  135fsi     S1 1708   2.745   1.188   2.117
  135fsi      N 1709   2.791   1.216   2.263
  135fsi     O1 1710   2.851   1.209   2.021
  135fsi     O2 1711   2.616   1.243   2.089
  135fsi     S2 1712   2.937   1.206   2.314
  135fsi     O3 1713   3.015   1.103   2.252
  135fsi     O4 1714   2.947   1.220   2.457
  135fsi     F2 1715   2.996   1.339   2.260
  136fsi     F1 1716   0.656   1.959   1.585
  136fsi     S1 1717   0.594   1.866   1.694
  136fsi      N 1718   0.714   1.838   1.789
  136fsi     O1 1719   0.494   1.954   1.748
  136fsi     O2 1720   0.551   1.752   1.622
  136fsi     S2 1721   0.748   1.916   1.920
  136fsi     O3 1722   0.710   2.054   1.911
  136fsi     O4 1723   0.876   1.883   1.977
  136fsi     F2 1724   0.647   1.860   2.023
  137fsi     F1 1725   1.555   2.396   0.850
  137fsi     S1 1726   1.708   2.376   0.871
  137fsi      N 1727   1.723   2.220   0.871
  137fsi     O1 1728   1.767   2.443   0.758
  137fsi     O2 1729   1.734   2.432   1.001
  137fsi     S2 1730   1.719   2.130   0.745
  137fsi     O3 1731   1.621   2.173   0.649
  137fsi     O4 1732   1.731   1.990   0.769
  137fsi     F2 1733   1.857   2.156   0.682
  138fsi     F1 1734   2.331   2.255   2.878
  138fsi     S1 1735   2.394   2.130   2.807
  138fsi      N 1736   2.292   2.015   2.840
  138fsi     O1 1737   2.401   2.169   2.668
  138fsi     O2 1738   2.519   2.112   2.875
  138fsi     S2 1739   2.174   1.961   2.753
  138fsi     O3 1740   2.124   2.053   2.655
  138fsi     O4 1741   2.078   1.886   2.830
  138fsi     F2 1742   2.244   1.853   2.664
  139fsi     F1 1743   0.172   1.709   0.550
  139fsi     S1 1744   0.196   1.840   0.628
  139fsi      N 1745   0.347   1.828   0.669
  139fsi     O1 1746   0.170   1.946   0.535
  139fsi     O2 1747   0.103   1.827   0.738
  139fsi     S2 1748   0.471   1.830   0.572
  139fsi     O3 1749   0.440   1.817   0.433
  139fsi     O4 1750   0.583   1.756   0.622
  139fsi     F2 1751   0.519   1.978   0.583
  140fsi     F1 1752   1.220   1.531   2.309
  140fsi     S1 1753   1.143   1.526   2.173
  140fsi      N 1754   1.259   1.511   2.070
  140fsi     O1 1755   1.061   1.408   2.181
  140fsi     O2 1756   1.078   1.653   2.165
  140fsi     S2 1757   1.335   1.383   2.026
  140fsi     O3 1758   1.380   1.298   2.132
  140fsi     O4 1759   1.425   1.415   1.919
  140fsi     F2 1760   1.226   1.301   1.950
  141fsi     F1 1761   1.374   0.172   1.378
  141fsi     S1 1762   1.236   0.098   1.369
  141fsi      N 1763   1.131   0.202   1.422
  141fsi     O1 1764   1.224   0.061   1.230
  141fsi     O2 1765   1.250  -0.008   1.464
  141fsi     S2 1766   1.037   0.299   1.343
  141fsi     O3 1767   1.074   0.325   1.207
  141fsi     O4 1768   0.991   0.407   1.425
  141fsi     F2 1769   0.908   0.210   1.329
  142fsi     F1 1770   2.123   1.845   0.316
  142fsi     S1 1771   2.030   1.970   0.291
  142fsi      N 1772   2.128   2.091   0.310
  142fsi     O1 1773   1.985   1.951   0.156
  142fsi     O2 1774   1.932   1.964   0.396
  142fsi     S2 1775   2.194   2.184   0.202
  142fsi     O3 1776   2.203   2.130   0.070
  142fsi     O4 1777   2.311   2.250   0.255
  142fsi     F2 1778   2.091   2.302   0.190
  143fsi     F1 1779   2.038   0.955   1.239
  143fsi     S1 1780   1.894   0.895   1.236
  143fsi      N 1781   1.925   0.742   1.219
  143fsi     O1 1782   1.836   0.930   1.362
  143fsi     O2 1783   1.835   0.956   1.122
  143fsi     S2 1784   1.901   0.628   1.325
  143fsi     O3 1785   1.973   0.646   1.448
  143fsi     O4 1786   1.915   0.498   1.267
  143fsi     F2 1787   1.750   0.640   1.365
  144fsi     F1 1788   1.825   2.541   2.793
  144fsi     S1 1789   1.722   2.452   2.867
  144fsi      N 1790   1.792   2.313   2.868
  144fsi     O1 1791   1.707   2.517   2.994
  144fsi     O2 1792   1.608   2.461   2.781
  144fsi     S2 1793   1.944   2.291   2.898
  144fsi     O3 1794   1.990   2.363   3.014
  144fsi     O4 1795   2.023   2.296   2.779
  144fsi     F2 1796   1.952   2.141   2.943
  145fsi     F1 1797   1.103   0.763   1.768
  145fsi     S1 1798   1.238   0.686   1.781
  145fsi      N 1799   1.344   0.801   1.787
  145fsi     O1 1800   1.231   0.613   1.907
  145fsi     O2 1801   1.239   0.606   1.664
  145fsi     S2 1802   1.383   0.878   1.916
  145fsi     O3 1803   1.286   0.863   2.020
  145fsi     O4 1804   1.444   1.005   1.899
  145fsi     F2 1805   1.499   0.788   1.970
  146fsi     F1 1806   1.118   2.076   0.755
  146fsi     S1 1807   1.095   1.942   0.676
  146fsi      N 1808   1.238   1.902   0.628
  146fsi     O1 1809   1.039   1.852   0.772
  146fsi     O2 1810   1.013   1.982   0.566
  146fsi     S2 1811   1.375   1.917   0.703
  146fsi     O3 1812   1.388   2.033   0.787
  146fsi     O4 1813   1.482   1.888   0.613
  146fsi     F2 1814   1.372   1.798   0.801
  147fsi     F1 1815   2.842   2.479   0.982
  147fsi     S1 1816   2.877   2.492   1.135
  147fsi      N 1817   2.736   2.489   1.204
  147fsi     O1 1818   2.961   2.378   1.160
  147fsi     O2 1819   2.939   2.621   1.145
  147fsi     S2 1820   2.663   2.378   1.288
  147fsi     O3 1821   2.723   2.246   1.283
  147fsi     O4 1822   2.520   2.381   1.275
  147fsi     F2 1823   2.687   2.427   1.435
  148fsi     F1 1824   2.569   2.902   1.545
  148fsi     S1 1825   2.479   2.791   1.612
  148fsi      N 1826   2.469   2.843   1.761
  148fsi     O1 1827   2.356   2.800   1.537
  148fsi     O2 1828   2.558   2.672   1.598
  148fsi     S2 1829   2.346   2.901   1.839
  148fsi     O3 1830   2.256   2.981   1.760
  148fsi     O4 1831   2.383   2.952   1.968
  148fsi     F2 1832   2.262   2.773   1.877
  149fsi     F1 1833   0.518   2.075   0.202
  149fsi     S1 1834   0.594   2.212   0.195
  149fsi      N 1835   0.647   2.234   0.341
  149fsi     O1 1836   0.700   2.193   0.099
  149fsi     O2 1837   0.491   2.306   0.161
  149fsi     S2 1838   0.761   2.152   0.412
  149fsi     O3 1839   0.749   2.010   0.391
  149fsi     O4 1840   0.788   2.201   0.543
  149fsi     F2 1841   0.890   2.192   0.331
  150fsi     F1 1842   0.228   1.256   1.632
  150fsi     S1 1843   0.237   1.099   1.635
  150fsi      N 1844   0.146   1.051   1.516
  150fsi     O1 1845   0.377   1.072   1.620
  150fsi     O2 1846   0.179   1.065   1.763
  150fsi     S2 1847   0.190   0.990   1.377
  150fsi     O3 1848   0.325   1.016   1.338
  150fsi     O4 1849   0.090   0.991   1.274
  150fsi     F2 1850   0.192   0.837   1.415
  151fsi     F1 1851   1.298   1.519   1.072
  151fsi     S1 1852   1.178   1.510   0.976
  151fsi      N 1853   1.225   1.386   0.896
  151fsi     O1 1854   1.061   1.495   1.058
  151fsi     O2 1855   1.191   1.635   0.910
  151fsi     S2 1856   1.222   1.235   0.938
  151fsi     O3 1857   1.267   1.204   1.071
  151fsi     O4 1858   1.280   1.156   0.834
  151fsi     F2 1859   1.071   1.197   0.935
  152fsi     F1 1860   1.389   2.054   2.225
  152fsi     S1 1861   1.402   2.170   2.121
  152fsi      N 1862   1.319   2.122   1.999
  152fsi     O1 1863   1.347   2.281   2.194
  152fsi     O2 1864   1.541   2.176   2.093
  152fsi     S2 1865   1.165   2.128   1.997
  152fsi     O3 1866   1.107   2.099   2.124
  152fsi     O4 1867   1.102   2.073   1.882
  152fsi     F2 1868   1.143   2.282   1.978
  153fsi     F1 1869   0.232   2.783   1.465
  153fsi     S1 1870   0.200   2.634   1.426
  153fsi      N 1871   0.342   2.566   1.432
  153fsi     O1 1872   0.108   2.590   1.526
  153fsi     O2 1873   0.150   2.648   1.291
  153fsi     S2 1874   0.423   2.529   1.561
  153fsi     O3 1875   0.365   2.573   1.684
  153fsi     O4 1876   0.562   2.559   1.540
  153fsi     F2 1877   0.416   2.373   1.571
  154fsi     F1 1878   2.884   1.494   1.515
  154fsi     S1 1879   2.853   1.350   1.461
  154fsi      N 1880   2.845   1.375   1.307
  154fsi     O1 1881   2.963   1.271   1.508
  154fsi     O2 1882   2.724   1.319   1.513
  154fsi     S2 1883   2.962   1.380   1.206
  154fsi     O3 1884   3.053   1.490   1.223
  154fsi     O4 1885   2.916   1.356   1.072
  154fsi     F2 1886   3.042   1.250   1.238
  155fsi     F1 1887   2.147   1.758   0.777
  155fsi     S1 1888   2.020   1.704   0.705
  155fsi      N 1889   2.032   1.549   0.709
  155fsi     O1 1890   1.915   1.758   0.784
  155fsi     O2 1891   2.030   1.755   0.572
  155fsi     S2 1892   2.109   1.470   0.817
  155fsi     O3 1893   2.057   1.488   0.949
  155fsi     O4 1894   2.250   1.483   0.793
  155fsi     F2 1895   2.078   1.321   0.783
  156fsi     F1 1896   2.602   1.782   0.977
  156fsi     S1 1897   2.687   1.900   1.037
  156fsi      N 1898   2.701   1.863   1.188
  156fsi     O1 1899   2.809   1.900   0.961
  156fsi     O2 1900   2.598   2.011   1.022
  156fsi     S2 1901   2.758   1.726   1.240
  156fsi     O3 1902   2.809   1.646   1.133
  156fsi     O4 1903   2.671   1.668   1.338
  156fsi     F2 1904   2.886   1.769   1.321
  157fsi     F1 1905   2.341   1.666   2.842
  157fsi     S1 1906   2.280   1.556   2.749
  157fsi      N 1907   2.326   1.422   2.815
  157fsi     O1 1908   2.138   1.580   2.752
  157fsi     O2 1909   2.343   1.578   2.622
  157fsi     S2 1910   2.265   1.354   2.941
  157fsi     O3 1911   2.185   1.444   3.019
  157fsi     O4 1912   2.357   1.269   3.011
  157fsi     F2 1913   2.161   1.254   2.880
  158fsi     F1 1914   1.847   2.896   2.566
  158fsi     S1 1915   1.975   2.858   2.646
  158fsi      N 1916   1.953   2.925   2.787
  158fsi     O1 1917   1.970   2.715   2.643
  158fsi     O2 1918   2.080   2.919   2.569
  158fsi     S2 1919   1.878   2.875   2.917
  158fsi     O3 1920   1.749   2.817   2.896
  158fsi     O4 1921   1.888   2.970   3.026
  158fsi     F2 1922   1.965   2.756   2.970
  159fsi     F1 1923   1.690   0.184   0.529
  159fsi     S1 1924   1.610   0.299   0.460
  159fsi      N 1925   1.654   0.290   0.312
  159fsi     O1 1926   1.473   0.270   0.496
  159fsi     O2 1927   1.664   0.418   0.519
  159fsi     S2 1928   1.580   0.236   0.184
  159fsi     O3 1929   1.456   0.169   0.211
  159fsi     O4 1930   1.671   0.177   0.091
  159fsi     F2 1931   1.535   0.370   0.114
  160fsi     F1 1932   2.839   2.676   2.775
  160fsi     S1 1933   2.907   2.553   2.846
  160fsi      N 1934   2.799   2.515   2.955
  160fsi     O1 1935   2.924   2.458   2.740
  160fsi     O2 1936   3.025   2.610   2.904
  160fsi     S2 1937   2.689   2.403   2.950
  160fsi     O3 1938   2.629   2.395   2.820
  160fsi     O4 1939   2.599   2.417   3.061
  160fsi     F2 1940   2.766   2.268   2.974
  161fsi     F1 1941   0.004   0.623   1.390
  161fsi     S1 1942  -0.095   0.507   1.431
  161fsi      N 1943  -0.235   0.570   1.403
  161fsi     O1 1944  -0.059   0.399   1.344
  161fsi     O2 1945  -0.069   0.489   1.571
  161fsi     S2 1946  -0.302   0.599   1.264
  161fsi     O3 1947  -0.209   0.605   1.155
  161fsi     O4 1948  -0.403   0.701   1.272
  161fsi     F2 1949  -0.385   0.468   1.241
  162fsi     F1 1950   1.180   1.661   1.514
  162fsi     S1 1951   1.289   1.643   1.404
  162fsi      N 1952   1.342   1.497   1.435
  162fsi     O1 1953   1.216   1.664   1.282
  162fsi     O2 1954   1.387   1.744   1.431
  162fsi     S2 1955   1.315   1.370   1.347
  162fsi     O3 1956   1.198   1.384   1.269
  162fsi     O4 1957   1.321   1.242   1.412
  162fsi     F2 1958   1.437   1.368   1.249
  163fsi     F1 1959   1.765   0.053   2.558
  163fsi     S1 1960   1.725   0.200   2.533
  163fsi      N 1961   1.567   0.197   2.529
  163fsi     O1 1962   1.781   0.269   2.645
  163fsi     O2 1963   1.778   0.227   2.402
  163fsi     S2 1964   1.467   0.212   2.649
  163fsi     O3 1965   1.508   0.157   2.775
  163fsi     O4 1966   1.333   0.181   2.605
  163fsi     F2 1967   1.458   0.366   2.672
  164fsi     F1 1968   0.804   2.369   0.773
  164fsi     S1 1969   0.828   2.313   0.918
  164fsi      N 1970   0.686   2.258   0.955
  164fsi     O1 1971   0.930   2.214   0.902
  164fsi     O2 1972   0.860   2.431   0.992
  164fsi     S2 1973   0.638   2.110   0.951
  164fsi     O3 1974   0.651   2.049   0.822
  164fsi     O4 1975   0.514   2.091   1.020
  164fsi     F2 1976   0.740   2.036   1.039
  165fsi     F1 1977   0.103   1.262   1.024
  165fsi     S1 1978   0.253   1.300   1.033
  165fsi      N 1979   0.260   1.419   1.135
  165fsi     O1 1980   0.318   1.178   1.071
  165fsi     O2 1981   0.277   1.346   0.899
  165fsi     S2 1982   0.275   1.419   1.293
  165fsi     O3 1983   0.187   1.331   1.362
  165fsi     O4 1984   0.289   1.553   1.342
  165fsi     F2 1985   0.416   1.356   1.318
  166fsi     F1 1986   0.745   0.725   1.032
  166fsi     S1 1987   0.835   0.628   0.948
  166fsi      N 1988   0.734   0.521   0.896
  166fsi     O1 1989   0.888   0.703   0.840
  166fsi     O2 1990   0.928   0.574   1.044
  166fsi     S2 1991   0.626   0.539   0.783
  166fsi     O3 1992   0.553   0.662   0.788
  166fsi     O4 1993   0.552   0.419   0.761
  166fsi     F2 1994   0.710   0.554   0.652
  167fsi     F1 1995   1.916   0.815   2.577
  167fsi     S1 1996   1.815   0.710   2.636
  167fsi      N 1997   1.693   0.712   2.535
  167fsi     O1 1998   1.889   0.587   2.635
  167fsi     O2 1999   1.780   0.765   2.762
  167fsi     S2 2000   1.659   0.602   2.431
  167fsi     O3 2001   1.759   0.577   2.333
  167fsi     O4 2002   1.522   0.600   2.384
  167fsi     F2 2003   1.657   0.477   2.518
  168fsi     F1 2004   1.532   2.503   2.295
  168fsi     S1 2005   1.575   2.543   2.151
  168fsi      N 2006   1.437   2.536   2.077
  168fsi     O1 2007   1.631   2.674   2.158
  168fsi     O2 2008   1.667   2.439   2.116
  168fsi     S2 2009   1.326   2.644   2.060
  168fsi     O3 2010   1.335   2.756   2.148
  168fsi     O4 2011   1.195   2.586   2.054
  168fsi     F2 2012   1.353   2.701   1.917
  169fsi     F1 2013   2.556   0.137   0.816
  169fsi     S1 2014   2.710   0.127   0.785
  169fsi      N 2015   2.751   0.274   0.751
  169fsi     O1 2016   2.765   0.074   0.907
  169fsi     O2 2017   2.715   0.042   0.669
  169fsi     S2 2018   2.770   0.393   0.851
  169fsi     O3 2019   2.727   0.360   0.984
  169fsi     O4 2020   2.734   0.520   0.794
  169fsi     F2 2021   2.925   0.403   0.865
  170fsi     F1 2022   1.393   1.025   0.165
  170fsi     S1 2023   1.385   1.162   0.242
  170fsi      N 2024   1.525   1.174   0.313
  170fsi     O1 2025   1.367   1.260   0.139
  170fsi     O2 2026   1.276   1.137   0.331
  170fsi     S2 2027   1.666   1.165   0.246
  170fsi     O3 2028   1.694   1.041   0.180
  170fsi     O4 2029   1.767   1.220   0.333
  170fsi     F2 2030   1.661   1.272   0.130
  171fsi     F1 2031   1.411   2.371   2.614
  171fsi     S1 2032   1.302   2.280   2.671
  171fsi      N 2033   1.365   2.225   2.802
  171fsi     O1 2034   1.188   2.367   2.687
  171fsi     O2 2035   1.295   2.184   2.566
  171fsi     S2 2036   1.367   2.291   2.944
  171fsi     O3 2037   1.343   2.433   2.945
  171fsi     O4 2038   1.474   2.243   3.026
  171fsi     F2 2039   1.240   2.230   3.013
  172fsi     F1 2040   2.894   0.998   2.650
  172fsi     S1 2041   2.922   0.844   2.647
  172fsi      N 2042   2.874   0.803   2.503
  172fsi     O1 2043   3.064   0.836   2.667
  172fsi     O2 2044   2.836   0.793   2.750
  172fsi     S2 2045   2.956   0.785   2.371
  172fsi     O3 2046   3.089   0.839   2.379
  172fsi     O4 2047   2.881   0.810   2.251
  172fsi     F2 2048   2.984   0.630   2.366
  173fsi     F1 2049   1.469   2.606   2.548
  173fsi     S1 2050   1.595   2.692   2.531
  173fsi      N 2051   1.552   2.781   2.409
  173fsi     O1 2052   1.602   2.757   2.659
  173fsi     O2 2053   1.696   2.596   2.498
  173fsi     S2 2054   1.536   2.935   2.403
  173fsi     O3 2055   1.522   2.997   2.531
  173fsi     O4 2056   1.443   2.983   2.304
  173fsi     F2 2057   1.674   2.983   2.347
  174fsi     F1 2058   0.649   0.056   0.424
  174fsi     S1 2059   0.587   0.169   0.514
  174fsi      N 2060   0.456   0.201   0.433
  174fsi     O1 2061   0.573   0.102   0.640
  174fsi     O2 2062   0.687   0.272   0.500
  174fsi     S2 2063   0.305   0.187   0.473
  174fsi     O3 2064   0.275   0.114   0.593
  174fsi     O4 2065   0.222   0.155   0.360
  174fsi     F2 2066   0.264   0.333   0.509
  175fsi     F1 2067   1.451   0.635   1.344
  175fsi     S1 2068   1.430   0.480   1.347
  175fsi      N 2069   1.556   0.433   1.426
  175fsi     O1 2070   1.308   0.461   1.420
  175fsi     O2 2071   1.433   0.438   1.210
  175fsi     S2 2072   1.583   0.451   1.578
  175fsi     O3 2073   1.515   0.558   1.643
  175fsi     O4 2074   1.722   0.441   1.612
  175fsi     F2 2075   1.521   0.321   1.640
  176fsi     F1 2076   0.511   0.925   0.924
  176fsi     S1 2077   0.605   1.014   0.837
  176fsi      N 2078   0.594   1.151   0.910
  176fsi     O1 2079   0.731   0.949   0.848
  176fsi     O2 2080   0.542   1.011   0.708
  176fsi     S2 2081   0.651   1.178   1.053
  176fsi     O3 2082   0.653   1.064   1.140
  176fsi     O4 2083   0.601   1.299   1.108
  176fsi     F2 2084   0.800   1.213   1.023
  177fsi     F1 2085   0.279   0.473   0.274
  177fsi     S1 2086   0.389   0.583   0.295
  177fsi      N 2087   0.524   0.502   0.292
  177fsi     O1 2088   0.373   0.671   0.183
  177fsi     O2 2089   0.363   0.636   0.426
  177fsi     S2 2090   0.603   0.456   0.165
  177fsi     O3 2091   0.523   0.398   0.062
  177fsi     O4 2092   0.725   0.388   0.198
  177fsi     F2 2093   0.656   0.591   0.106
  178fsi     F1 2094   1.794   0.559   0.257
  178fsi     S1 2095   1.826   0.705   0.212
  178fsi      N 2096   1.815   0.781   0.349
  178fsi     O1 2097   1.958   0.697   0.158
  178fsi     O2 2098   1.714   0.731   0.125
  178fsi     S2 2099   1.902   0.779   0.479
  178fsi     O3 2100   1.988   0.664   0.490
  178fsi     O4 2101   1.816   0.794   0.592
  178fsi     F2 2102   1.992   0.906   0.477
  179fsi     F1 2103   1.067   2.126   1.514
  179fsi     S1 2104   1.051   1.971   1.507
  179fsi      N 2105   0.903   1.953   1.463
  179fsi     O1 2106   1.150   1.934   1.411
  179fsi     O2 2107   1.070   1.926   1.641
  179fsi     S2 2108   0.857   1.924   1.318
  179fsi     O3 2109   0.928   2.002   1.222
  179fsi     O4 2110   0.714   1.915   1.305
  179fsi     F2 2111   0.911   1.778   1.296
  180fsi     F1 2112   0.827   1.094   2.781
  180fsi     S1 2113   0.875   1.030   2.917
  180fsi      N 2114   0.751   0.942   2.955
  180fsi     O1 2115   0.991   0.952   2.885
  180fsi     O2 2116   0.891   1.142   3.003
  180fsi     S2 2117   0.730   0.790   2.925
  180fsi     O3 2118   0.772   0.745   2.795
  180fsi     O4 2119   0.599   0.756   2.972
  180fsi     F2 2120   0.828   0.719   3.024
  181fsi     F1 2121   1.223   2.794   0.786
  181fsi     S1 2122   1.231   2.680   0.679
  181fsi      N 2123   1.286   2.560   0.762
  181fsi     O1 2124   1.094   2.669   0.635
  181fsi     O2 2125   1.327   2.733   0.586
  181fsi     S2 2126   1.206   2.458   0.851
  181fsi     O3 2127   1.155   2.519   0.971
  181fsi     O4 2128   1.275   2.332   0.860
  181fsi     F2 2129   1.080   2.424   0.765
  182fsi     F1 2130   2.564   2.906   0.806
  182fsi     S1 2131   2.643   2.772   0.784
  182fsi      N 2132   2.787   2.822   0.746
  182fsi     O1 2133   2.634   2.708   0.912
  182fsi     O2 2134   2.574   2.711   0.674
  182fsi     S2 2135   2.909   2.856   0.839
  182fsi     O3 2136   2.876   2.886   0.976
  182fsi     O4 2137   3.004   2.943   0.775
  182fsi     F2 2138   2.986   2.720   0.847
  183fsi     F1 2139   2.597   0.724   2.457
  183fsi     S1 2140   2.607   0.570   2.475
  183fsi      N 2141   2.627   0.550   2.629
  183fsi     O1 2142   2.482   0.523   2.423
  183fsi     O2 2143   2.721   0.529   2.399
  183fsi     S2 2144   2.533   0.484   2.737
  183fsi     O3 2145   2.407   0.438   2.688
  183fsi     O4 2146   2.538   0.552   2.864
  183fsi     F2 2147   2.609   0.350   2.767
  184fsi     F1 2148   2.606   2.233   2.078
  184fsi     S1 2149   2.492   2.340   2.094
  184fsi      N 2150   2.569   2.466   2.145
  184fsi     O1 2151   2.438   2.347   1.961
  184fsi     O2 2152   2.409   2.284   2.196
  184fsi     S2 2153   2.579   2.609   2.081
  184fsi     O3 2154   2.566   2.613   1.938
  184fsi     O4 2155   2.686   2.686   2.139
  184fsi     F2 2156   2.450   2.681   2.135
  185fsi     F1 2157   2.799   1.663   2.871
  185fsi     S1 2158   2.682   1.567   2.828
  185fsi      N 2159   2.759   1.438   2.778
  185fsi     O1 2160   2.606   1.547   2.948
  185fsi     O2 2161   2.621   1.638   2.719
  185fsi     S2 2162   2.842   1.338   2.865
  185fsi     O3 2163   2.897   1.391   2.987
  185fsi     O4 2164   2.930   1.262   2.780
  185fsi     F2 2165   2.735   1.233   2.911
  186fsi     F1 2166   2.496   2.053   0.101
  186fsi     S1 2167   2.512   1.914   0.172
  186fsi      N 2168   2.651   1.867   0.117
  186fsi     O1 2169   2.512   1.951   0.312
  186fsi     O2 2170   2.400   1.838   0.125
  186fsi     S2 2171   2.795   1.894   0.173
  186fsi     O3 2172   2.801   2.000   0.271
  186fsi     O4 2173   2.896   1.894   0.071
  186fsi     F2 2174   2.823   1.763   0.255
  187fsi     F1 2175   2.264   2.570   1.696
  187fsi     S1 2176   2.132   2.534   1.620
  187fsi      N 2177   2.063   2.673   1.597
  187fsi     O1 2178   2.180   2.473   1.499
  187fsi     O2 2179   2.060   2.454   1.715
  187fsi     S2 2180   2.009   2.729   1.462
  187fsi     O3 2181   2.095   2.712   1.348
  187fsi     O4 2182   1.959   2.863   1.474
  187fsi     F2 2183   1.884   2.640   1.431
  188fsi     F1 2184   0.020   1.717   1.802
  188fsi     S1 2185   0.099   1.640   1.691
  188fsi      N 2186   0.246   1.678   1.731
  188fsi     O1 2187   0.062   1.503   1.712
  188fsi     O2 2188   0.055   1.707   1.571
  188fsi     S2 2189   0.335   1.613   1.843
  188fsi     O3 2190   0.270   1.514   1.923
  188fsi     O4 2191   0.413   1.711   1.914
  188fsi     F2 2192   0.442   1.532   1.761
  189fsi     F1 2193   0.653   2.315   1.407
  189fsi     S1 2194   0.722   2.374   1.279
  189fsi      N 2195   0.788   2.508   1.330
  189fsi     O1 2196   0.810   2.270   1.237
  189fsi     O2 2197   0.608   2.410   1.198
  189fsi     S2 2198   0.940   2.541   1.359
  189fsi     O3 2199   1.038   2.441   1.328
  189fsi     O4 2200   0.955   2.611   1.483
  189fsi     F2 2201   0.971   2.653   1.253
  190fsi     F1 2202   2.076   1.161   1.873
  190fsi     S1 2203   2.117   1.150   2.023
  190fsi      N 2204   2.187   1.011   2.030
  190fsi     O1 2205   2.199   1.266   2.040
  190fsi     O2 2206   1.993   1.144   2.094
  190fsi     S2 2207   2.335   0.977   1.999
  190fsi     O3 2208   2.406   1.074   1.921
  190fsi     O4 2209   2.346   0.840   1.960
  190fsi     F2 2210   2.405   0.983   2.138
  191fsi     F1 2211   0.608   2.034   2.618
  191fsi     S1 2212   0.482   1.967   2.685
  191fsi      N 2213   0.544   1.845   2.761
  191fsi     O1 2214   0.429   2.068   2.772
  191fsi     O2 2215   0.401   1.929   2.573
  191fsi     S2 2216   0.593   1.834   2.910
  191fsi     O3 2217   0.607   1.961   2.976
  191fsi     O4 2218   0.696   1.737   2.927
  191fsi     F2 2219   0.469   1.772   2.982
  192fsi     F1 2220   2.503   0.665   0.651
  192fsi     S1 2221   2.559   0.750   0.532
  192fsi      N 2222   2.454   0.726   0.420
  192fsi     O1 2223   2.557   0.884   0.584
  192fsi     O2 2224   2.685   0.687   0.503
  192fsi     S2 2225   2.315   0.794   0.404
  192fsi     O3 2226   2.270   0.860   0.525
  192fsi     O4 2227   2.223   0.711   0.334
  192fsi     F2 2228   2.346   0.911   0.304
  193fsi     F1 2229   1.482   1.488   2.346
  193fsi     S1 2230   1.607   1.535   2.264
  193fsi      N 2231   1.542   1.624   2.153
  193fsi     O1 2232   1.687   1.609   2.358
  193fsi     O2 2233   1.661   1.411   2.215
  193fsi     S2 2234   1.463   1.757   2.178
  193fsi     O3 2235   1.407   1.770   2.309
  193fsi     O4 2236   1.377   1.799   2.073
  193fsi     F2 2237   1.578   1.862   2.172
  194fsi     F1 2238   0.864   1.020   1.330
  194fsi     S1 2239   0.977   1.008   1.224
  194fsi      N 2240   1.097   0.952   1.307
  194fsi     O1 2241   0.923   0.920   1.125
  194fsi     O2 2242   0.999   1.145   1.193
  194fsi     S2 2243   1.124   0.812   1.372
  194fsi     O3 2244   1.012   0.723   1.385
  194fsi     O4 2245   1.205   0.838   1.488
  194fsi     F2 2246   1.221   0.738   1.275
  195fsi     F1 2247   1.775   0.266   1.380
  195fsi     S1 2248   1.847   0.150   1.455
  195fsi      N 2249   1.998   0.180   1.425
  195fsi     O1 2250   1.811   0.166   1.593
  195fsi     O2 2251   1.800   0.034   1.386
  195fsi     S2 2252   2.095   0.275   1.502
  195fsi     O3 2253   2.035   0.376   1.585
  195fsi     O4 2254   2.202   0.321   1.419
  195fsi     F2 2255   2.163   0.178   1.605
  196fsi     F1 2256   2.487   0.178   2.067
  196fsi     S1 2257   2.413   0.300   2.133
  196fsi      N 2258   2.524   0.412   2.131
  196fsi     O1 2259   2.298   0.319   2.048
  196fsi     O2 2260   2.390   0.254   2.267
  196fsi     S2 2261   2.535   0.543   2.044
  196fsi     O3 2262   2.420   0.564   1.960
  196fsi     O4 2263   2.664   0.559   1.983
  196fsi     F2 2264   2.528   0.659   2.149
  197fsi     F1 2265   1.120   2.260   0.535
  197fsi     S1 2266   1.259   2.268   0.463
  197fsi      N 2267   1.220   2.283   0.312
  197fsi     O1 2268   1.324   2.380   0.523
  197fsi     O2 2269   1.320   2.142   0.490
  197fsi     S2 2270   1.174   2.411   0.235
  197fsi     O3 2271   1.146   2.525   0.318
  197fsi     O4 2272   1.078   2.376   0.134
  197fsi     F2 2273   1.302   2.453   0.155
  198fsi     F1 2274   1.918   1.663   2.069
  198fsi     S1 2275   1.994   1.536   2.017
  198fsi      N 2276   1.964   1.534   1.862
  198fsi     O1 2277   2.128   1.560   2.058
  198fsi     O2 2278   1.922   1.433   2.084
  198fsi     S2 2279   2.055   1.552   1.735
  198fsi     O3 2280   2.191   1.594   1.758
  198fsi     O4 2281   1.985   1.615   1.626
  198fsi     F2 2282   2.068   1.407   1.683
  199fsi     F1 2283   0.555   0.736   2.278
  199fsi     S1 2284   0.640   0.818   2.382
  199fsi      N 2285   0.533   0.849   2.492
  199fsi     O1 2286   0.744   0.727   2.421
  199fsi     O2 2287   0.676   0.934   2.307
  199fsi     S2 2288   0.450   0.745   2.572
  199fsi     O3 2289   0.510   0.614   2.573
  199fsi     O4 2290   0.310   0.757   2.546
  199fsi     F2 2291   0.465   0.794   2.720
  200fsi     F1 2292   1.021   2.610   2.564
  200fsi     S1 2293   1.152   2.680   2.515
  200fsi      N 2294   1.098   2.788   2.413
  200fsi     O1 2295   1.214   2.734   2.632
  200fsi     O2 2296   1.220   2.577   2.441
  200fsi     S2 2297   1.054   2.936   2.443
  200fsi     O3 2298   0.983   2.957   2.567
  200fsi     O4 2299   0.999   2.999   2.326
  200fsi     F2 2300   1.190   3.012   2.463
   3.08570   3.08570   3.08570
