L1P3 short trajectory practice
 2950
    1Li+     Li    1   5.331   5.184   5.916
    2Li+     Li    2   0.975   6.316   6.516
    3Li+     Li    3   4.368   1.555   2.127
    4Li+     Li    4   4.110   1.481   0.699
    5Li+     Li    5   4.861   0.885   6.721
    6Li+     Li    6   2.641   1.644   2.868
    7Li+     Li    7   3.607   6.581   7.006
    8Li+     Li    8   3.791   7.040   1.243
    9Li+     Li    9   2.274   4.844   4.906
   10Li+     Li   10   7.044   5.438   5.788
   11Li+     Li   11   6.530   3.316   5.343
   12Li+     Li   12   6.124   2.612   6.361
   13Li+     Li   13   1.844   6.758   4.081
   14Li+     Li   14   4.559   1.533   3.077
   15Li+     Li   15   1.953   6.759   5.118
   16Li+     Li   16   4.234   6.347   4.990
   17Li+     Li   17   0.963   2.154   4.873
   18Li+     Li   18   5.856   6.095   5.599
   19Li+     Li   19   0.653   4.206   1.845
   20Li+     Li   20   6.273   2.540   1.290
   21Li+     Li   21   1.738   1.647   1.186
   22Li+     Li   22   6.649   6.683   5.637
   23Li+     Li   23   4.211   1.551   3.421
   24Li+     Li   24   5.605   6.020   6.225
   25Li+     Li   25   2.430   5.044   4.478
   26c3c     N4   26   5.035   0.471   2.201
   26c3c     C1   27   4.982   0.345   2.255
   26c3c     C1   28   4.991   0.584   2.286
   26c3c     C2   29   4.894   0.377   2.376
   26c3c     C2   30   4.900   0.529   2.395
   26c3c     C1   31   5.181   0.466   2.203
   26c3c     C1   32   4.990   0.491   2.063
   26c3c     H1   33   5.062   0.276   2.284
   26c3c     H1   34   4.926   0.288   2.182
   26c3c     H1   35   5.075   0.637   2.330
   26c3c     H1   36   4.940   0.661   2.229
   26c3c     HC   37   4.932   0.325   2.464
   26c3c     HC   38   4.792   0.343   2.360
   26c3c     HC   39   4.940   0.554   2.493
   26c3c     HC   40   4.800   0.573   2.389
   26c3c     H1   41   5.219   0.383   2.142
   26c3c     H1   42   5.225   0.558   2.165
   26c3c     H1   43   5.218   0.452   2.305
   26c3c     H1   44   5.032   0.582   2.022
   26c3c     H1   45   5.026   0.410   2.000
   26c3c     C2   46   4.836   0.498   2.054
   26c3c     HC   47   4.794   0.579   2.115
   26c3c     HC   48   4.788   0.407   2.093
   26c3c     CT   49   4.790   0.517   1.912
   26c3c     HC   50   4.824   0.434   1.851
   26c3c     HC   51   4.831   0.611   1.873
   26c3c     HC   52   4.681   0.522   1.910
   27c3c     N4   53   4.804   6.453   2.822
   27c3c     C1   54   4.890   6.340   2.862
   27c3c     C1   55   4.866   6.524   2.709
   27c3c     C2   56   5.017   6.343   2.777
   27c3c     C2   57   5.001   6.460   2.680
   27c3c     C1   58   4.674   6.399   2.779
   27c3c     C1   59   4.783   6.544   2.935
   27c3c     H1   60   4.840   6.244   2.852
   27c3c     H1   61   4.916   6.343   2.968
   27c3c     H1   62   4.803   6.523   2.620
   27c3c     H1   63   4.878   6.631   2.729
   27c3c     HC   64   5.027   6.249   2.723
   27c3c     HC   65   5.105   6.355   2.839
   27c3c     HC   66   5.004   6.426   2.576
   27c3c     HC   67   5.082   6.533   2.692
   27c3c     H1   68   4.625   6.344   2.858
   27c3c     H1   69   4.607   6.479   2.747
   27c3c     H1   70   4.687   6.331   2.695
   27c3c     H1   71   4.716   6.625   2.906
   27c3c     H1   72   4.733   6.491   3.017
   27c3c     C2   73   4.916   6.603   2.986
   27c3c     HC   74   4.969   6.659   2.908
   27c3c     HC   75   4.986   6.526   3.018
   27c3c     CT   76   4.893   6.697   3.102
   27c3c     HC   77   4.847   6.643   3.184
   27c3c     HC   78   4.829   6.779   3.071
   27c3c     HC   79   4.989   6.737   3.135
   28c3c     N4   80   2.387   1.684   5.041
   28c3c     C1   81   2.349   1.571   5.127
   28c3c     C1   82   2.503   1.647   4.959
   28c3c     C2   83   2.449   1.457   5.105
   28c3c     C2   84   2.547   1.505   4.999
   28c3c     C1   85   2.275   1.716   4.952
   28c3c     C1   86   2.418   1.802   5.123
   28c3c     H1   87   2.247   1.537   5.107
   28c3c     H1   88   2.345   1.597   5.233
   28c3c     H1   89   2.482   1.652   4.852
   28c3c     H1   90   2.587   1.716   4.970
   28c3c     HC   91   2.396   1.368   5.072
   28c3c     HC   92   2.500   1.433   5.198
   28c3c     HC   93   2.545   1.441   4.911
   28c3c     HC   94   2.649   1.506   5.036
   28c3c     H1   95   2.186   1.743   5.009
   28c3c     H1   96   2.299   1.799   4.886
   28c3c     H1   97   2.250   1.630   4.890
   28c3c     H1   98   2.443   1.887   5.059
   28c3c     H1   99   2.331   1.831   5.181
   28c3c     C2  100   2.536   1.775   5.219
   28c3c     HC  101   2.627   1.746   5.166
   28c3c     HC  102   2.516   1.692   5.287
   28c3c     CT  103   2.567   1.896   5.303
   28c3c     HC  104   2.480   1.923   5.362
   28c3c     HC  105   2.595   1.979   5.238
   28c3c     HC  106   2.651   1.873   5.369
   29c3c     N4  107   6.324   3.909   5.505
   29c3c     C1  108   6.458   3.847   5.506
   29c3c     C1  109   6.237   3.839   5.602
   29c3c     C2  110   6.456   3.728   5.602
   29c3c     C2  111   6.316   3.723   5.663
   29c3c     C1  112   6.337   4.049   5.545
   29c3c     C1  113   6.266   3.902   5.370
   29c3c     H1  114   6.536   3.918   5.534
   29c3c     H1  115   6.490   3.814   5.407
   29c3c     H1  116   6.201   3.906   5.680
   29c3c     H1  117   6.145   3.803   5.557
   29c3c     HC  118   6.532   3.742   5.679
   29c3c     HC  119   6.479   3.635   5.550
   29c3c     HC  120   6.319   3.735   5.771
   29c3c     HC  121   6.267   3.628   5.642
   29c3c     H1  122   6.402   4.104   5.476
   29c3c     H1  123   6.240   4.099   5.547
   29c3c     H1  124   6.380   4.057   5.644
   29c3c     H1  125   6.169   3.951   5.369
   29c3c     H1  126   6.328   3.956   5.299
   29c3c     C2  127   6.250   3.756   5.322
   29c3c     HC  128   6.186   3.698   5.389
   29c3c     HC  129   6.345   3.703   5.320
   29c3c     CT  130   6.190   3.750   5.184
   29c3c     HC  131   6.254   3.803   5.114
   29c3c     HC  132   6.091   3.797   5.185
   29c3c     HC  133   6.179   3.646   5.153
   30c3c     N4  134   1.697   2.525   1.208
   30c3c     C1  135   1.648   2.386   1.214
   30c3c     C1  136   1.798   2.546   1.313
   30c3c     C2  137   1.715   2.316   1.331
   30c3c     C2  138   1.811   2.417   1.394
   30c3c     C1  139   1.759   2.548   1.078
   30c3c     C1  140   1.586   2.619   1.226
   30c3c     H1  141   1.667   2.332   1.121
   30c3c     H1  142   1.539   2.381   1.223
   30c3c     H1  143   1.895   2.574   1.271
   30c3c     H1  144   1.775   2.629   1.379
   30c3c     HC  145   1.768   2.228   1.296
   30c3c     HC  146   1.641   2.282   1.404
   30c3c     HC  147   1.913   2.381   1.391
   30c3c     HC  148   1.786   2.435   1.499
   30c3c     H1  149   1.687   2.533   0.997
   30c3c     H1  150   1.798   2.649   1.069
   30c3c     H1  151   1.842   2.479   1.062
   30c3c     H1  152   1.622   2.722   1.218
   30c3c     H1  153   1.513   2.606   1.146
   30c3c     C2  154   1.516   2.600   1.363
   30c3c     HC  155   1.585   2.614   1.446
   30c3c     HC  156   1.476   2.500   1.375
   30c3c     CT  157   1.402   2.697   1.380
   30c3c     HC  158   1.328   2.682   1.301
   30c3c     HC  159   1.440   2.800   1.375
   30c3c     HC  160   1.356   2.681   1.477
   31c3c     N4  161   1.245   2.962   4.421
   31c3c     C1  162   1.288   2.828   4.376
   31c3c     C1  163   1.317   3.065   4.344
   31c3c     C2  164   1.397   2.845   4.270
   31c3c     C2  165   1.415   2.995   4.250
   31c3c     C1  166   1.102   2.976   4.397
   31c3c     C1  167   1.272   2.978   4.565
   31c3c     H1  168   1.204   2.770   4.336
   31c3c     H1  169   1.324   2.766   4.457
   31c3c     H1  170   1.249   3.129   4.288
   31c3c     H1  171   1.370   3.136   4.408
   31c3c     HC  172   1.366   2.796   4.177
   31c3c     HC  173   1.489   2.798   4.302
   31c3c     HC  174   1.394   3.024   4.147
   31c3c     HC  175   1.518   3.025   4.271
   31c3c     H1  176   1.045   2.901   4.452
   31c3c     H1  177   1.066   3.074   4.429
   31c3c     H1  178   1.079   2.965   4.291
   31c3c     H1  179   1.237   3.075   4.599
   31c3c     H1  180   1.216   2.903   4.622
   31c3c     C2  181   1.422   2.963   4.597
   31c3c     HC  182   1.483   3.036   4.543
   31c3c     HC  183   1.462   2.866   4.566
   31c3c     CT  184   1.449   2.980   4.744
   31c3c     HC  185   1.395   2.904   4.800
   31c3c     HC  186   1.416   3.079   4.777
   31c3c     HC  187   1.555   2.969   4.763
   32c3c     N4  188   1.762   6.620   6.184
   32c3c     C1  189   1.749   6.476   6.155
   32c3c     C1  190   1.634   6.671   6.237
   32c3c     C2  191   1.604   6.434   6.182
   32c3c     C2  192   1.532   6.558   6.234
   32c3c     C1  193   1.865   6.637   6.286
   32c3c     C1  194   1.801   6.693   6.063
   32c3c     H1  195   1.818   6.416   6.213
   32c3c     H1  196   1.776   6.452   6.052
   32c3c     H1  197   1.645   6.711   6.338
   32c3c     H1  198   1.597   6.757   6.181
   32c3c     HC  199   1.603   6.354   6.256
   32c3c     HC  200   1.557   6.396   6.092
   32c3c     HC  201   1.493   6.541   6.335
   32c3c     HC  202   1.447   6.584   6.171
   32c3c     H1  203   1.962   6.600   6.252
   32c3c     H1  204   1.878   6.742   6.313
   32c3c     H1  205   1.839   6.584   6.377
   32c3c     H1  206   1.814   6.799   6.087
   32c3c     H1  207   1.897   6.658   6.027
   32c3c     C2  208   1.695   6.679   5.951
   32c3c     HC  209   1.597   6.715   5.982
   32c3c     HC  210   1.679   6.575   5.923
   32c3c     CT  211   1.736   6.755   5.828
   32c3c     HC  212   1.831   6.717   5.791
   32c3c     HC  213   1.746   6.861   5.852
   32c3c     HC  214   1.659   6.743   5.751
   33c3c     N4  215   6.401   4.599   1.714
   33c3c     C1  216   6.537   4.562   1.755
   33c3c     C1  217   6.395   4.607   1.567
   33c3c     C2  218   6.625   4.552   1.630
   33c3c     C2  219   6.534   4.581   1.511
   33c3c     C1  220   6.308   4.496   1.759
   33c3c     C1  221   6.363   4.728   1.773
   33c3c     H1  222   6.539   4.468   1.810
   33c3c     H1  223   6.581   4.633   1.826
   33c3c     H1  224   6.323   4.536   1.525
   33c3c     H1  225   6.357   4.703   1.531
   33c3c     HC  226   6.668   4.452   1.623
   33c3c     HC  227   6.707   4.623   1.635
   33c3c     HC  228   6.531   4.496   1.442
   33c3c     HC  229   6.570   4.667   1.454
   33c3c     H1  230   6.310   4.485   1.868
   33c3c     H1  231   6.206   4.518   1.729
   33c3c     H1  232   6.334   4.399   1.716
   33c3c     H1  233   6.261   4.753   1.745
   33c3c     H1  234   6.364   4.721   1.882
   33c3c     C2  235   6.458   4.841   1.729
   33c3c     HC  236   6.459   4.854   1.620
   33c3c     HC  237   6.562   4.822   1.756
   33c3c     CT  238   6.418   4.973   1.790
   33c3c     HC  239   6.422   4.966   1.899
   33c3c     HC  240   6.317   4.999   1.760
   33c3c     HC  241   6.487   5.051   1.757
   34c3c     N4  242   5.935   2.658   5.733
   34c3c     C1  243   5.819   2.703   5.812
   34c3c     C1  244   5.889   2.583   5.615
   34c3c     C2  245   5.692   2.649   5.746
   34c3c     C2  246   5.736   2.573   5.621
   34c3c     C1  247   6.010   2.775   5.687
   34c3c     C1  248   6.023   2.574   5.815
   34c3c     H1  249   5.815   2.812   5.819
   34c3c     H1  250   5.824   2.671   5.916
   34c3c     H1  251   5.920   2.629   5.522
   34c3c     H1  252   5.933   2.483   5.608
   34c3c     HC  253   5.626   2.732   5.720
   34c3c     HC  254   5.638   2.584   5.814
   34c3c     HC  255   5.693   2.616   5.531
   34c3c     HC  256   5.705   2.468   5.626
   34c3c     H1  257   6.046   2.835   5.771
   34c3c     H1  258   6.096   2.746   5.627
   34c3c     H1  259   5.947   2.839   5.626
   34c3c     H1  260   6.110   2.543   5.758
   34c3c     H1  261   6.060   2.631   5.900
   34c3c     C2  262   5.950   2.448   5.867
   34c3c     HC  263   5.912   2.386   5.785
   34c3c     HC  264   5.862   2.473   5.926
   34c3c     CT  265   6.041   2.363   5.951
   34c3c     HC  266   6.076   2.419   6.038
   34c3c     HC  267   6.126   2.330   5.892
   34c3c     HC  268   5.986   2.275   5.985
   35c3c     N4  269   2.183   6.791   2.261
   35c3c     C1  270   2.112   6.871   2.362
   35c3c     C1  271   2.311   6.855   2.228
   35c3c     C2  272   2.195   6.996   2.391
   35c3c     C2  273   2.321   6.986   2.306
   35c3c     C1  274   2.209   6.658   2.316
   35c3c     C1  275   2.101   6.777   2.140
   35c3c     H1  276   2.095   6.815   2.454
   35c3c     H1  277   2.011   6.899   2.331
   35c3c     H1  278   2.396   6.791   2.251
   35c3c     H1  279   2.323   6.874   2.121
   35c3c     HC  280   2.219   7.000   2.497
   35c3c     HC  281   2.139   7.086   2.367
   35c3c     HC  282   2.411   6.985   2.368
   35c3c     HC  283   2.330   7.071   2.238
   35c3c     H1  284   2.117   6.607   2.343
   35c3c     H1  285   2.263   6.595   2.245
   35c3c     H1  286   2.271   6.665   2.406
   35c3c     H1  287   2.152   6.715   2.067
   35c3c     H1  288   2.007   6.726   2.164
   35c3c     C2  289   2.069   6.915   2.077
   35c3c     HC  290   2.159   6.969   2.049
   35c3c     HC  291   2.016   6.981   2.146
   35c3c     CT  292   1.985   6.900   1.953
   35c3c     HC  293   1.890   6.851   1.978
   35c3c     HC  294   2.037   6.840   1.879
   35c3c     HC  295   1.964   6.998   1.911
   36c3c     N4  296   1.173   5.980   1.940
   36c3c     C1  297   1.187   6.041   1.807
   36c3c     C1  298   1.292   5.899   1.970
   36c3c     C2  299   1.318   5.992   1.745
   36c3c     C2  300   1.384   5.901   1.848
   36c3c     C1  301   1.163   6.087   2.040
   36c3c     C1  302   1.052   5.898   1.946
   36c3c     H1  303   1.186   6.150   1.811
   36c3c     H1  304   1.103   6.019   1.741
   36c3c     H1  305   1.346   5.934   2.058
   36c3c     H1  306   1.268   5.796   1.997
   36c3c     HC  307   1.381   6.077   1.720
   36c3c     HC  308   1.298   5.938   1.652
   36c3c     HC  309   1.482   5.940   1.877
   36c3c     HC  310   1.399   5.801   1.809
   36c3c     H1  311   1.077   6.151   2.021
   36c3c     H1  312   1.154   6.047   2.141
   36c3c     H1  313   1.252   6.150   2.038
   36c3c     H1  314   1.041   5.856   2.046
   36c3c     H1  315   0.964   5.959   1.928
   36c3c     C2  316   1.057   5.783   1.843
   36c3c     HC  317   1.143   5.717   1.858
   36c3c     HC  318   1.067   5.819   1.741
   36c3c     CT  319   0.932   5.698   1.850
   36c3c     HC  320   0.845   5.760   1.829
   36c3c     HC  321   0.923   5.655   1.949
   36c3c     HC  322   0.939   5.618   1.776
   37c3c     N4  323   1.740   2.851   6.382
   37c3c     C1  324   1.724   2.991   6.424
   37c3c     C1  325   1.608   2.788   6.369
   37c3c     C2  326   1.576   3.018   6.447
   37c3c     C2  327   1.502   2.889   6.412
   37c3c     C1  328   1.806   2.848   6.251
   37c3c     C1  329   1.823   2.778   6.478
   37c3c     H1  330   1.765   3.061   6.351
   37c3c     H1  331   1.781   3.015   6.514
   37c3c     H1  332   1.588   2.753   6.268
   37c3c     H1  333   1.599   2.697   6.429
   37c3c     HC  334   1.543   3.101   6.383
   37c3c     HC  335   1.557   3.048   6.550
   37c3c     HC  336   1.431   2.905   6.331
   37c3c     HC  337   1.445   2.852   6.498
   37c3c     H1  338   1.904   2.895   6.255
   37c3c     H1  339   1.819   2.746   6.215
   37c3c     H1  340   1.746   2.902   6.177
   37c3c     H1  341   1.837   2.675   6.445
   37c3c     H1  342   1.922   2.822   6.485
   37c3c     C2  343   1.759   2.777   6.619
   37c3c     HC  344   1.660   2.731   6.619
   37c3c     HC  345   1.743   2.877   6.658
   37c3c     CT  346   1.844   2.702   6.717
   37c3c     HC  347   1.942   2.748   6.725
   37c3c     HC  348   1.856   2.598   6.685
   37c3c     HC  349   1.796   2.703   6.815
   38c3c     N4  350   0.533   1.522   0.923
   38c3c     C1  351   0.680   1.510   0.921
   38c3c     C1  352   0.472   1.388   0.926
   38c3c     C2  353   0.716   1.362   0.915
   38c3c     C2  354   0.584   1.284   0.918
   38c3c     C1  355   0.494   1.594   1.044
   38c3c     C1  356   0.486   1.597   0.806
   38c3c     H1  357   0.726   1.557   1.007
   38c3c     H1  358   0.725   1.563   0.837
   38c3c     H1  359   0.412   1.372   1.015
   38c3c     H1  360   0.401   1.372   0.845
   38c3c     HC  361   0.779   1.336   1.000
   38c3c     HC  362   0.772   1.339   0.824
   38c3c     HC  363   0.579   1.218   1.005
   38c3c     HC  364   0.573   1.222   0.829
   38c3c     H1  365   0.537   1.694   1.047
   38c3c     H1  366   0.385   1.605   1.051
   38c3c     H1  367   0.527   1.541   1.133
   38c3c     H1  368   0.378   1.609   0.809
   38c3c     H1  369   0.528   1.697   0.805
   38c3c     C2  370   0.524   1.525   0.674
   38c3c     HC  371   0.483   1.425   0.668
   38c3c     HC  372   0.632   1.512   0.664
   38c3c     CT  373   0.476   1.602   0.554
   38c3c     HC  374   0.521   1.702   0.553
   38c3c     HC  375   0.367   1.612   0.557
   38c3c     HC  376   0.505   1.549   0.463
   39c3c     N4  377   3.851   6.458   5.650
   39c3c     C1  378   3.772   6.516   5.760
   39c3c     C1  379   3.859   6.312   5.666
   39c3c     C2  380   3.734   6.403   5.856
   39c3c     C2  381   3.789   6.274   5.796
   39c3c     C1  382   3.783   6.488   5.523
   39c3c     C1  383   3.985   6.517   5.647
   39c3c     H1  384   3.683   6.567   5.725
   39c3c     H1  385   3.825   6.594   5.814
   39c3c     H1  386   3.815   6.259   5.582
   39c3c     H1  387   3.962   6.276   5.667
   39c3c     HC  388   3.625   6.398   5.866
   39c3c     HC  389   3.775   6.421   5.955
   39c3c     HC  390   3.709   6.203   5.775
   39c3c     HC  391   3.859   6.225   5.865
   39c3c     H1  392   3.773   6.596   5.508
   39c3c     H1  393   3.837   6.446   5.439
   39c3c     H1  394   3.683   6.445   5.523
   39c3c     H1  395   4.042   6.477   5.563
   39c3c     H1  396   3.979   6.625   5.632
   39c3c     C2  397   4.062   6.489   5.778
   39c3c     HC  398   4.073   6.383   5.798
   39c3c     HC  399   4.010   6.529   5.866
   39c3c     CT  400   4.200   6.550   5.774
   39c3c     HC  401   4.193   6.658   5.762
   39c3c     HC  402   4.257   6.508   5.692
   39c3c     HC  403   4.251   6.529   5.868
   40c3c     N4  404   6.624   2.664   6.340
   40c3c     C1  405   6.509   2.574   6.324
   40c3c     C1  406   6.705   2.662   6.217
   40c3c     C2  407   6.520   2.505   6.188
   40c3c     C2  408   6.644   2.561   6.120
   40c3c     C1  409   6.575   2.800   6.362
   40c3c     C1  410   6.706   2.623   6.455
   40c3c     H1  411   6.414   2.627   6.333
   40c3c     H1  412   6.504   2.499   6.403
   40c3c     H1  413   6.712   2.761   6.171
   40c3c     H1  414   6.810   2.637   6.236
   40c3c     HC  415   6.430   2.526   6.129
   40c3c     HC  416   6.527   2.397   6.199
   40c3c     HC  417   6.619   2.611   6.026
   40c3c     HC  418   6.715   2.482   6.096
   40c3c     H1  419   6.514   2.806   6.452
   40c3c     H1  420   6.657   2.870   6.373
   40c3c     H1  421   6.515   2.833   6.278
   40c3c     H1  422   6.789   2.692   6.469
   40c3c     H1  423   6.647   2.628   6.547
   40c3c     C2  424   6.761   2.480   6.438
   40c3c     HC  425   6.823   2.470   6.349
   40c3c     HC  426   6.682   2.406   6.425
   40c3c     CT  427   6.844   2.439   6.557
   40c3c     HC  428   6.783   2.441   6.647
   40c3c     HC  429   6.929   2.507   6.568
   40c3c     HC  430   6.881   2.338   6.541
   41c3c     N4  431   0.991   1.870   3.181
   41c3c     C1  432   0.969   1.831   3.322
   41c3c     C1  433   0.863   1.865   3.109
   41c3c     C2  434   0.822   1.793   3.339
   41c3c     C2  435   0.755   1.815   3.204
   41c3c     C1  436   1.042   2.007   3.178
   41c3c     C1  437   1.089   1.780   3.119
   41c3c     H1  438   0.996   1.911   3.391
   41c3c     H1  439   1.033   1.749   3.353
   41c3c     H1  440   0.835   1.962   3.068
   41c3c     H1  441   0.867   1.802   3.020
   41c3c     HC  442   0.777   1.856   3.416
   41c3c     HC  443   0.813   1.689   3.372
   41c3c     HC  444   0.675   1.888   3.211
   41c3c     HC  445   0.711   1.722   3.167
   41c3c     H1  446   1.137   2.015   3.232
   41c3c     H1  447   1.059   2.040   3.075
   41c3c     H1  448   0.971   2.075   3.224
   41c3c     H1  449   1.107   1.811   3.016
   41c3c     H1  450   1.184   1.786   3.170
   41c3c     C2  451   1.040   1.634   3.119
   41c3c     HC  452   0.945   1.621   3.067
   41c3c     HC  453   1.021   1.597   3.220
   41c3c     CT  454   1.141   1.542   3.055
   41c3c     HC  455   1.236   1.547   3.109
   41c3c     HC  456   1.157   1.572   2.951
   41c3c     HC  457   1.104   1.440   3.056
   42c3c     N4  458   3.504   6.099   2.527
   42c3c     C1  459   3.432   6.227   2.510
   42c3c     C1  460   3.432   6.015   2.624
   42c3c     C2  461   3.312   6.228   2.604
   42c3c     C2  462   3.312   6.094   2.677
   42c3c     C1  463   3.508   6.030   2.398
   42c3c     C1  464   3.641   6.124   2.573
   42c3c     H1  465   3.399   6.242   2.407
   42c3c     H1  466   3.495   6.314   2.528
   42c3c     H1  467   3.399   5.921   2.579
   42c3c     H1  468   3.495   5.982   2.706
   42c3c     HC  469   3.220   6.242   2.547
   42c3c     HC  470   3.319   6.311   2.675
   42c3c     HC  471   3.220   6.038   2.657
   42c3c     HC  472   3.319   6.107   2.785
   42c3c     H1  473   3.560   6.089   2.322
   42c3c     H1  474   3.559   5.934   2.406
   42c3c     H1  475   3.408   6.010   2.361
   42c3c     H1  476   3.695   6.030   2.582
   42c3c     H1  477   3.695   6.183   2.499
   42c3c     C2  478   3.643   6.197   2.709
   42c3c     HC  479   3.591   6.141   2.787
   42c3c     HC  480   3.592   6.293   2.705
   42c3c     CT  481   3.784   6.222   2.756
   42c3c     HC  482   3.837   6.283   2.683
   42c3c     HC  483   3.836   6.127   2.767
   42c3c     HC  484   3.782   6.273   2.852
   43c3c     N4  485   4.652   4.759   4.408
   43c3c     C1  486   4.798   4.750   4.426
   43c3c     C1  487   4.611   4.901   4.412
   43c3c     C2  488   4.853   4.890   4.449
   43c3c     C2  489   4.735   4.986   4.440
   43c3c     C1  490   4.616   4.704   4.278
   43c3c     C1  491   4.583   4.684   4.513
   43c3c     H1  492   4.846   4.703   4.340
   43c3c     H1  493   4.826   4.684   4.509
   43c3c     H1  494   4.564   4.932   4.319
   43c3c     H1  495   4.534   4.921   4.486
   43c3c     HC  496   4.928   4.913   4.373
   43c3c     HC  497   4.902   4.897   4.546
   43c3c     HC  498   4.749   5.058   4.359
   43c3c     HC  499   4.723   5.043   4.532
   43c3c     H1  500   4.646   4.599   4.270
   43c3c     H1  501   4.509   4.710   4.260
   43c3c     H1  502   4.667   4.758   4.198
   43c3c     H1  503   4.475   4.689   4.498
   43c3c     H1  504   4.610   4.579   4.508
   43c3c     C2  505   4.616   4.739   4.654
   43c3c     HC  506   4.589   4.844   4.665
   43c3c     HC  507   4.723   4.735   4.676
   43c3c     CT  508   4.544   4.661   4.761
   43c3c     HC  509   4.574   4.556   4.757
   43c3c     HC  510   4.436   4.668   4.747
   43c3c     HC  511   4.570   4.702   4.859
   44c3c     N4  512   5.305   6.771   1.303
   44c3c     C1  513   5.205   6.682   1.241
   44c3c     C1  514   5.263   6.911   1.287
   44c3c     C2  515   5.097   6.768   1.176
   44c3c     C2  516   5.133   6.914   1.206
   44c3c     C1  517   5.313   6.740   1.446
   44c3c     C1  518   5.436   6.750   1.242
   44c3c     H1  519   5.160   6.613   1.314
   44c3c     H1  520   5.248   6.615   1.168
   44c3c     H1  521   5.248   6.961   1.383
   44c3c     H1  522   5.339   6.973   1.239
   44c3c     HC  523   4.999   6.743   1.218
   44c3c     HC  524   5.092   6.750   1.069
   44c3c     HC  525   5.055   6.963   1.263
   44c3c     HC  526   5.147   6.970   1.113
   44c3c     H1  527   5.343   6.636   1.463
   44c3c     H1  528   5.385   6.804   1.496
   44c3c     H1  529   5.216   6.755   1.494
   44c3c     H1  530   5.511   6.813   1.290
   44c3c     H1  531   5.469   6.647   1.257
   44c3c     C2  532   5.434   6.781   1.091
   44c3c     HC  533   5.404   6.883   1.070
   44c3c     HC  534   5.362   6.719   1.037
   44c3c     CT  535   5.570   6.759   1.028
   44c3c     HC  536   5.600   6.656   1.041
   44c3c     HC  537   5.643   6.825   1.075
   44c3c     HC  538   5.565   6.782   0.922
   45c3c     N4  539   1.001   1.302   3.627
   45c3c     C1  540   1.087   1.192   3.581
   45c3c     C1  541   1.080   1.425   3.640
   45c3c     C2  542   1.230   1.244   3.570
   45c3c     C2  543   1.226   1.392   3.608
   45c3c     C1  544   0.895   1.324   3.528
   45c3c     C1  545   0.939   1.267   3.756
   45c3c     H1  546   1.054   1.151   3.485
   45c3c     H1  547   1.084   1.105   3.646
   45c3c     H1  548   1.044   1.504   3.576
   45c3c     H1  549   1.073   1.469   3.740
   45c3c     HC  550   1.267   1.231   3.468
   45c3c     HC  551   1.297   1.189   3.636
   45c3c     HC  552   1.260   1.455   3.525
   45c3c     HC  553   1.291   1.413   3.693
   45c3c     H1  554   0.835   1.235   3.514
   45c3c     H1  555   0.829   1.405   3.558
   45c3c     H1  556   0.939   1.350   3.432
   45c3c     H1  557   0.873   1.347   3.789
   45c3c     H1  558   0.878   1.178   3.745
   45c3c     C2  559   1.046   1.242   3.865
   45c3c     HC  560   1.109   1.329   3.881
   45c3c     HC  561   1.114   1.162   3.838
   45c3c     CT  562   0.982   1.206   3.997
   45c3c     HC  563   0.922   1.116   3.986
   45c3c     HC  564   0.917   1.288   4.030
   45c3c     HC  565   1.059   1.190   4.071
   46c3c     N4  566   2.320   1.295   3.323
   46c3c     C1  567   2.381   1.415   3.381
   46c3c     C1  568   2.174   1.300   3.342
   46c3c     C2  569   2.272   1.499   3.447
   46c3c     C2  570   2.140   1.426   3.422
   46c3c     C1  571   2.349   1.291   3.180
   46c3c     C1  572   2.375   1.174   3.386
   46c3c     H1  573   2.435   1.474   3.307
   46c3c     H1  574   2.459   1.392   3.454
   46c3c     H1  575   2.120   1.300   3.247
   46c3c     H1  576   2.134   1.212   3.392
   46c3c     HC  577   2.271   1.599   3.403
   46c3c     HC  578   2.290   1.511   3.553
   46c3c     HC  579   2.071   1.488   3.365
   46c3c     HC  580   2.091   1.400   3.515
   46c3c     H1  581   2.456   1.288   3.161
   46c3c     H1  582   2.304   1.204   3.132
   46c3c     H1  583   2.309   1.380   3.131
   46c3c     H1  584   2.331   1.085   3.340
   46c3c     H1  585   2.482   1.168   3.369
   46c3c     C2  586   2.347   1.171   3.538
   46c3c     HC  587   2.241   1.175   3.561
   46c3c     HC  588   2.390   1.257   3.589
   46c3c     CT  589   2.404   1.047   3.601
   46c3c     HC  590   2.512   1.043   3.586
   46c3c     HC  591   2.358   0.958   3.557
   46c3c     HC  592   2.383   1.048   3.708
   47c3c     N4  593   4.929   5.798   4.967
   47c3c     C1  594   4.831   5.891   4.908
   47c3c     C1  595   4.980   5.853   5.093
   47c3c     C2  596   4.824   6.016   4.996
   47c3c     C2  597   4.919   5.992   5.114
   47c3c     C1  598   4.861   5.671   4.995
   47c3c     C1  599   5.039   5.774   4.873
   47c3c     H1  600   4.732   5.846   4.898
   47c3c     H1  601   4.856   5.919   4.806
   47c3c     H1  602   4.958   5.789   5.178
   47c3c     H1  603   5.089   5.860   5.095
   47c3c     HC  604   4.722   6.031   5.031
   47c3c     HC  605   4.853   6.105   4.940
   47c3c     HC  606   4.865   5.994   5.209
   47c3c     HC  607   4.996   6.068   5.118
   47c3c     H1  608   4.821   5.627   4.904
   47c3c     H1  609   4.930   5.599   5.040
   47c3c     H1  610   4.779   5.686   5.065
   47c3c     H1  611   5.109   5.702   4.915
   47c3c     H1  612   5.001   5.730   4.781
   47c3c     C2  613   5.114   5.904   4.839
   47c3c     HC  614   5.156   5.953   4.927
   47c3c     HC  615   5.049   5.980   4.794
   47c3c     CT  616   5.227   5.879   4.743
   47c3c     HC  617   5.188   5.837   4.650
   47c3c     HC  618   5.298   5.809   4.787
   47c3c     HC  619   5.278   5.973   4.721
   48c3c     N4  620   5.121   6.331   3.464
   48c3c     C1  621   5.111   6.475   3.492
   48c3c     C1  622   4.989   6.269   3.484
   48c3c     C2  623   4.969   6.507   3.539
   48c3c     C2  624   4.892   6.376   3.534
   48c3c     C1  625   5.161   6.312   3.325
   48c3c     C1  626   5.220   6.268   3.552
   48c3c     H1  627   5.137   6.536   3.405
   48c3c     H1  628   5.184   6.508   3.567
   48c3c     H1  629   4.951   6.222   3.393
   48c3c     H1  630   4.992   6.185   3.554
   48c3c     HC  631   4.925   6.582   3.474
   48c3c     HC  632   4.970   6.548   3.640
   48c3c     HC  633   4.807   6.383   3.466
   48c3c     HC  634   4.852   6.349   3.632
   48c3c     H1  635   5.258   6.358   3.305
   48c3c     H1  636   5.168   6.207   3.299
   48c3c     H1  637   5.088   6.358   3.257
   48c3c     H1  638   5.230   6.162   3.528
   48c3c     H1  639   5.319   6.312   3.534
   48c3c     C2  640   5.183   6.284   3.701
   48c3c     HC  641   5.087   6.240   3.724
   48c3c     HC  642   5.175   6.389   3.730
   48c3c     CT  643   5.286   6.220   3.790
   48c3c     HC  644   5.384   6.266   3.774
   48c3c     HC  645   5.293   6.113   3.768
   48c3c     HC  646   5.257   6.233   3.894
   49c3c     N4  647   4.532   4.904   6.283
   49c3c     C1  648   4.398   4.896   6.221
   49c3c     C1  649   4.534   4.821   6.405
   49c3c     C2  650   4.308   4.811   6.311
   49c3c     C2  651   4.395   4.763   6.427
   49c3c     C1  652   4.630   4.851   6.189
   49c3c     C1  653   4.566   5.043   6.315
   49c3c     H1  654   4.402   4.855   6.121
   49c3c     H1  655   4.354   4.995   6.206
   49c3c     H1  656   4.608   4.741   6.399
   49c3c     H1  657   4.567   4.876   6.493
   49c3c     HC  658   4.269   4.727   6.254
   49c3c     HC  659   4.223   4.869   6.347
   49c3c     HC  660   4.400   4.654   6.430
   49c3c     HC  661   4.354   4.796   6.523
   49c3c     H1  662   4.631   4.909   6.096
   49c3c     H1  663   4.731   4.854   6.231
   49c3c     H1  664   4.608   4.748   6.163
   49c3c     H1  665   4.666   5.048   6.358
   49c3c     H1  666   4.567   5.103   6.225
   49c3c     C2  667   4.465   5.104   6.415
   49c3c     HC  668   4.461   5.048   6.509
   49c3c     HC  669   4.363   5.103   6.377
   49c3c     CT  670   4.500   5.247   6.448
   49c3c     HC  671   4.499   5.307   6.357
   49c3c     HC  672   4.600   5.251   6.493
   49c3c     HC  673   4.428   5.287   6.518
   50c3c     N4  674   4.255   0.916   1.967
   50c3c     C1  675   4.269   1.063   1.967
   50c3c     C1  676   4.113   0.880   1.953
   50c3c     C2  677   4.130   1.125   1.960
   50c3c     C2  678   4.031   1.009   1.951
   50c3c     C1  679   4.329   0.862   1.853
   50c3c     C1  680   4.310   0.860   2.091
   50c3c     H1  681   4.331   1.098   1.885
   50c3c     H1  682   4.322   1.100   2.055
   50c3c     H1  683   4.094   0.821   1.864
   50c3c     H1  684   4.078   0.814   2.033
   50c3c     HC  685   4.122   1.189   1.873
   50c3c     HC  686   4.110   1.186   2.048
   50c3c     HC  687   3.972   1.013   1.859
   50c3c     HC  688   3.960   1.011   2.035
   50c3c     H1  689   4.435   0.887   1.858
   50c3c     H1  690   4.320   0.753   1.848
   50c3c     H1  691   4.290   0.902   1.760
   50c3c     H1  692   4.303   0.751   2.089
   50c3c     H1  693   4.416   0.883   2.099
   50c3c     C2  694   4.236   0.913   2.216
   50c3c     HC  695   4.130   0.890   2.214
   50c3c     HC  696   4.242   1.022   2.224
   50c3c     CT  697   4.293   0.855   2.342
   50c3c     HC  698   4.399   0.881   2.351
   50c3c     HC  699   4.283   0.746   2.341
   50c3c     HC  700   4.239   0.894   2.428
   51c3c     N4  701   6.655   2.525   2.984
   51c3c     C1  702   6.526   2.583   2.945
   51c3c     C1  703   6.756   2.632   2.993
   51c3c     C2  704   6.545   2.732   2.919
   51c3c     C2  705   6.691   2.764   2.949
   51c3c     C1  706   6.641   2.464   3.116
   51c3c     C1  707   6.697   2.423   2.888
   51c3c     H1  708   6.449   2.567   3.020
   51c3c     H1  709   6.484   2.535   2.856
   51c3c     H1  710   6.798   2.642   3.093
   51c3c     H1  711   6.844   2.612   2.931
   51c3c     HC  712   6.478   2.789   2.984
   51c3c     HC  713   6.520   2.758   2.816
   51c3c     HC  714   6.700   2.837   3.030
   51c3c     HC  715   6.741   2.805   2.862
   51c3c     H1  716   6.567   2.384   3.115
   51c3c     H1  717   6.735   2.421   3.150
   51c3c     H1  718   6.610   2.538   3.190
   51c3c     H1  719   6.792   2.378   2.919
   51c3c     H1  720   6.624   2.342   2.884
   51c3c     C2  721   6.714   2.482   2.746
   51c3c     HC  722   6.788   2.563   2.743
   51c3c     HC  723   6.622   2.527   2.709
   51c3c     CT  724   6.758   2.376   2.648
   51c3c     HC  725   6.683   2.297   2.643
   51c3c     HC  726   6.853   2.334   2.679
   51c3c     HC  727   6.768   2.421   2.549
   52c3c     N4  728   1.197   4.243   1.892
   52c3c     C1  729   1.324   4.284   1.955
   52c3c     C1  730   1.131   4.361   1.833
   52c3c     C2  731   1.338   4.435   1.942
   52c3c     C2  732   1.216   4.485   1.865
   52c3c     C1  733   1.225   4.147   1.786
   52c3c     C1  734   1.109   4.181   1.992
   52c3c     H1  735   1.410   4.234   1.910
   52c3c     H1  736   1.331   4.254   2.060
   52c3c     H1  737   1.119   4.352   1.725
   52c3c     H1  738   1.030   4.376   1.870
   52c3c     HC  739   1.431   4.459   1.889
   52c3c     HC  740   1.344   4.482   2.040
   52c3c     HC  741   1.246   4.534   1.772
   52c3c     HC  742   1.160   4.557   1.924
   52c3c     H1  743   1.275   4.059   1.825
   52c3c     H1  744   1.134   4.115   1.735
   52c3c     H1  745   1.291   4.192   1.711
   52c3c     H1  746   1.016   4.148   1.944
   52c3c     H1  747   1.156   4.092   2.033
   52c3c     C2  748   1.075   4.278   2.107
   52c3c     HC  749   1.026   4.369   2.072
   52c3c     HC  750   1.164   4.312   2.159
   52c3c     CT  751   0.984   4.212   2.208
   52c3c     HC  752   1.033   4.125   2.251
   52c3c     HC  753   0.891   4.182   2.161
   52c3c     HC  754   0.963   4.283   2.288
   53c3c     N4  755   0.497   4.883   1.647
   53c3c     C1  756   0.373   4.935   1.707
   53c3c     C1  757   0.467   4.761   1.571
   53c3c     C2  758   0.259   4.839   1.675
   53c3c     C2  759   0.319   4.728   1.588
   53c3c     C1  760   0.551   4.983   1.555
   53c3c     C1  761   0.597   4.855   1.751
   53c3c     H1  762   0.350   5.036   1.672
   53c3c     H1  763   0.382   4.949   1.815
   53c3c     H1  764   0.491   4.771   1.465
   53c3c     H1  765   0.528   4.676   1.602
   53c3c     HC  766   0.180   4.892   1.622
   53c3c     HC  767   0.216   4.798   1.766
   53c3c     HC  768   0.270   4.724   1.491
   53c3c     HC  769   0.306   4.630   1.635
   53c3c     H1  770   0.574   5.077   1.607
   53c3c     H1  771   0.642   4.949   1.507
   53c3c     H1  772   0.479   5.006   1.477
   53c3c     H1  773   0.690   4.820   1.706
   53c3c     H1  774   0.622   4.946   1.805
   53c3c     C2  775   0.546   4.749   1.852
   53c3c     HC  776   0.521   4.655   1.803
   53c3c     HC  777   0.454   4.780   1.901
   53c3c     CT  778   0.649   4.721   1.958
   53c3c     HC  779   0.671   4.812   2.013
   53c3c     HC  780   0.740   4.683   1.912
   53c3c     HC  781   0.610   4.646   2.027
   54c3c     N4  782   3.337   3.695   1.880
   54c3c     C1  783   3.413   3.578   1.927
   54c3c     C1  784   3.429   3.807   1.854
   54c3c     C2  785   3.560   3.617   1.938
   54c3c     C2  786   3.570   3.762   1.892
   54c3c     C1  787   3.268   3.661   1.756
   54c3c     C1  788   3.237   3.734   1.981
   54c3c     H1  789   3.401   3.493   1.859
   54c3c     H1  790   3.377   3.539   2.022
   54c3c     H1  791   3.426   3.840   1.751
   54c3c     H1  792   3.402   3.897   1.909
   54c3c     HC  793   3.620   3.552   1.875
   54c3c     HC  794   3.595   3.606   2.040
   54c3c     HC  795   3.636   3.772   1.806
   54c3c     HC  796   3.611   3.826   1.971
   54c3c     H1  797   3.199   3.578   1.769
   54c3c     H1  798   3.212   3.746   1.717
   54c3c     H1  799   3.341   3.632   1.679
   54c3c     H1  800   3.179   3.819   1.944
   54c3c     H1  801   3.166   3.653   1.997
   54c3c     C2  802   3.303   3.772   2.115
   54c3c     HC  803   3.373   3.854   2.105
   54c3c     HC  804   3.361   3.690   2.157
   54c3c     CT  805   3.199   3.811   2.217
   54c3c     HC  806   3.131   3.728   2.235
   54c3c     HC  807   3.143   3.898   2.182
   54c3c     HC  808   3.249   3.837   2.311
   55c3c     N4  809   2.120   0.562   3.628
   55c3c     C1  810   2.111   0.416   3.640
   55c3c     C1  811   1.985   0.621   3.634
   55c3c     C2  812   1.963   0.377   3.647
   55c3c     C2  813   1.883   0.507   3.644
   55c3c     C1  814   2.199   0.614   3.740
   55c3c     C1  815   2.185   0.599   3.502
   55c3c     H1  816   2.165   0.378   3.727
   55c3c     H1  817   2.159   0.363   3.558
   55c3c     H1  818   1.974   0.689   3.719
   55c3c     H1  819   1.962   0.684   3.548
   55c3c     HC  820   1.945   0.322   3.740
   55c3c     HC  821   1.936   0.312   3.564
   55c3c     HC  822   1.823   0.519   3.734
   55c3c     HC  823   1.815   0.509   3.559
   55c3c     H1  824   2.300   0.572   3.740
   55c3c     H1  825   2.208   0.723   3.735
   55c3c     H1  826   2.153   0.588   3.835
   55c3c     H1  827   2.195   0.707   3.495
   55c3c     H1  828   2.287   0.558   3.499
   55c3c     C2  829   2.107   0.547   3.379
   55c3c     HC  830   2.005   0.586   3.376
   55c3c     HC  831   2.095   0.439   3.380
   55c3c     CT  832   2.174   0.585   3.250
   55c3c     HC  833   2.274   0.542   3.247
   55c3c     HC  834   2.181   0.694   3.243
   55c3c     HC  835   2.116   0.547   3.166
   56c3c     N4  836   2.205   4.901   1.598
   56c3c     C1  837   2.183   4.777   1.675
   56c3c     C1  838   2.099   4.916   1.497
   56c3c     C2  839   2.061   4.705   1.616
   56c3c     C2  840   2.008   4.793   1.503
   56c3c     C1  841   2.199   5.015   1.690
   56c3c     C1  842   2.337   4.898   1.534
   56c3c     H1  843   2.168   4.797   1.781
   56c3c     H1  844   2.270   4.712   1.675
   56c3c     H1  845   2.041   5.007   1.511
   56c3c     H1  846   2.139   4.928   1.396
   56c3c     HC  847   1.986   4.691   1.694
   56c3c     HC  848   2.089   4.606   1.580
   56c3c     HC  849   1.906   4.825   1.523
   56c3c     HC  850   2.009   4.740   1.408
   56c3c     H1  851   2.275   5.008   1.767
   56c3c     H1  852   2.214   5.109   1.637
   56c3c     H1  853   2.102   5.020   1.739
   56c3c     H1  854   2.355   4.991   1.480
   56c3c     H1  855   2.415   4.891   1.609
   56c3c     C2  856   2.350   4.780   1.436
   56c3c     HC  857   2.275   4.783   1.357
   56c3c     HC  858   2.335   4.683   1.485
   56c3c     CT  859   2.485   4.777   1.370
   56c3c     HC  860   2.563   4.767   1.446
   56c3c     HC  861   2.501   4.869   1.315
   56c3c     HC  862   2.491   4.693   1.302
   57c3c     N4  863   3.057   6.406   5.143
   57c3c     C1  864   3.188   6.376   5.202
   57c3c     C1  865   3.033   6.317   5.028
   57c3c     C2  866   3.256   6.268   5.117
   57c3c     C2  867   3.158   6.231   5.007
   57c3c     C1  868   2.953   6.381   5.244
   57c3c     C1  869   3.050   6.546   5.101
   57c3c     H1  870   3.180   6.343   5.306
   57c3c     H1  871   3.252   6.464   5.209
   57c3c     H1  872   2.945   6.254   5.042
   57c3c     H1  873   3.010   6.372   4.937
   57c3c     HC  874   3.280   6.182   5.180
   57c3c     HC  875   3.350   6.305   5.076
   57c3c     HC  876   3.130   6.125   5.012
   57c3c     HC  877   3.201   6.248   4.908
   57c3c     H1  878   2.967   6.443   5.332
   57c3c     H1  879   2.854   6.400   5.204
   57c3c     H1  880   2.956   6.277   5.277
   57c3c     H1  881   2.952   6.569   5.061
   57c3c     H1  882   3.064   6.611   5.188
   57c3c     C2  883   3.157   6.579   4.995
   57c3c     HC  884   3.147   6.517   4.906
   57c3c     HC  885   3.258   6.560   5.031
   57c3c     CT  886   3.150   6.723   4.953
   57c3c     HC  887   3.167   6.788   5.039
   57c3c     HC  888   3.052   6.744   4.910
   57c3c     HC  889   3.227   6.743   4.878
   58c3c     N4  890   3.045   1.081   3.353
   58c3c     C1  891   2.904   1.119   3.370
   58c3c     C1  892   3.131   1.196   3.387
   58c3c     C2  893   2.898   1.267   3.411
   58c3c     C2  894   3.042   1.315   3.421
   58c3c     C1  895   3.076   0.971   3.443
   58c3c     C1  896   3.070   1.039   3.214
   58c3c     H1  897   2.854   1.057   3.445
   58c3c     H1  898   2.845   1.102   3.280
   58c3c     H1  899   3.199   1.173   3.470
   58c3c     H1  900   3.200   1.222   3.306
   58c3c     HC  901   2.846   1.276   3.506
   58c3c     HC  902   2.842   1.325   3.337
   58c3c     HC  903   3.065   1.350   3.522
   58c3c     HC  904   3.061   1.398   3.353
   58c3c     H1  905   3.014   0.884   3.422
   58c3c     H1  906   3.180   0.940   3.434
   58c3c     H1  907   3.059   1.000   3.547
   58c3c     H1  908   3.174   1.007   3.203
   58c3c     H1  909   3.009   0.952   3.191
   58c3c     C2  910   3.039   1.152   3.114
   58c3c     HC  911   3.099   1.241   3.132
   58c3c     HC  912   2.936   1.186   3.120
   58c3c     CT  913   3.065   1.107   2.972
   58c3c     HC  914   3.001   1.022   2.948
   58c3c     HC  915   3.169   1.078   2.960
   58c3c     HC  916   3.042   1.189   2.904
   59c3c     N4  917   4.958   3.629   5.895
   59c3c     C1  918   5.030   3.630   6.023
   59c3c     C1  919   4.887   3.500   5.879
   59c3c     C2  920   5.011   3.494   6.090
   59c3c     C2  921   4.921   3.411   5.999
   59c3c     C1  922   4.859   3.737   5.895
   59c3c     C1  923   5.051   3.650   5.784
   59c3c     H1  924   4.995   3.710   6.089
   59c3c     H1  925   5.136   3.652   6.012
   59c3c     H1  926   4.779   3.513   5.870
   59c3c     H1  927   4.913   3.449   5.786
   59c3c     HC  928   4.966   3.507   6.189
   59c3c     HC  929   5.108   3.445   6.105
   59c3c     HC  930   4.829   3.382   6.050
   59c3c     HC  931   4.971   3.320   5.967
   59c3c     H1  932   4.906   3.834   5.908
   59c3c     H1  933   4.802   3.739   5.802
   59c3c     H1  934   4.788   3.723   5.977
   59c3c     H1  935   4.997   3.652   5.689
   59c3c     H1  936   5.100   3.746   5.794
   59c3c     C2  937   5.158   3.539   5.778
   59c3c     HC  938   5.114   3.439   5.766
   59c3c     HC  939   5.217   3.533   5.869
   59c3c     CT  940   5.253   3.561   5.663
   59c3c     HC  941   5.304   3.656   5.675
   59c3c     HC  942   5.199   3.561   5.569
   59c3c     HC  943   5.328   3.481   5.662
   60c3c     N4  944   3.202   2.260   3.539
   60c3c     C1  945   3.123   2.152   3.600
   60c3c     C1  946   3.304   2.202   3.450
   60c3c     C2  947   3.180   2.018   3.555
   60c3c     C2  948   3.295   2.049   3.460
   60c3c     C1  949   3.113   2.344   3.459
   60c3c     C1  950   3.265   2.342   3.642
   60c3c     H1  951   3.017   2.159   3.574
   60c3c     H1  952   3.121   2.158   3.709
   60c3c     H1  953   3.291   2.234   3.347
   60c3c     H1  954   3.405   2.235   3.474
   60c3c     HC  955   3.103   1.960   3.505
   60c3c     HC  956   3.215   1.960   3.641
   60c3c     HC  957   3.277   2.008   3.361
   60c3c     HC  958   3.389   2.008   3.496
   60c3c     H1  959   3.034   2.389   3.520
   60c3c     H1  960   3.167   2.425   3.410
   60c3c     H1  961   3.064   2.286   3.381
   60c3c     H1  962   3.321   2.424   3.597
   60c3c     H1  963   3.189   2.388   3.706
   60c3c     C2  964   3.361   2.259   3.730
   60c3c     HC  965   3.440   2.212   3.672
   60c3c     HC  966   3.310   2.176   3.780
   60c3c     CT  967   3.426   2.344   3.836
   60c3c     HC  968   3.350   2.387   3.901
   60c3c     HC  969   3.483   2.424   3.790
   60c3c     HC  970   3.493   2.282   3.897
   61c3c     N4  971   3.783   5.088   5.836
   61c3c     C1  972   3.696   5.202   5.871
   61c3c     C1  973   3.887   5.133   5.742
   61c3c     C2  974   3.742   5.324   5.791
   61c3c     C2  975   3.863   5.280   5.709
   61c3c     C1  976   3.848   5.039   5.958
   61c3c     C1  977   3.704   4.980   5.777
   61c3c     H1  978   3.699   5.224   5.978
   61c3c     H1  979   3.591   5.182   5.853
   61c3c     H1  980   3.988   5.119   5.782
   61c3c     H1  981   3.889   5.074   5.650
   61c3c     HC  982   3.768   5.405   5.859
   61c3c     HC  983   3.661   5.360   5.727
   61c3c     HC  984   3.951   5.339   5.735
   61c3c     HC  985   3.845   5.294   5.602
   61c3c     H1  986   3.775   5.006   6.031
   61c3c     H1  987   3.914   4.955   5.936
   61c3c     H1  988   3.908   5.118   6.004
   61c3c     H1  989   3.768   4.895   5.754
   61c3c     H1  990   3.629   4.945   5.848
   61c3c     C2  991   3.633   5.026   5.648
   61c3c     HC  992   3.703   5.061   5.572
   61c3c     HC  993   3.566   5.111   5.665
   61c3c     CT  994   3.551   4.914   5.587
   61c3c     HC  995   3.475   4.882   5.658
   61c3c     HC  996   3.616   4.830   5.563
   61c3c     HC  997   3.503   4.950   5.497
   62c3c     N4  998   6.932   1.550   2.371
   62c3c     C1  999   6.996   1.417   2.376
   62c3c     C1 1000   6.786   1.533   2.373
   62c3c     C2 1001   6.887   1.310   2.373
   62c3c     C2 1002   6.754   1.384   2.371
   62c3c     C1 1003   6.972   1.626   2.490
   62c3c     C1 1004   6.974   1.622   2.251
   62c3c     H1 1005   7.059   1.405   2.464
   62c3c     H1 1006   7.066   1.401   2.294
   62c3c     H1 1007   6.740   1.581   2.459
   62c3c     H1 1008   6.737   1.583   2.289
   62c3c     HC 1009   6.896   1.247   2.462
   62c3c     HC 1010   6.898   1.246   2.286
   62c3c     HC 1011   6.693   1.358   2.458
   62c3c     HC 1012   6.696   1.357   2.283
   62c3c     H1 1013   7.080   1.639   2.494
   62c3c     H1 1014   6.926   1.724   2.491
   62c3c     H1 1015   6.942   1.573   2.581
   62c3c     H1 1016   6.929   1.722   2.250
   62c3c     H1 1017   7.082   1.637   2.252
   62c3c     C2 1018   6.934   1.547   2.122
   62c3c     HC 1019   6.827   1.531   2.115
   62c3c     HC 1020   6.978   1.447   2.118
   62c3c     CT 1021   6.978   1.622   1.999
   62c3c     HC 1022   7.086   1.635   2.000
   62c3c     HC 1023   6.930   1.720   1.997
   62c3c     HC 1024   6.948   1.567   1.911
   63c3c     N4 1025   5.262   4.166   4.172
   63c3c     C1 1026   5.148   4.228   4.241
   63c3c     C1 1027   5.386   4.238   4.207
   63c3c     C2 1028   5.198   4.350   4.317
   63c3c     C2 1029   5.349   4.357   4.296
   63c3c     C1 1030   5.275   4.027   4.218
   63c3c     C1 1031   5.241   4.166   4.027
   63c3c     H1 1032   5.098   4.158   4.309
   63c3c     H1 1033   5.068   4.256   4.172
   63c3c     H1 1034   5.458   4.174   4.257
   63c3c     H1 1035   5.440   4.272   4.119
   63c3c     HC 1036   5.174   4.340   4.423
   63c3c     HC 1037   5.149   4.441   4.282
   63c3c     HC 1038   5.403   4.350   4.390
   63c3c     HC 1039   5.378   4.451   4.249
   63c3c     H1 1040   5.185   3.969   4.196
   63c3c     H1 1041   5.359   3.977   4.171
   63c3c     H1 1042   5.291   4.023   4.326
   63c3c     H1 1043   5.324   4.117   3.977
   63c3c     H1 1044   5.152   4.109   4.002
   63c3c     C2 1045   5.227   4.310   3.973
   63c3c     HC 1046   5.315   4.371   3.994
   63c3c     HC 1047   5.144   4.364   4.018
   63c3c     CT 1048   5.206   4.310   3.824
   63c3c     HC 1049   5.115   4.255   3.799
   63c3c     HC 1050   5.290   4.263   3.774
   63c3c     HC 1051   5.196   4.413   3.788
   64c3c     N4 1052   6.568   4.858   2.927
   64c3c     C1 1053   6.537   4.917   3.058
   64c3c     C1 1054   6.709   4.883   2.893
   64c3c     C2 1055   6.662   4.990   3.109
   64c3c     C2 1056   6.771   4.968   3.004
   64c3c     C1 1057   6.546   4.713   2.934
   64c3c     C1 1058   6.480   4.914   2.824
   64c3c     H1 1059   6.505   4.843   3.131
   64c3c     H1 1060   6.453   4.986   3.055
   64c3c     H1 1061   6.765   4.790   2.881
   64c3c     H1 1062   6.721   4.932   2.797
   64c3c     HC 1063   6.691   4.949   3.206
   64c3c     HC 1064   6.641   5.096   3.123
   64c3c     HC 1065   6.857   4.916   3.047
   64c3c     HC 1066   6.807   5.063   2.965
   64c3c     H1 1067   6.443   4.690   2.960
   64c3c     H1 1068   6.569   4.665   2.839
   64c3c     H1 1069   6.610   4.669   3.011
   64c3c     H1 1070   6.500   4.868   2.728
   64c3c     H1 1071   6.376   4.893   2.847
   64c3c     C2 1072   6.498   5.067   2.811
   64c3c     HC 1073   6.601   5.095   2.786
   64c3c     HC 1074   6.477   5.119   2.905
   64c3c     CT 1075   6.408   5.124   2.705
   64c3c     HC 1076   6.304   5.105   2.730
   64c3c     HC 1077   6.431   5.079   2.608
   64c3c     HC 1078   6.423   5.232   2.699
   65c3c     N4 1079   6.664   4.411   2.212
   65c3c     C1 1080   6.775   4.506   2.193
   65c3c     C1 1081   6.663   4.364   2.352
   65c3c     C2 1082   6.854   4.515   2.323
   65c3c     C2 1083   6.783   4.425   2.424
   65c3c     C1 1084   6.538   4.479   2.185
   65c3c     C1 1085   6.678   4.297   2.120
   65c3c     H1 1086   6.740   4.604   2.162
   65c3c     H1 1087   6.841   4.477   2.111
   65c3c     H1 1088   6.571   4.389   2.403
   65c3c     H1 1089   6.666   4.255   2.360
   65c3c     HC 1090   6.856   4.619   2.357
   65c3c     HC 1091   6.957   4.484   2.309
   65c3c     HC 1092   6.748   4.483   2.510
   65c3c     HC 1093   6.850   4.348   2.462
   65c3c     H1 1094   6.534   4.517   2.083
   65c3c     H1 1095   6.453   4.413   2.199
   65c3c     H1 1096   6.525   4.564   2.252
   65c3c     H1 1097   6.594   4.229   2.133
   65c3c     H1 1098   6.675   4.331   2.017
   65c3c     C2 1099   6.810   4.220   2.144
   65c3c     HC 1100   6.817   4.181   2.246
   65c3c     HC 1101   6.897   4.283   2.132
   65c3c     CT 1102   6.823   4.104   2.050
   65c3c     HC 1103   6.822   4.139   1.947
   65c3c     HC 1104   6.740   4.034   2.064
   65c3c     HC 1105   6.916   4.051   2.069
   66c3c     N4 1106   2.816   6.624   1.480
   66c3c     C1 1107   2.887   6.680   1.597
   66c3c     C1 1108   2.832   6.715   1.366
   66c3c     C2 1109   2.945   6.816   1.559
   66c3c     C2 1110   2.911   6.838   1.412
   66c3c     C1 1111   2.875   6.495   1.447
   66c3c     C1 1112   2.674   6.606   1.511
   66c3c     H1 1113   2.965   6.613   1.633
   66c3c     H1 1114   2.822   6.690   1.684
   66c3c     H1 1115   2.883   6.667   1.282
   66c3c     H1 1116   2.737   6.745   1.322
   66c3c     HC 1117   3.053   6.814   1.574
   66c3c     HC 1118   2.904   6.895   1.621
   66c3c     HC 1119   3.001   6.849   1.351
   66c3c     HC 1120   2.852   6.929   1.398
   66c3c     H1 1121   2.867   6.424   1.529
   66c3c     H1 1122   2.827   6.450   1.360
   66c3c     H1 1123   2.981   6.505   1.423
   66c3c     H1 1124   2.623   6.562   1.425
   66c3c     H1 1125   2.662   6.536   1.593
   66c3c     C2 1126   2.606   6.739   1.547
   66c3c     HC 1127   2.613   6.813   1.467
   66c3c     HC 1128   2.652   6.787   1.633
   66c3c     CT 1129   2.460   6.719   1.578
   66c3c     HC 1130   2.449   6.651   1.663
   66c3c     HC 1131   2.409   6.678   1.492
   66c3c     HC 1132   2.414   6.816   1.603
   67c3c     N4 1133   0.653   1.147   5.358
   67c3c     C1 1134   0.632   1.259   5.451
   67c3c     C1 1135   0.530   1.124   5.281
   67c3c     C2 1136   0.487   1.307   5.439
   67c3c     C2 1137   0.422   1.221   5.330
   67c3c     C1 1138   0.761   1.182   5.266
   67c3c     C1 1139   0.690   1.026   5.432
   67c3c     H1 1140   0.701   1.342   5.432
   67c3c     H1 1141   0.654   1.233   5.555
   67c3c     H1 1142   0.545   1.137   5.173
   67c3c     H1 1143   0.494   1.021   5.288
   67c3c     HC 1144   0.485   1.412   5.412
   67c3c     HC 1145   0.435   1.296   5.534
   67c3c     HC 1146   0.387   1.282   5.248
   67c3c     HC 1147   0.336   1.166   5.370
   67c3c     H1 1148   0.854   1.201   5.319
   67c3c     H1 1149   0.779   1.102   5.194
   67c3c     H1 1150   0.736   1.272   5.210
   67c3c     H1 1151   0.709   0.944   5.362
   67c3c     H1 1152   0.783   1.042   5.486
   67c3c     C2 1153   0.579   0.984   5.531
   67c3c     HC 1154   0.484   0.964   5.482
   67c3c     HC 1155   0.558   1.061   5.604
   67c3c     CT 1156   0.618   0.859   5.606
   67c3c     HC 1157   0.710   0.877   5.663
   67c3c     HC 1158   0.634   0.777   5.536
   67c3c     HC 1159   0.539   0.832   5.676
   68c3c     N4 1160   1.064   6.582   3.944
   68c3c     C1 1161   1.168   6.678   3.985
   68c3c     C1 1162   0.995   6.632   3.823
   68c3c     C2 1163   1.162   6.798   3.891
   68c3c     C2 1164   1.053   6.770   3.789
   68c3c     C1 1165   1.127   6.454   3.912
   68c3c     C1 1166   0.967   6.562   4.052
   68c3c     H1 1167   1.267   6.633   3.983
   68c3c     H1 1168   1.157   6.710   4.088
   68c3c     H1 1169   1.006   6.564   3.739
   68c3c     H1 1170   0.887   6.639   3.836
   68c3c     HC 1171   1.259   6.812   3.843
   68c3c     HC 1172   1.141   6.890   3.947
   68c3c     HC 1173   1.093   6.768   3.687
   68c3c     HC 1174   0.975   6.846   3.792
   68c3c     H1 1175   1.180   6.413   3.998
   68c3c     H1 1176   1.053   6.380   3.879
   68c3c     H1 1177   1.199   6.466   3.831
   68c3c     H1 1178   0.892   6.488   4.023
   68c3c     H1 1179   1.017   6.521   4.140
   68c3c     C2 1180   0.896   6.694   4.091
   68c3c     HC 1181   0.843   6.738   4.007
   68c3c     HC 1182   0.967   6.771   4.123
   68c3c     CT 1183   0.798   6.672   4.202
   68c3c     HC 1184   0.849   6.634   4.291
   68c3c     HC 1185   0.722   6.601   4.171
   68c3c     HC 1186   0.750   6.767   4.227
   69c3c     N4 1187   5.274   5.007   1.438
   69c3c     C1 1188   5.417   5.043   1.438
   69c3c     C1 1189   5.260   4.860   1.441
   69c3c     C2 1190   5.499   4.914   1.433
   69c3c     C2 1191   5.400   4.798   1.435
   69c3c     C1 1192   5.212   5.062   1.558
   69c3c     C1 1193   5.208   5.062   1.320
   69c3c     H1 1194   5.444   5.102   1.525
   69c3c     H1 1195   5.444   5.108   1.354
   69c3c     H1 1196   5.207   4.826   1.529
   69c3c     H1 1197   5.198   4.822   1.359
   69c3c     HC 1198   5.566   4.910   1.519
   69c3c     HC 1199   5.561   4.911   1.343
   69c3c     HC 1200   5.415   4.734   1.522
   69c3c     HC 1201   5.410   4.735   1.346
   69c3c     H1 1202   5.221   5.171   1.561
   69c3c     H1 1203   5.106   5.037   1.563
   69c3c     H1 1204   5.260   5.023   1.648
   69c3c     H1 1205   5.101   5.039   1.322
   69c3c     H1 1206   5.215   5.171   1.320
   69c3c     C2 1207   5.269   5.007   1.189
   69c3c     HC 1208   5.262   4.899   1.183
   69c3c     HC 1209   5.375   5.030   1.180
   69c3c     CT 1210   5.200   5.065   1.068
   69c3c     HC 1211   5.210   5.173   1.067
   69c3c     HC 1212   5.094   5.038   1.070
   69c3c     HC 1213   5.245   5.024   0.978
   70c3c     N4 1214   1.307   4.618   3.811
   70c3c     C1 1215   1.348   4.724   3.717
   70c3c     C1 1216   1.160   4.607   3.812
   70c3c     C2 1217   1.222   4.790   3.660
   70c3c     C2 1218   1.103   4.715   3.720
   70c3c     C1 1219   1.364   4.491   3.766
   70c3c     C1 1220   1.357   4.648   3.946
   70c3c     H1 1221   1.411   4.686   3.637
   70c3c     H1 1222   1.411   4.800   3.764
   70c3c     H1 1223   1.126   4.509   3.780
   70c3c     H1 1224   1.118   4.617   3.912
   70c3c     HC 1225   1.223   4.782   3.551
   70c3c     HC 1226   1.219   4.896   3.685
   70c3c     HC 1227   1.042   4.669   3.642
   70c3c     HC 1228   1.038   4.783   3.776
   70c3c     H1 1229   1.472   4.495   3.762
   70c3c     H1 1230   1.335   4.409   3.832
   70c3c     H1 1231   1.328   4.467   3.665
   70c3c     H1 1232   1.330   4.567   4.014
   70c3c     H1 1233   1.466   4.652   3.945
   70c3c     C2 1234   1.301   4.781   3.999
   70c3c     HC 1235   1.192   4.782   4.004
   70c3c     HC 1236   1.327   4.866   3.935
   70c3c     CT 1237   1.352   4.810   4.138
   70c3c     HC 1238   1.461   4.818   4.136
   70c3c     HC 1239   1.322   4.731   4.206
   70c3c     HC 1240   1.311   4.905   4.173
   71c3c     N4 1241   5.522   1.765   3.843
   71c3c     C1 1242   5.578   1.634   3.879
   71c3c     C1 1243   5.497   1.843   3.966
   71c3c     C2 1244   5.582   1.623   4.032
   71c3c     C2 1245   5.531   1.756   4.087
   71c3c     C1 1246   5.620   1.837   3.761
   71c3c     C1 1247   5.398   1.749   3.767
   71c3c     H1 1248   5.677   1.618   3.837
   71c3c     H1 1249   5.520   1.551   3.838
   71c3c     H1 1250   5.555   1.935   3.969
   71c3c     H1 1251   5.394   1.878   3.973
   71c3c     HC 1252   5.684   1.603   4.064
   71c3c     HC 1253   5.521   1.539   4.066
   71c3c     HC 1254   5.607   1.805   4.148
   71c3c     HC 1255   5.443   1.741   4.150
   71c3c     H1 1256   5.643   1.782   3.670
   71c3c     H1 1257   5.583   1.936   3.734
   71c3c     H1 1258   5.713   1.850   3.816
   71c3c     H1 1259   5.359   1.847   3.738
   71c3c     H1 1260   5.418   1.695   3.675
   71c3c     C2 1261   5.290   1.674   3.848
   71c3c     HC 1262   5.266   1.725   3.941
   71c3c     HC 1263   5.323   1.575   3.879
   71c3c     CT 1264   5.163   1.658   3.769
   71c3c     HC 1265   5.183   1.601   3.678
   71c3c     HC 1266   5.124   1.756   3.742
   71c3c     HC 1267   5.090   1.605   3.829
   72c3c     N4 1268   6.790   5.795   5.308
   72c3c     C1 1269   6.857   5.678   5.366
   72c3c     C1 1270   6.843   5.820   5.173
   72c3c     C2 1271   6.963   5.629   5.268
   72c3c     C2 1272   6.954   5.719   5.145
   72c3c     C1 1273   6.646   5.767   5.298
   72c3c     C1 1274   6.810   5.913   5.393
   72c3c     H1 1275   6.787   5.598   5.389
   72c3c     H1 1276   6.902   5.700   5.463
   72c3c     H1 1277   6.765   5.814   5.096
   72c3c     H1 1278   6.880   5.922   5.160
   72c3c     HC 1279   6.944   5.525   5.241
   72c3c     HC 1280   7.062   5.633   5.312
   72c3c     HC 1281   6.930   5.662   5.055
   72c3c     HC 1282   7.049   5.770   5.126
   72c3c     H1 1283   6.603   5.747   5.396
   72c3c     H1 1284   6.593   5.851   5.254
   72c3c     H1 1285   6.629   5.680   5.235
   72c3c     H1 1286   6.757   5.999   5.351
   72c3c     H1 1287   6.767   5.896   5.492
   72c3c     C2 1288   6.959   5.948   5.407
   72c3c     HC 1289   7.007   5.968   5.311
   72c3c     HC 1290   7.017   5.866   5.450
   72c3c     CT 1291   6.979   6.069   5.495
   72c3c     HC 1292   6.939   6.050   5.594
   72c3c     HC 1293   6.928   6.155   5.451
   72c3c     HC 1294   7.085   6.091   5.503
   73c3c     N4 1295   3.460   1.205   1.399
   73c3c     C1 1296   3.386   1.233   1.275
   73c3c     C1 1297   3.605   1.212   1.372
   73c3c     C2 1298   3.486   1.251   1.161
   73c3c     C2 1299   3.625   1.237   1.223
   73c3c     C1 1300   3.426   1.308   1.498
   73c3c     C1 1301   3.424   1.074   1.452
   73c3c     H1 1302   3.322   1.321   1.284
   73c3c     H1 1303   3.314   1.154   1.251
   73c3c     H1 1304   3.654   1.289   1.431
   73c3c     H1 1305   3.657   1.121   1.401
   73c3c     HC 1306   3.472   1.349   1.116
   73c3c     HC 1307   3.470   1.176   1.084
   73c3c     HC 1308   3.683   1.328   1.209
   73c3c     HC 1309   3.680   1.156   1.177
   73c3c     H1 1310   3.320   1.308   1.521
   73c3c     H1 1311   3.480   1.292   1.592
   73c3c     H1 1312   3.452   1.407   1.461
   73c3c     H1 1313   3.477   1.055   1.546
   73c3c     H1 1314   3.317   1.070   1.475
   73c3c     C2 1315   3.457   0.961   1.352
   73c3c     HC 1316   3.563   0.958   1.326
   73c3c     HC 1317   3.406   0.974   1.257
   73c3c     CT 1318   3.420   0.826   1.407
   73c3c     HC 1319   3.313   0.823   1.428
   73c3c     HC 1320   3.475   0.807   1.499
   73c3c     HC 1321   3.445   0.749   1.334
   74c3c     N4 1322   4.414   3.720   6.302
   74c3c     C1 1323   4.396   3.685   6.444
   74c3c     C1 1324   4.438   3.597   6.224
   74c3c     C2 1325   4.416   3.534   6.460
   74c3c     C2 1326   4.443   3.479   6.320
   74c3c     C1 1327   4.291   3.783   6.253
   74c3c     C1 1328   4.526   3.813   6.286
   74c3c     H1 1329   4.298   3.714   6.481
   74c3c     H1 1330   4.464   3.739   6.510
   74c3c     H1 1331   4.362   3.581   6.148
   74c3c     H1 1332   4.530   3.602   6.165
   74c3c     HC 1333   4.327   3.489   6.503
   74c3c     HC 1334   4.499   3.513   6.527
   74c3c     HC 1335   4.368   3.405   6.291
   74c3c     HC 1336   4.540   3.429   6.315
   74c3c     H1 1337   4.269   3.874   6.309
   74c3c     H1 1338   4.300   3.810   6.148
   74c3c     H1 1339   4.206   3.716   6.264
   74c3c     H1 1340   4.537   3.842   6.182
   74c3c     H1 1341   4.506   3.905   6.342
   74c3c     C2 1342   4.658   3.752   6.336
   74c3c     HC 1343   4.684   3.660   6.283
   74c3c     HC 1344   4.654   3.723   6.441
   74c3c     CT 1345   4.773   3.848   6.319
   74c3c     HC 1346   4.753   3.939   6.377
   74c3c     HC 1347   4.785   3.875   6.214
   74c3c     HC 1348   4.865   3.802   6.356
   75c3c     N4 1349   2.160   3.390   4.954
   75c3c     C1 1350   2.162   3.450   5.088
   75c3c     C1 1351   2.290   3.411   4.889
   75c3c     C2 1352   2.296   3.520   5.108
   75c3c     C2 1353   2.378   3.495   4.981
   75c3c     C1 1354   2.137   3.246   4.968
   75c3c     C1 1355   2.052   3.448   4.873
   75c3c     H1 1356   2.145   3.377   5.167
   75c3c     H1 1357   2.080   3.521   5.104
   75c3c     H1 1358   2.340   3.317   4.864
   75c3c     H1 1359   2.281   3.459   4.792
   75c3c     HC 1360   2.346   3.479   5.196
   75c3c     HC 1361   2.282   3.627   5.125
   75c3c     HC 1362   2.470   3.442   5.004
   75c3c     HC 1363   2.406   3.589   4.934
   75c3c     H1 1364   2.042   3.225   5.017
   75c3c     H1 1365   2.137   3.196   4.871
   75c3c     H1 1366   2.216   3.200   5.028
   75c3c     H1 1367   2.049   3.400   4.775
   75c3c     H1 1368   1.956   3.428   4.920
   75c3c     C2 1369   2.071   3.600   4.855
   75c3c     HC 1370   2.165   3.625   4.807
   75c3c     HC 1371   2.073   3.653   4.950
   75c3c     CT 1372   1.959   3.659   4.772
   75c3c     HC 1373   1.864   3.641   4.821
   75c3c     HC 1374   1.959   3.612   4.673
   75c3c     HC 1375   1.975   3.766   4.761
   76c3c     N4 1376   5.061   1.770   6.166
   76c3c     C1 1377   5.166   1.724   6.258
   76c3c     C1 1378   4.981   1.656   6.120
   76c3c     C2 1379   5.158   1.571   6.267
   76c3c     C2 1380   5.040   1.528   6.180
   76c3c     C1 1381   4.973   1.863   6.238
   76c3c     C1 1382   5.121   1.840   6.052
   76c3c     H1 1383   5.156   1.768   6.358
   76c3c     H1 1384   5.266   1.754   6.228
   76c3c     H1 1385   4.876   1.665   6.148
   76c3c     H1 1386   4.977   1.648   6.012
   76c3c     HC 1387   5.142   1.541   6.371
   76c3c     HC 1388   5.251   1.525   6.234
   76c3c     HC 1389   4.965   1.476   6.238
   76c3c     HC 1390   5.073   1.460   6.101
   76c3c     H1 1391   5.029   1.950   6.275
   76c3c     H1 1392   4.893   1.900   6.173
   76c3c     H1 1393   4.927   1.814   6.323
   76c3c     H1 1394   5.043   1.877   5.985
   76c3c     H1 1395   5.178   1.926   6.086
   76c3c     C2 1396   5.215   1.746   5.972
   76c3c     HC 1397   5.163   1.658   5.934
   76c3c     HC 1398   5.296   1.707   6.033
   76c3c     CT 1399   5.276   1.818   5.854
   76c3c     HC 1400   5.335   1.903   5.889
   76c3c     HC 1401   5.198   1.853   5.787
   76c3c     HC 1402   5.342   1.750   5.800
   77c3c     N4 1403   4.206   6.932   5.088
   77c3c     C1 1404   4.321   6.840   5.091
   77c3c     C1 1405   4.081   6.855   5.093
   77c3c     C2 1406   4.268   6.696   5.090
   77c3c     C2 1407   4.115   6.706   5.091
   77c3c     C1 1408   4.213   7.018   5.206
   77c3c     C1 1409   4.210   7.015   4.968
   77c3c     H1 1410   4.385   6.856   5.177
   77c3c     H1 1411   4.389   6.855   5.007
   77c3c     H1 1412   4.021   6.880   5.181
   77c3c     H1 1413   4.014   6.880   5.011
   77c3c     HC 1414   4.305   6.643   5.177
   77c3c     HC 1415   4.303   6.643   5.001
   77c3c     HC 1416   4.073   6.658   5.180
   77c3c     HC 1417   4.072   6.658   5.004
   77c3c     H1 1418   4.305   7.077   5.208
   77c3c     H1 1419   4.129   7.088   5.210
   77c3c     H1 1420   4.210   6.959   5.298
   77c3c     H1 1421   4.128   7.086   4.968
   77c3c     H1 1422   4.302   7.075   4.967
   77c3c     C2 1423   4.203   6.930   4.839
   77c3c     HC 1424   4.113   6.870   4.835
   77c3c     HC 1425   4.286   6.859   4.833
   77c3c     CT 1426   4.208   7.016   4.716
   77c3c     HC 1427   4.300   7.074   4.714
   77c3c     HC 1428   4.123   7.085   4.716
   77c3c     HC 1429   4.203   6.953   4.627
   78c3c     N4 1430   4.365   3.772   5.201
   78c3c     C1 1431   4.368   3.625   5.214
   78c3c     C1 1432   4.473   3.830   5.282
   78c3c     C2 1433   4.478   3.587   5.313
   78c3c     C2 1434   4.545   3.718   5.356
   78c3c     C1 1435   4.386   3.807   5.061
   78c3c     C1 1436   4.235   3.824   5.244
   78c3c     H1 1437   4.384   3.576   5.118
   78c3c     H1 1438   4.272   3.584   5.247
   78c3c     H1 1439   4.544   3.887   5.221
   78c3c     H1 1440   4.437   3.905   5.352
   78c3c     HC 1441   4.550   3.521   5.264
   78c3c     HC 1442   4.437   3.534   5.399
   78c3c     HC 1443   4.651   3.718   5.330
   78c3c     HC 1444   4.538   3.732   5.464
   78c3c     H1 1445   4.309   3.764   4.997
   78c3c     H1 1446   4.386   3.915   5.046
   78c3c     H1 1447   4.482   3.769   5.026
   78c3c     H1 1448   4.232   3.932   5.231
   78c3c     H1 1449   4.155   3.783   5.182
   78c3c     C2 1450   4.206   3.790   5.392
   78c3c     HC 1451   4.282   3.830   5.459
   78c3c     HC 1452   4.207   3.683   5.411
   78c3c     CT 1453   4.073   3.844   5.436
   78c3c     HC 1454   3.994   3.801   5.375
   78c3c     HC 1455   4.071   3.953   5.425
   78c3c     HC 1456   4.056   3.819   5.541
   79c3c     N4 1457   4.896   2.584   4.017
   79c3c     C1 1458   4.847   2.701   4.092
   79c3c     C1 1459   4.812   2.562   3.899
   79c3c     C2 1460   4.721   2.753   4.022
   79c3c     C2 1461   4.699   2.665   3.900
   79c3c     C1 1462   5.033   2.610   3.973
   79c3c     C1 1463   4.896   2.465   4.103
   79c3c     H1 1464   4.922   2.780   4.099
   79c3c     H1 1465   4.826   2.679   4.196
   79c3c     H1 1466   4.869   2.569   3.806
   79c3c     H1 1467   4.771   2.461   3.895
   79c3c     HC 1468   4.735   2.857   3.994
   79c3c     HC 1469   4.635   2.749   4.090
   79c3c     HC 1470   4.701   2.723   3.808
   79c3c     HC 1471   4.601   2.615   3.904
   79c3c     H1 1472   5.099   2.629   4.058
   79c3c     H1 1473   5.074   2.526   3.917
   79c3c     H1 1474   5.036   2.699   3.909
   79c3c     H1 1475   4.936   2.379   4.050
   79c3c     H1 1476   4.961   2.480   4.189
   79c3c     C2 1477   4.753   2.432   4.153
   79c3c     HC 1478   4.684   2.414   4.071
   79c3c     HC 1479   4.709   2.514   4.210
   79c3c     CT 1480   4.754   2.309   4.241
   79c3c     HC 1481   4.817   2.327   4.328
   79c3c     HC 1482   4.791   2.224   4.186
   79c3c     HC 1483   4.652   2.289   4.275
   80c3c     N4 1484   4.812   1.282   1.580
   80c3c     C1 1485   4.667   1.261   1.560
   80c3c     C1 1486   4.886   1.163   1.535
   80c3c     C2 1487   4.646   1.119   1.506
   80c3c     C2 1488   4.785   1.057   1.490
   80c3c     C1 1489   4.854   1.397   1.500
   80c3c     C1 1490   4.840   1.309   1.722
   80c3c     H1 1491   4.624   1.334   1.492
   80c3c     H1 1492   4.609   1.275   1.651
   80c3c     H1 1493   4.955   1.186   1.454
   80c3c     H1 1494   4.951   1.122   1.611
   80c3c     HC 1495   4.594   1.124   1.410
   80c3c     HC 1496   4.584   1.061   1.574
   80c3c     HC 1497   4.804   1.030   1.386
   80c3c     HC 1498   4.795   0.967   1.549
   80c3c     H1 1499   4.801   1.488   1.529
   80c3c     H1 1500   4.961   1.416   1.511
   80c3c     H1 1501   4.834   1.380   1.394
   80c3c     H1 1502   4.946   1.328   1.735
   80c3c     H1 1503   4.788   1.399   1.754
   80c3c     C2 1504   4.797   1.191   1.811
   80c3c     HC 1505   4.848   1.098   1.784
   80c3c     HC 1506   4.691   1.168   1.802
   80c3c     CT 1507   4.826   1.219   1.956
   80c3c     HC 1508   4.772   1.308   1.989
   80c3c     HC 1509   4.933   1.235   1.970
   80c3c     HC 1510   4.796   1.134   2.017
   81c3c     N4 1511   4.160   2.060   4.669
   81c3c     C1 1512   4.252   1.980   4.752
   81c3c     C1 1513   4.045   1.978   4.630
   81c3c     C2 1514   4.197   1.838   4.760
   81c3c     C2 1515   4.066   1.836   4.683
   81c3c     C1 1516   4.112   2.174   4.748
   81c3c     C1 1517   4.230   2.111   4.550
   81c3c     H1 1518   4.265   2.022   4.851
   81c3c     H1 1519   4.354   1.979   4.713
   81c3c     H1 1520   3.950   2.019   4.667
   81c3c     H1 1521   4.029   1.976   4.522
   81c3c     HC 1522   4.182   1.810   4.865
   81c3c     HC 1523   4.268   1.766   4.718
   81c3c     HC 1524   3.982   1.809   4.747
   81c3c     HC 1525   4.069   1.764   4.601
   81c3c     H1 1526   4.195   2.237   4.781
   81c3c     H1 1527   4.043   2.236   4.692
   81c3c     H1 1528   4.060   2.139   4.838
   81c3c     H1 1529   4.162   2.174   4.491
   81c3c     H1 1530   4.313   2.175   4.580
   81c3c     C2 1531   4.283   1.996   4.462
   81c3c     HC 1532   4.203   1.930   4.428
   81c3c     HC 1533   4.352   1.931   4.516
   81c3c     CT 1534   4.353   2.049   4.340
   81c3c     HC 1535   4.438   2.110   4.370
   81c3c     HC 1536   4.285   2.109   4.280
   81c3c     HC 1537   4.390   1.965   4.280
   82c3c     N4 1538   0.886   3.626   1.461
   82c3c     C1 1539   0.772   3.552   1.404
   82c3c     C1 1540   0.836   3.740   1.539
   82c3c     C2 1541   0.643   3.625   1.442
   82c3c     C2 1542   0.684   3.744   1.528
   82c3c     C1 1543   0.961   3.537   1.549
   82c3c     C1 1544   0.974   3.673   1.353
   82c3c     H1 1545   0.769   3.449   1.439
   82c3c     H1 1546   0.778   3.540   1.296
   82c3c     H1 1547   0.866   3.734   1.644
   82c3c     H1 1548   0.879   3.835   1.507
   82c3c     HC 1549   0.577   3.557   1.497
   82c3c     HC 1550   0.589   3.657   1.353
   82c3c     HC 1551   0.639   3.739   1.627
   82c3c     HC 1552   0.651   3.838   1.482
   82c3c     H1 1553   0.999   3.450   1.495
   82c3c     H1 1554   1.046   3.588   1.594
   82c3c     H1 1555   0.898   3.501   1.630
   82c3c     H1 1556   1.061   3.724   1.395
   82c3c     H1 1557   1.014   3.588   1.297
   82c3c     C2 1558   0.901   3.768   1.256
   82c3c     HC 1559   0.861   3.856   1.306
   82c3c     HC 1560   0.814   3.720   1.209
   82c3c     CT 1561   0.992   3.815   1.146
   82c3c     HC 1562   1.029   3.730   1.089
   82c3c     HC 1563   1.077   3.869   1.189
   82c3c     HC 1564   0.937   3.881   1.079
   83c3c     N4 1565   1.295   2.742   3.594
   83c3c     C1 1566   1.315   2.599   3.621
   83c3c     C1 1567   1.159   2.781   3.637
   83c3c     C2 1568   1.185   2.540   3.676
   83c3c     C2 1569   1.086   2.656   3.687
   83c3c     C1 1570   1.392   2.819   3.672
   83c3c     C1 1571   1.314   2.771   3.452
   83c3c     H1 1572   1.398   2.581   3.690
   83c3c     H1 1573   1.347   2.544   3.532
   83c3c     H1 1574   1.161   2.857   3.715
   83c3c     H1 1575   1.102   2.829   3.557
   83c3c     HC 1576   1.204   2.496   3.774
   83c3c     HC 1577   1.147   2.462   3.611
   83c3c     HC 1578   1.054   2.671   3.789
   83c3c     HC 1579   0.997   2.637   3.627
   83c3c     H1 1580   1.495   2.792   3.645
   83c3c     H1 1581   1.380   2.926   3.657
   83c3c     H1 1582   1.381   2.799   3.779
   83c3c     H1 1583   1.302   2.877   3.433
   83c3c     H1 1584   1.415   2.745   3.422
   83c3c     C2 1585   1.213   2.693   3.364
   83c3c     HC 1586   1.110   2.716   3.389
   83c3c     HC 1587   1.222   2.585   3.378
   83c3c     CT 1588   1.233   2.723   3.218
   83c3c     HC 1589   1.334   2.695   3.188
   83c3c     HC 1590   1.219   2.829   3.200
   83c3c     HC 1591   1.161   2.666   3.159
   84c3c     N4 1592   1.561   2.194   3.353
   84c3c     C1 1593   1.677   2.278   3.320
   84c3c     C1 1594   1.583   2.058   3.301
   84c3c     C2 1595   1.775   2.195   3.236
   84c3c     C2 1596   1.714   2.055   3.224
   84c3c     C1 1597   1.549   2.186   3.499
   84c3c     C1 1598   1.439   2.251   3.297
   84c3c     H1 1599   1.728   2.316   3.408
   84c3c     H1 1600   1.650   2.369   3.266
   84c3c     H1 1601   1.584   1.983   3.380
   84c3c     H1 1602   1.501   2.024   3.237
   84c3c     HC 1603   1.872   2.192   3.285
   84c3c     HC 1604   1.789   2.240   3.137
   84c3c     HC 1605   1.781   1.980   3.267
   84c3c     HC 1606   1.698   2.028   3.119
   84c3c     H1 1607   1.535   2.285   3.543
   84c3c     H1 1608   1.466   2.124   3.529
   84c3c     H1 1609   1.639   2.144   3.543
   84c3c     H1 1610   1.353   2.190   3.326
   84c3c     H1 1611   1.422   2.350   3.339
   84c3c     C2 1612   1.445   2.261   3.144
   84c3c     HC 1613   1.461   2.164   3.096
   84c3c     HC 1614   1.529   2.323   3.110
   84c3c     CT 1615   1.318   2.320   3.087
   84c3c     HC 1616   1.304   2.421   3.127
   84c3c     HC 1617   1.233   2.258   3.114
   84c3c     HC 1618   1.327   2.326   2.979
   85c3c     N4 1619   3.415   4.944   6.482
   85c3c     C1 1620   3.465   4.857   6.590
   85c3c     C1 1621   3.356   5.066   6.541
   85c3c     C2 1622   3.429   4.921   6.724
   85c3c     C2 1623   3.360   5.053   6.693
   85c3c     C1 1624   3.528   4.983   6.398
   85c3c     C1 1625   3.316   4.873   6.400
   85c3c     H1 1626   3.572   4.840   6.584
   85c3c     H1 1627   3.423   4.756   6.585
   85c3c     H1 1628   3.407   5.156   6.509
   85c3c     H1 1629   3.253   5.083   6.508
   85c3c     HC 1630   3.520   4.937   6.783
   85c3c     HC 1631   3.364   4.856   6.783
   85c3c     HC 1632   3.415   5.137   6.735
   85c3c     HC 1633   3.260   5.056   6.735
   85c3c     H1 1634   3.576   4.896   6.353
   85c3c     H1 1635   3.496   5.050   6.317
   85c3c     H1 1636   3.603   5.036   6.457
   85c3c     H1 1637   3.282   4.937   6.319
   85c3c     H1 1638   3.362   4.785   6.355
   85c3c     C2 1639   3.194   4.829   6.484
   85c3c     HC 1640   3.144   4.914   6.531
   85c3c     HC 1641   3.222   4.764   6.567
   85c3c     CT 1642   3.093   4.757   6.399
   85c3c     HC 1643   3.138   4.667   6.356
   85c3c     HC 1644   3.058   4.822   6.320
   85c3c     HC 1645   3.008   4.727   6.461
   86c3c     N4 1646   6.519   1.414   3.548
   86c3c     C1 1647   6.488   1.298   3.462
   86c3c     C1 1648   6.394   1.469   3.603
   86c3c     C2 1649   6.337   1.281   3.457
   86c3c     C2 1650   6.277   1.389   3.546
   86c3c     C1 1651   6.605   1.370   3.658
   86c3c     C1 1652   6.590   1.517   3.470
   86c3c     H1 1653   6.535   1.206   3.499
   86c3c     H1 1654   6.529   1.307   3.362
   86c3c     H1 1655   6.393   1.465   3.712
   86c3c     H1 1656   6.382   1.575   3.582
   86c3c     HC 1657   6.309   1.182   3.492
   86c3c     HC 1658   6.300   1.290   3.354
   86c3c     HC 1659   6.219   1.346   3.628
   86c3c     HC 1660   6.210   1.454   3.490
   86c3c     H1 1661   6.698   1.327   3.622
   86c3c     H1 1662   6.629   1.452   3.725
   86c3c     H1 1663   6.554   1.293   3.717
   86c3c     H1 1664   6.616   1.601   3.535
   86c3c     H1 1665   6.684   1.477   3.432
   86c3c     C2 1666   6.505   1.568   3.352
   86c3c     HC 1667   6.410   1.610   3.385
   86c3c     HC 1668   6.477   1.488   3.284
   86c3c     CT 1669   6.578   1.673   3.273
   86c3c     HC 1670   6.671   1.632   3.234
   86c3c     HC 1671   6.601   1.758   3.338
   86c3c     HC 1672   6.515   1.707   3.191
   87c3c     N4 1673   2.645   3.384   5.671
   87c3c     C1 1674   2.637   3.384   5.524
   87c3c     C1 1675   2.594   3.256   5.723
   87c3c     C2 1676   2.571   3.254   5.479
   87c3c     C2 1677   2.544   3.172   5.605
   87c3c     C1 1678   2.786   3.397   5.710
   87c3c     C1 1679   2.569   3.496   5.727
   87c3c     H1 1680   2.735   3.395   5.477
   87c3c     H1 1681   2.582   3.470   5.485
   87c3c     H1 1682   2.670   3.201   5.779
   87c3c     H1 1683   2.514   3.269   5.796
   87c3c     HC 1684   2.638   3.200   5.411
   87c3c     HC 1685   2.479   3.274   5.425
   87c3c     HC 1686   2.596   3.077   5.603
   87c3c     HC 1687   2.437   3.150   5.616
   87c3c     H1 1688   2.828   3.490   5.673
   87c3c     H1 1689   2.797   3.396   5.819
   87c3c     H1 1690   2.845   3.315   5.670
   87c3c     H1 1691   2.578   3.497   5.835
   87c3c     H1 1692   2.609   3.590   5.691
   87c3c     C2 1693   2.419   3.487   5.689
   87c3c     HC 1694   2.373   3.394   5.724
   87c3c     HC 1695   2.404   3.487   5.581
   87c3c     CT 1696   2.341   3.602   5.746
   87c3c     HC 1697   2.381   3.696   5.708
   87c3c     HC 1698   2.349   3.601   5.855
   87c3c     HC 1699   2.236   3.593   5.718
   88c3c     N4 1700   3.807   2.895   5.984
   88c3c     C1 1701   3.689   2.847   5.911
   88c3c     C1 1702   3.886   2.781   6.032
   88c3c     C2 1703   3.687   2.694   5.918
   88c3c     C2 1704   3.812   2.652   5.994
   88c3c     C1 1705   3.890   2.974   5.892
   88c3c     C1 1706   3.767   2.980   6.097
   88c3c     H1 1707   3.688   2.880   5.807
   88c3c     H1 1708   3.596   2.887   5.950
   88c3c     H1 1709   3.987   2.779   5.990
   88c3c     H1 1710   3.904   2.783   6.139
   88c3c     HC 1711   3.687   2.653   5.817
   88c3c     HC 1712   3.596   2.659   5.967
   88c3c     HC 1713   3.876   2.589   5.933
   88c3c     HC 1714   3.786   2.595   6.084
   88c3c     H1 1715   3.836   3.060   5.853
   88c3c     H1 1716   3.980   3.011   5.942
   88c3c     H1 1717   3.922   2.913   5.808
   88c3c     H1 1718   3.855   3.018   6.148
   88c3c     H1 1719   3.712   3.067   6.060
   88c3c     C2 1720   3.679   2.902   6.197
   88c3c     HC 1721   3.730   2.815   6.238
   88c3c     HC 1722   3.588   2.863   6.151
   88c3c     CT 1723   3.638   2.990   6.313
   88c3c     HC 1724   3.580   3.075   6.276
   88c3c     HC 1725   3.726   3.026   6.365
   88c3c     HC 1726   3.576   2.932   6.381
   89c3c     N4 1727   5.999   2.467   3.339
   89c3c     C1 1728   6.101   2.515   3.434
   89c3c     C1 1729   6.041   2.336   3.285
   89c3c     C2 1730   6.217   2.415   3.436
   89c3c     C2 1731   6.179   2.302   3.341
   89c3c     C1 1732   5.873   2.450   3.411
   89c3c     C1 1733   5.981   2.564   3.230
   89c3c     H1 1734   6.061   2.529   3.534
   89c3c     H1 1735   6.138   2.615   3.409
   89c3c     H1 1736   5.969   2.258   3.308
   89c3c     H1 1737   6.043   2.335   3.176
   89c3c     HC 1738   6.232   2.379   3.537
   89c3c     HC 1739   6.310   2.463   3.404
   89c3c     HC 1740   6.174   2.207   3.394
   89c3c     HC 1741   6.251   2.291   3.261
   89c3c     H1 1742   5.839   2.544   3.454
   89c3c     H1 1743   5.794   2.413   3.345
   89c3c     H1 1744   5.884   2.379   3.492
   89c3c     H1 1745   5.903   2.529   3.163
   89c3c     H1 1746   5.947   2.659   3.270
   89c3c     C2 1747   6.111   2.586   3.151
   89c3c     HC 1748   6.149   2.493   3.107
   89c3c     HC 1749   6.192   2.622   3.214
   89c3c     CT 1750   6.091   2.685   3.039
   89c3c     HC 1751   6.060   2.781   3.080
   89c3c     HC 1752   6.015   2.649   2.970
   89c3c     HC 1753   6.185   2.698   2.985
   90c3c     N4 1754   0.872   3.597   0.351
   90c3c     C1 1755   0.887   3.736   0.305
   90c3c     C1 1756   0.731   3.573   0.389
   90c3c     C2 1757   0.753   3.807   0.320
   90c3c     C2 1758   0.654   3.704   0.373
   90c3c     C1 1759   0.907   3.507   0.241
   90c3c     C1 1760   0.960   3.571   0.465
   90c3c     H1 1761   0.922   3.741   0.202
   90c3c     H1 1762   0.965   3.790   0.359
   90c3c     H1 1763   0.686   3.494   0.329
   90c3c     H1 1764   0.721   3.535   0.490
   90c3c     HC 1765   0.721   3.846   0.223
   90c3c     HC 1766   0.761   3.892   0.388
   90c3c     HC 1767   0.571   3.689   0.304
   90c3c     HC 1768   0.612   3.735   0.469
   90c3c     H1 1769   1.010   3.522   0.209
   90c3c     H1 1770   0.896   3.402   0.270
   90c3c     H1 1771   0.843   3.524   0.155
   90c3c     H1 1772   0.951   3.467   0.496
   90c3c     H1 1773   1.064   3.585   0.436
   90c3c     C2 1774   0.928   3.663   0.585
   90c3c     HC 1775   0.825   3.651   0.619
   90c3c     HC 1776   0.937   3.769   0.559
   90c3c     CT 1777   1.019   3.636   0.701
   90c3c     HC 1778   1.123   3.653   0.672
   90c3c     HC 1779   1.008   3.532   0.734
   90c3c     HC 1780   0.994   3.702   0.784
   91c3c     N4 1781   4.184   5.664   3.653
   91c3c     C1 1782   4.113   5.782   3.601
   91c3c     C1 1783   4.087   5.571   3.713
   91c3c     C2 1784   3.965   5.769   3.636
   91c3c     C2 1785   3.948   5.635   3.707
   91c3c     C1 1786   4.250   5.597   3.541
   91c3c     C1 1787   4.284   5.704   3.752
   91c3c     H1 1788   4.126   5.794   3.494
   91c3c     H1 1789   4.152   5.876   3.641
   91c3c     H1 1790   4.086   5.474   3.663
   91c3c     H1 1791   4.112   5.545   3.816
   91c3c     HC 1792   3.905   5.773   3.545
   91c3c     HC 1793   3.932   5.852   3.699
   91c3c     HC 1794   3.880   5.570   3.652
   91c3c     HC 1795   3.907   5.648   3.807
   91c3c     H1 1796   4.322   5.662   3.492
   91c3c     H1 1797   4.303   5.507   3.574
   91c3c     H1 1798   4.178   5.566   3.466
   91c3c     H1 1799   4.339   5.617   3.787
   91c3c     H1 1800   4.358   5.770   3.706
   91c3c     C2 1801   4.220   5.776   3.872
   91c3c     HC 1802   4.147   5.713   3.923
   91c3c     HC 1803   4.166   5.865   3.843
   91c3c     CT 1804   4.325   5.816   3.974
   91c3c     HC 1805   4.396   5.884   3.927
   91c3c     HC 1806   4.377   5.728   4.010
   91c3c     HC 1807   4.276   5.867   4.057
   92c3c     N4 1808   3.735   3.289   6.921
   92c3c     C1 1809   3.791   3.302   6.786
   92c3c     C1 1810   3.834   3.335   7.020
   92c3c     C2 1811   3.936   3.352   6.797
   92c3c     C2 1812   3.963   3.372   6.946
   92c3c     C1 1813   3.616   3.374   6.931
   92c3c     C1 1814   3.698   3.150   6.947
   92c3c     H1 1815   3.733   3.370   6.723
   92c3c     H1 1816   3.788   3.208   6.730
   92c3c     H1 1817   3.798   3.419   7.079
   92c3c     H1 1818   3.855   3.260   7.096
   92c3c     HC 1819   3.947   3.445   6.742
   92c3c     HC 1820   4.005   3.279   6.754
   92c3c     HC 1821   3.988   3.476   6.968
   92c3c     HC 1822   4.046   3.311   6.980
   92c3c     H1 1823   3.540   3.344   6.859
   92c3c     H1 1824   3.572   3.368   7.031
   92c3c     H1 1825   3.642   3.478   6.912
   92c3c     H1 1826   3.653   3.141   7.046
   92c3c     H1 1827   3.621   3.117   6.877
   92c3c     C2 1828   3.819   3.055   6.938
   92c3c     HC 1829   3.898   3.082   7.009
   92c3c     HC 1830   3.867   3.058   6.840
   92c3c     CT 1831   3.780   2.912   6.965
   92c3c     HC 1832   3.705   2.880   6.892
   92c3c     HC 1833   3.737   2.904   7.066
   92c3c     HC 1834   3.867   2.848   6.958
   93c3c     N4 1835   2.332   2.994   2.658
   93c3c     C1 1836   2.436   3.097   2.665
   93c3c     C1 1837   2.200   3.057   2.644
   93c3c     C2 1838   2.368   3.234   2.664
   93c3c     C2 1839   2.218   3.209   2.651
   93c3c     C1 1840   2.356   2.911   2.539
   93c3c     C1 1841   2.335   2.909   2.777
   93c3c     H1 1842   2.508   3.090   2.584
   93c3c     H1 1843   2.499   3.087   2.754
   93c3c     H1 1844   2.149   3.029   2.552
   93c3c     H1 1845   2.129   3.025   2.721
   93c3c     HC 1846   2.406   3.293   2.581
   93c3c     HC 1847   2.391   3.290   2.756
   93c3c     HC 1848   2.178   3.255   2.561
   93c3c     HC 1849   2.164   3.251   2.736
   93c3c     H1 1850   2.454   2.862   2.544
   93c3c     H1 1851   2.280   2.833   2.529
   93c3c     H1 1852   2.354   2.972   2.449
   93c3c     H1 1853   2.261   2.830   2.770
   93c3c     H1 1854   2.432   2.859   2.785
   93c3c     C2 1855   2.310   2.990   2.906
   93c3c     HC 1856   2.214   3.041   2.905
   93c3c     HC 1857   2.383   3.070   2.920
   93c3c     CT 1858   2.314   2.902   3.028
   93c3c     HC 1859   2.412   2.855   3.036
   93c3c     HC 1860   2.237   2.825   3.021
   93c3c     HC 1861   2.296   2.963   3.117
   94c3c     N4 1862   2.251   6.141   1.242
   94c3c     C1 1863   2.212   6.277   1.283
   94c3c     C1 1864   2.136   6.074   1.180
   94c3c     C2 1865   2.063   6.296   1.253
   94c3c     C2 1866   2.015   6.167   1.187
   94c3c     C1 1867   2.358   6.151   1.143
   94c3c     C1 1868   2.299   6.065   1.357
   94c3c     H1 1869   2.270   6.354   1.232
   94c3c     H1 1870   2.232   6.297   1.388
   94c3c     H1 1871   2.155   6.045   1.077
   94c3c     H1 1872   2.113   5.978   1.227
   94c3c     HC 1873   2.049   6.381   1.186
   94c3c     HC 1874   2.007   6.317   1.344
   94c3c     HC 1875   1.976   6.185   1.087
   94c3c     HC 1876   1.934   6.121   1.245
   94c3c     H1 1877   2.446   6.202   1.184
   94c3c     H1 1878   2.390   6.053   1.108
   94c3c     H1 1879   2.325   6.207   1.056
   94c3c     H1 1880   2.331   5.966   1.326
   94c3c     H1 1881   2.386   6.113   1.401
   94c3c     C2 1882   2.190   6.051   1.466
   94c3c     HC 1883   2.100   6.001   1.428
   94c3c     HC 1884   2.155   6.148   1.502
   94c3c     CT 1885   2.240   5.972   1.584
   94c3c     HC 1886   2.325   6.023   1.628
   94c3c     HC 1887   2.269   5.872   1.552
   94c3c     HC 1888   2.160   5.964   1.658
   95c3c     N4 1889   4.169   0.845   5.041
   95c3c     C1 1890   4.043   0.920   5.055
   95c3c     C1 1891   4.142   0.701   5.053
   95c3c     C2 1892   3.931   0.821   5.084
   95c3c     C2 1893   3.993   0.682   5.083
   95c3c     C1 1894   4.225   0.871   4.908
   95c3c     C1 1895   4.265   0.887   5.143
   95c3c     H1 1896   4.020   0.979   4.966
   95c3c     H1 1897   4.048   0.996   5.133
   95c3c     H1 1898   4.170   0.646   4.963
   95c3c     H1 1899   4.202   0.653   5.130
   95c3c     HC 1900   3.853   0.830   5.008
   95c3c     HC 1901   3.885   0.843   5.181
   95c3c     HC 1902   3.948   0.619   5.006
   95c3c     HC 1903   3.979   0.632   5.179
   95c3c     H1 1904   4.246   0.978   4.894
   95c3c     H1 1905   4.318   0.817   4.893
   95c3c     H1 1906   4.155   0.841   4.830
   95c3c     H1 1907   4.360   0.834   5.130
   95c3c     H1 1908   4.288   0.993   5.132
   95c3c     C2 1909   4.212   0.862   5.285
   95c3c     HC 1910   4.189   0.757   5.303
   95c3c     HC 1911   4.119   0.915   5.305
   95c3c     CT 1912   4.312   0.906   5.389
   95c3c     HC 1913   4.332   1.012   5.379
   95c3c     HC 1914   4.405   0.850   5.378
   95c3c     HC 1915   4.271   0.887   5.489
   96c3c     N4 1916   1.697   3.454   0.648
   96c3c     C1 1917   1.805   3.369   0.700
   96c3c     C1 1918   1.586   3.455   0.745
   96c3c     C2 1919   1.761   3.307   0.832
   96c3c     C2 1920   1.621   3.362   0.861
   96c3c     C1 1921   1.747   3.590   0.632
   96c3c     C1 1922   1.650   3.404   0.519
   96c3c     H1 1923   1.898   3.425   0.713
   96c3c     H1 1924   1.834   3.291   0.630
   96c3c     H1 1925   1.565   3.556   0.782
   96c3c     H1 1926   1.491   3.426   0.701
   96c3c     HC 1927   1.831   3.335   0.911
   96c3c     HC 1928   1.760   3.198   0.826
   96c3c     HC 1929   1.619   3.418   0.955
   96c3c     HC 1930   1.548   3.282   0.870
   96c3c     H1 1931   1.830   3.594   0.562
   96c3c     H1 1932   1.669   3.657   0.595
   96c3c     H1 1933   1.782   3.630   0.727
   96c3c     H1 1934   1.572   3.469   0.479
   96c3c     H1 1935   1.731   3.406   0.446
   96c3c     C2 1936   1.595   3.260   0.529
   96c3c     HC 1937   1.512   3.252   0.599
   96c3c     HC 1938   1.670   3.190   0.566
   96c3c     CT 1939   1.548   3.209   0.395
   96c3c     HC 1940   1.630   3.209   0.324
   96c3c     HC 1941   1.468   3.274   0.358
   96c3c     HC 1942   1.510   3.108   0.406
   97c3c     N4 1943   3.243   4.619   5.916
   97c3c     C1 1944   3.281   4.479   5.942
   97c3c     C1 1945   3.099   4.637   5.943
   97c3c     C2 1946   3.155   4.401   5.980
   97c3c     C2 1947   3.040   4.501   5.981
   97c3c     C1 1948   3.318   4.706   6.006
   97c3c     C1 1949   3.274   4.655   5.777
   97c3c     H1 1950   3.356   4.471   6.021
   97c3c     H1 1951   3.330   4.432   5.857
   97c3c     H1 1952   3.080   4.710   6.021
   97c3c     H1 1953   3.045   4.678   5.858
   97c3c     HC 1954   3.169   4.356   6.079
   97c3c     HC 1955   3.137   4.320   5.910
   97c3c     HC 1956   2.994   4.507   6.079
   97c3c     HC 1957   2.962   4.471   5.910
   97c3c     H1 1958   3.426   4.696   5.991
   97c3c     H1 1959   3.292   4.811   5.991
   97c3c     H1 1960   3.297   4.681   6.110
   97c3c     H1 1961   3.248   4.760   5.759
   97c3c     H1 1962   3.381   4.645   5.759
   97c3c     C2 1963   3.197   4.567   5.677
   97c3c     HC 1964   3.089   4.574   5.690
   97c3c     HC 1965   3.219   4.461   5.689
   97c3c     CT 1966   3.229   4.605   5.535
   97c3c     HC 1967   3.336   4.592   5.516
   97c3c     HC 1968   3.201   4.709   5.517
   97c3c     HC 1969   3.173   4.540   5.467
   98c3c     N4 1970   0.310   3.496   3.960
   98c3c     C1 1971   0.409   3.387   3.952
   98c3c     C1 1972   0.380   3.626   3.959
   98c3c     C2 1973   0.549   3.448   3.954
   98c3c     C2 1974   0.531   3.600   3.958
   98c3c     C1 1975   0.223   3.489   3.842
   98c3c     C1 1976   0.229   3.483   4.081
   98c3c     H1 1977   0.395   3.325   3.864
   98c3c     H1 1978   0.398   3.315   4.034
   98c3c     H1 1979   0.352   3.687   3.873
   98c3c     H1 1980   0.353   3.689   4.043
   98c3c     HC 1981   0.603   3.418   3.865
   98c3c     HC 1982   0.605   3.413   4.041
   98c3c     HC 1983   0.576   3.647   3.871
   98c3c     HC 1984   0.578   3.643   4.046
   98c3c     H1 1985   0.170   3.394   3.838
   98c3c     H1 1986   0.149   3.569   3.843
   98c3c     H1 1987   0.281   3.498   3.751
   98c3c     H1 1988   0.153   3.562   4.084
   98c3c     H1 1989   0.174   3.389   4.080
   98c3c     C2 1990   0.315   3.490   4.209
   98c3c     HC 1991   0.370   3.584   4.216
   98c3c     HC 1992   0.391   3.413   4.212
   98c3c     CT 1993   0.230   3.477   4.333
   98c3c     HC 1994   0.178   3.381   4.332
   98c3c     HC 1995   0.157   3.558   4.336
   98c3c     HC 1996   0.294   3.483   4.421
   99c3c     N4 1997   6.238   2.507   6.895
   99c3c     C1 1998   6.187   2.534   6.760
   99c3c     C1 1999   6.365   2.433   6.885
   99c3c     C2 2000   6.281   2.470   6.658
   99c3c     C2 2001   6.394   2.405   6.738
   99c3c     C1 2002   6.263   2.634   6.963
   99c3c     C1 2003   6.140   2.429   6.972
   99c3c     H1 2004   6.178   2.642   6.742
   99c3c     H1 2005   6.085   2.498   6.746
   99c3c     H1 2006   6.448   2.487   6.931
   99c3c     H1 2007   6.364   2.340   6.942
   99c3c     HC 2008   6.319   2.546   6.590
   99c3c     HC 2009   6.228   2.395   6.599
   99c3c     HC 2010   6.491   2.448   6.711
   99c3c     HC 2011   6.400   2.298   6.719
   99c3c     H1 2012   6.172   2.693   6.973
   99c3c     H1 2013   6.302   2.618   7.064
   99c3c     H1 2014   6.336   2.694   6.909
   99c3c     H1 2015   6.177   2.412   7.073
   99c3c     H1 2016   6.048   2.486   6.983
   99c3c     C2 2017   6.110   2.293   6.906
   99c3c     HC 2018   6.199   2.232   6.895
   99c3c     HC 2019   6.071   2.305   6.804
   99c3c     CT 2020   6.009   2.215   6.985
   99c3c     HC 2021   5.916   2.270   6.993
   99c3c     HC 2022   6.048   2.196   7.085
   99c3c     HC 2023   5.990   2.120   6.936
  100c3c     N4 2024   3.203   2.775   1.954
  100c3c     C1 2025   3.282   2.899   1.962
  100c3c     C1 2026   3.062   2.809   1.929
  100c3c     C2 2027   3.187   3.018   1.949
  100c3c     C2 2028   3.048   2.961   1.928
  100c3c     C1 2029   3.253   2.695   1.843
  100c3c     C1 2030   3.216   2.699   2.078
  100c3c     H1 2031   3.360   2.904   1.886
  100c3c     H1 2032   3.339   2.907   2.055
  100c3c     H1 2033   3.026   2.766   1.835
  100c3c     H1 2034   2.995   2.765   2.003
  100c3c     HC 2035   3.218   3.080   1.864
  100c3c     HC 2036   3.191   3.081   2.038
  100c3c     HC 2037   3.006   2.993   1.832
  100c3c     HC 2038   2.979   2.994   2.006
  100c3c     H1 2039   3.358   2.669   1.856
  100c3c     H1 2040   3.197   2.602   1.832
  100c3c     H1 2041   3.245   2.750   1.749
  100c3c     H1 2042   3.160   2.605   2.071
  100c3c     H1 2043   3.320   2.671   2.095
  100c3c     C2 2044   3.165   2.778   2.200
  100c3c     HC 2045   3.060   2.807   2.190
  100c3c     HC 2046   3.219   2.872   2.214
  100c3c     CT 2047   3.178   2.699   2.327
  100c3c     HC 2048   3.283   2.674   2.345
  100c3c     HC 2049   3.120   2.607   2.320
  100c3c     HC 2050   3.141   2.758   2.411
  101fsi    FSI 2051   4.396   3.048   4.106
  101fsi    SBT 2052   4.442   3.148   3.992
  101fsi    NBT 2053   4.308   3.218   3.959
  101fsi    OBT 2054   4.540   3.232   4.056
  101fsi    OBT 2055   4.488   3.063   3.887
  101fsi    SBT 2056   4.252   3.337   4.042
  101fsi    OBT 2057   4.308   3.346   4.174
  101fsi    OBT 2058   4.110   3.347   4.031
  101fsi    FSI 2059   4.311   3.460   3.962
  102fsi    FSI 2060   1.844   0.324   0.992
  102fsi    SBT 2061   1.979   0.376   0.929
  102fsi    NBT 2062   1.996   0.280   0.809
  102fsi    OBT 2063   1.951   0.514   0.893
  102fsi    OBT 2064   2.077   0.355   1.030
  102fsi    SBT 2065   1.924   0.301   0.673
  102fsi    OBT 2066   1.809   0.389   0.682
  102fsi    OBT 2067   1.907   0.180   0.600
  102fsi    FSI 2068   2.033   0.384   0.593
  103fsi    FSI 2069   4.452   5.910   2.970
  103fsi    SBT 2070   4.303   5.952   2.940
  103fsi    NBT 2071   4.325   6.075   2.848
  103fsi    OBT 2072   4.244   5.838   2.876
  103fsi    OBT 2073   4.250   5.990   3.068
  103fsi    SBT 2074   4.350   6.062   2.696
  103fsi    OBT 2075   4.399   5.932   2.657
  103fsi    OBT 2076   4.421   6.176   2.645
  103fsi    FSI 2077   4.203   6.072   2.638
  104fsi    FSI 2078   3.735   1.218   6.011
  104fsi    SBT 2079   3.696   1.067   6.034
  104fsi    NBT 2080   3.835   0.999   6.031
  104fsi    OBT 2081   3.631   1.065   6.163
  104fsi    OBT 2082   3.616   1.032   5.921
  104fsi    SBT 2083   3.929   0.994   6.154
  104fsi    OBT 2084   3.899   1.093   6.254
  104fsi    OBT 2085   4.067   0.981   6.116
  104fsi    FSI 2086   3.889   0.855   6.218
  105fsi    FSI 2087   2.315   2.064   2.779
  105fsi    SBT 2088   2.436   2.105   2.686
  105fsi    NBT 2089   2.437   2.259   2.705
  105fsi    OBT 2090   2.549   2.035   2.743
  105fsi    OBT 2091   2.394   2.067   2.555
  105fsi    SBT 2092   2.507   2.328   2.825
  105fsi    OBT 2093   2.527   2.240   2.937
  105fsi    OBT 2094   2.450   2.456   2.852
  105fsi    FSI 2095   2.651   2.356   2.765
  106fsi    FSI 2096   1.581   5.210   1.837
  106fsi    SBT 2097   1.687   5.093   1.840
  106fsi    NBT 2098   1.594   4.968   1.839
  106fsi    OBT 2099   1.765   5.110   1.719
  106fsi    OBT 2100   1.756   5.107   1.964
  106fsi    SBT 2101   1.534   4.911   1.709
  106fsi    OBT 2102   1.530   5.004   1.599
  106fsi    OBT 2103   1.414   4.836   1.734
  106fsi    FSI 2104   1.642   4.803   1.669
  107fsi    FSI 2105   1.221   4.792   6.512
  107fsi    SBT 2106   1.126   4.909   6.464
  107fsi    NBT 2107   1.202   5.033   6.518
  107fsi    OBT 2108   1.123   4.897   6.320
  107fsi    OBT 2109   1.003   4.887   6.534
  107fsi    SBT 2110   1.321   5.097   6.441
  107fsi    OBT 2111   1.383   5.010   6.345
  107fsi    OBT 2112   1.408   5.170   6.529
  107fsi    FSI 2113   1.246   5.208   6.356
  108fsi    FSI 2114   1.181   4.938   5.320
  108fsi    SBT 2115   1.306   4.930   5.223
  108fsi    NBT 2116   1.424   4.936   5.324
  108fsi    OBT 2117   1.292   4.804   5.154
  108fsi    OBT 2118   1.298   5.048   5.143
  108fsi    SBT 2119   1.474   4.811   5.401
  108fsi    OBT 2120   1.379   4.702   5.405
  108fsi    OBT 2121   1.540   4.846   5.523
  108fsi    FSI 2122   1.590   4.761   5.304
  109fsi    FSI 2123   2.941   5.854   1.680
  109fsi    SBT 2124   2.908   5.877   1.832
  109fsi    NBT 2125   2.874   5.733   1.879
  109fsi    OBT 2126   3.028   5.933   1.890
  109fsi    OBT 2127   2.793   5.962   1.832
  109fsi    SBT 2128   2.984   5.630   1.918
  109fsi    OBT 2129   3.114   5.662   1.868
  109fsi    OBT 2130   2.938   5.495   1.902
  109fsi    FSI 2131   2.994   5.653   2.074
  110fsi    FSI 2132   3.411   5.735   0.291
  110fsi    SBT 2133   3.496   5.702   0.420
  110fsi    NBT 2134   3.396   5.613   0.499
  110fsi    OBT 2135   3.611   5.631   0.370
  110fsi    OBT 2136   3.518   5.828   0.483
  110fsi    SBT 2137   3.378   5.462   0.472
  110fsi    OBT 2138   3.424   5.420   0.341
  110fsi    OBT 2139   3.249   5.415   0.511
  110fsi    FSI 2140   3.481   5.399   0.574
  111fsi    FSI 2141   4.671   1.784   4.622
  111fsi    SBT 2142   4.828   1.776   4.636
  111fsi    NBT 2143   4.846   1.627   4.676
  111fsi    OBT 2144   4.877   1.810   4.504
  111fsi    OBT 2145   4.858   1.865   4.743
  111fsi    SBT 2146   4.850   1.513   4.572
  111fsi    OBT 2147   4.790   1.547   4.446
  111fsi    OBT 2148   4.813   1.387   4.629
  111fsi    FSI 2149   5.006   1.502   4.543
  112fsi    FSI 2150   6.036   5.373   3.838
  112fsi    SBT 2151   5.970   5.514   3.860
  112fsi    NBT 2152   6.069   5.606   3.783
  112fsi    OBT 2153   5.839   5.504   3.802
  112fsi    OBT 2154   5.977   5.536   4.002
  112fsi    SBT 2155   6.061   5.626   3.630
  112fsi    OBT 2156   5.990   5.521   3.561
  112fsi    OBT 2157   6.187   5.665   3.578
  112fsi    FSI 2158   5.969   5.755   3.620
  113fsi    FSI 2159   1.717   6.203   2.498
  113fsi    SBT 2160   1.828   6.316   2.500
  113fsi    NBT 2161   1.751   6.436   2.438
  113fsi    OBT 2162   1.863   6.333   2.638
  113fsi    OBT 2163   1.930   6.270   2.411
  113fsi    SBT 2164   1.657   6.525   2.523
  113fsi    OBT 2165   1.613   6.466   2.646
  113fsi    OBT 2166   1.557   6.590   2.442
  113fsi    FSI 2167   1.756   6.641   2.565
  114fsi    FSI 2168   6.781   2.795   1.926
  114fsi    SBT 2169   6.719   2.930   1.980
  114fsi    NBT 2170   6.840   3.026   1.967
  114fsi    OBT 2171   6.610   2.959   1.890
  114fsi    OBT 2172   6.687   2.903   2.117
  114fsi    SBT 2173   6.877   3.096   1.834
  114fsi    OBT 2174   6.823   3.033   1.717
  114fsi    OBT 2175   7.016   3.132   1.829
  114fsi    FSI 2176   6.799   3.233   1.848
  115fsi    FSI 2177   6.041   6.648   5.263
  115fsi    SBT 2178   6.008   6.689   5.412
  115fsi    NBT 2179   6.027   6.843   5.405
  115fsi    OBT 2180   5.872   6.645   5.434
  115fsi    OBT 2181   6.110   6.626   5.490
  115fsi    SBT 2182   5.916   6.939   5.354
  115fsi    OBT 2183   5.817   6.873   5.273
  115fsi    OBT 2184   5.971   7.061   5.304
  115fsi    FSI 2185   5.843   6.976   5.489
  116fsi    FSI 2186   4.104   3.165   1.486
  116fsi    SBT 2187   4.011   3.217   1.603
  116fsi    NBT 2188   4.107   3.313   1.678
  116fsi    OBT 2189   3.900   3.281   1.536
  116fsi    OBT 2190   3.980   3.101   1.680
  116fsi    SBT 2191   4.132   3.459   1.631
  116fsi    OBT 2192   4.095   3.483   1.494
  116fsi    OBT 2193   4.258   3.508   1.676
  116fsi    FSI 2194   4.023   3.537   1.717
  117fsi    FSI 2195   3.335   5.798   1.464
  117fsi    SBT 2196   3.363   5.771   1.617
  117fsi    NBT 2197   3.330   5.620   1.627
  117fsi    OBT 2198   3.503   5.804   1.635
  117fsi    OBT 2199   3.269   5.854   1.685
  117fsi    SBT 2200   3.432   5.509   1.589
  117fsi    OBT 2201   3.538   5.556   1.503
  117fsi    OBT 2202   3.368   5.387   1.552
  117fsi    FSI 2203   3.501   5.481   1.729
  118fsi    FSI 2204   2.348   2.882   3.881
  118fsi    SBT 2205   2.335   2.956   3.743
  118fsi    NBT 2206   2.265   2.848   3.657
  118fsi    OBT 2207   2.254   3.073   3.771
  118fsi    OBT 2208   2.470   2.979   3.701
  118fsi    SBT 2209   2.112   2.826   3.660
  118fsi    OBT 2210   2.046   2.880   3.776
  118fsi    OBT 2211   2.074   2.694   3.620
  118fsi    FSI 2212   2.065   2.920   3.540
  119fsi    FSI 2213   5.273   0.583   5.585
  119fsi    SBT 2214   5.239   0.524   5.443
  119fsi    NBT 2215   5.238   0.371   5.471
  119fsi    OBT 2216   5.110   0.579   5.408
  119fsi    OBT 2217   5.349   0.562   5.359
  119fsi    SBT 2218   5.115   0.298   5.531
  119fsi    OBT 2219   5.020   0.385   5.594
  119fsi    OBT 2220   5.152   0.178   5.600
  119fsi    FSI 2221   5.042   0.250   5.399
  120fsi    FSI 2222   4.438   6.059   0.561
  120fsi    SBT 2223   4.545   6.050   0.675
  120fsi    NBT 2224   4.633   6.175   0.645
  120fsi    OBT 2225   4.471   6.058   0.799
  120fsi    OBT 2226   4.617   5.929   0.649
  120fsi    SBT 2227   4.593   6.317   0.693
  120fsi    OBT 2228   4.454   6.332   0.727
  120fsi    OBT 2229   4.652   6.419   0.612
  120fsi    FSI 2230   4.670   6.325   0.832
  121fsi    FSI 2231   5.878   5.773   6.750
  121fsi    SBT 2232   6.002   5.809   6.659
  121fsi    NBT 2233   6.016   5.679   6.575
  121fsi    OBT 2234   5.959   5.924   6.583
  121fsi    OBT 2235   6.111   5.827   6.750
  121fsi    SBT 2236   5.932   5.652   6.449
  121fsi    OBT 2237   5.810   5.730   6.440
  121fsi    OBT 2238   5.920   5.512   6.421
  121fsi    FSI 2239   6.026   5.709   6.335
  122fsi    FSI 2240   5.368   0.761   1.512
  122fsi    SBT 2241   5.242   0.849   1.549
  122fsi    NBT 2242   5.128   0.774   1.475
  122fsi    OBT 2243   5.232   0.843   1.694
  122fsi    OBT 2244   5.267   0.977   1.492
  122fsi    SBT 2245   5.059   0.649   1.533
  122fsi    OBT 2246   5.133   0.583   1.638
  122fsi    OBT 2247   5.002   0.566   1.431
  122fsi    FSI 2248   4.935   0.715   1.607
  123fsi    FSI 2249   4.982   1.097   6.412
  123fsi    SBT 2250   4.894   1.058   6.287
  123fsi    NBT 2251   4.862   0.910   6.321
  123fsi    OBT 2252   4.781   1.149   6.296
  123fsi    OBT 2253   4.982   1.074   6.176
  123fsi    SBT 2254   4.745   0.868   6.413
  123fsi    OBT 2255   4.706   0.972   6.506
  123fsi    OBT 2256   4.769   0.741   6.474
  123fsi    FSI 2257   4.625   0.850   6.312
  124fsi    FSI 2258   3.611   0.570   1.177
  124fsi    SBT 2259   3.766   0.542   1.173
  124fsi    NBT 2260   3.823   0.686   1.176
  124fsi    OBT 2261   3.792   0.465   1.293
  124fsi    OBT 2262   3.789   0.477   1.048
  124fsi    SBT 2263   3.841   0.766   1.307
  124fsi    OBT 2264   3.761   0.719   1.417
  124fsi    OBT 2265   3.840   0.908   1.285
  124fsi    FSI 2266   3.990   0.730   1.346
  125fsi    FSI 2267   6.245   4.167   1.481
  125fsi    SBT 2268   6.163   4.034   1.457
  125fsi    NBT 2269   6.067   4.037   1.580
  125fsi    OBT 2270   6.099   4.053   1.329
  125fsi    OBT 2271   6.260   3.930   1.467
  125fsi    SBT 2272   5.935   4.118   1.580
  125fsi    OBT 2273   5.932   4.224   1.483
  125fsi    OBT 2274   5.895   4.152   1.713
  125fsi    FSI 2275   5.831   4.009   1.529
  126fsi    FSI 2276   6.633   2.260   1.805
  126fsi    SBT 2277   6.578   2.327   1.937
  126fsi    NBT 2278   6.540   2.468   1.886
  126fsi    OBT 2279   6.467   2.244   1.977
  126fsi    OBT 2280   6.691   2.331   2.026
  126fsi    SBT 2281   6.405   2.497   1.815
  126fsi    OBT 2282   6.341   2.380   1.761
  126fsi    OBT 2283   6.412   2.611   1.729
  126fsi    FSI 2284   6.314   2.541   1.938
  127fsi    FSI 2285   5.046   2.664   4.943
  127fsi    SBT 2286   5.162   2.557   4.941
  127fsi    NBT 2287   5.287   2.648   4.950
  127fsi    OBT 2288   5.138   2.475   5.058
  127fsi    OBT 2289   5.150   2.496   4.814
  127fsi    SBT 2290   5.341   2.703   5.084
  127fsi    OBT 2291   5.243   2.703   5.190
  127fsi    OBT 2292   5.417   2.823   5.067
  127fsi    FSI 2293   5.446   2.591   5.124
  128fsi    FSI 2294   2.872   0.163   3.858
  128fsi    SBT 2295   2.911   0.263   3.743
  128fsi    NBT 2296   2.821   0.213   3.627
  128fsi    OBT 2297   2.874   0.394   3.794
  128fsi    OBT 2298   3.049   0.240   3.718
  128fsi    SBT 2299   2.672   0.252   3.613
  128fsi    OBT 2300   2.612   0.301   3.734
  128fsi    OBT 2301   2.597   0.156   3.539
  128fsi    FSI 2302   2.683   0.379   3.518
  129fsi    FSI 2303   1.137   1.866   0.668
  129fsi    SBT 2304   1.231   1.993   0.670
  129fsi    NBT 2305   1.127   2.107   0.686
  129fsi    OBT 2306   1.316   1.974   0.786
  129fsi    OBT 2307   1.295   1.995   0.543
  129fsi    SBT 2308   1.067   2.148   0.822
  129fsi    OBT 2309   1.079   2.047   0.924
  129fsi    OBT 2310   0.939   2.211   0.808
  129fsi    FSI 2311   1.167   2.263   0.866
  130fsi    FSI 2312   1.870   6.407   0.915
  130fsi    SBT 2313   1.766   6.526   0.921
  130fsi    NBT 2314   1.860   6.649   0.923
  130fsi    OBT 2315   1.687   6.512   0.800
  130fsi    OBT 2316   1.697   6.508   1.044
  130fsi    SBT 2317   1.922   6.709   0.794
  130fsi    OBT 2318   1.923   6.618   0.682
  130fsi    OBT 2319   2.043   6.781   0.820
  130fsi    FSI 2320   1.815   6.820   0.758
  131fsi    FSI 2321   6.346   5.515   2.993
  131fsi    SBT 2322   6.431   5.463   3.115
  131fsi    NBT 2323   6.456   5.594   3.193
  131fsi    OBT 2324   6.347   5.366   3.181
  131fsi    OBT 2325   6.551   5.411   3.056
  131fsi    SBT 2326   6.352   5.653   3.292
  131fsi    OBT 2327   6.219   5.604   3.269
  131fsi    OBT 2328   6.369   5.795   3.308
  131fsi    FSI 2329   6.402   5.588   3.427
  132fsi    FSI 2330   2.602   3.984   5.356
  132fsi    SBT 2331   2.680   3.847   5.353
  132fsi    NBT 2332   2.695   3.823   5.201
  132fsi    OBT 2333   2.804   3.873   5.423
  132fsi    OBT 2334   2.591   3.752   5.413
  132fsi    SBT 2335   2.807   3.889   5.116
  132fsi    OBT 2336   2.866   4.005   5.179
  132fsi    OBT 2337   2.770   3.901   4.979
  132fsi    FSI 2338   2.919   3.777   5.121
  133fsi    FSI 2339   4.618   6.195   5.455
  133fsi    SBT 2340   4.565   6.047   5.448
  133fsi    NBT 2341   4.694   5.966   5.480
  133fsi    OBT 2342   4.461   6.039   5.548
  133fsi    OBT 2343   4.524   6.030   5.312
  133fsi    SBT 2344   4.742   5.942   5.626
  133fsi    OBT 2345   4.686   6.034   5.722
  133fsi    OBT 2346   4.883   5.918   5.632
  133fsi    FSI 2347   4.674   5.802   5.658
  134fsi    FSI 2348   5.212   6.594   4.940
  134fsi    SBT 2349   5.326   6.487   4.955
  134fsi    NBT 2350   5.252   6.359   4.906
  134fsi    OBT 2351   5.430   6.535   4.870
  134fsi    OBT 2352   5.353   6.481   5.096
  134fsi    SBT 2353   5.239   6.323   4.756
  134fsi    OBT 2354   5.254   6.435   4.668
  134fsi    OBT 2355   5.125   6.238   4.733
  134fsi    FSI 2356   5.364   6.229   4.735
  135fsi    FSI 2357   4.439   1.181   3.331
  135fsi    SBT 2358   4.390   1.251   3.198
  135fsi    NBT 2359   4.303   1.139   3.136
  135fsi    OBT 2360   4.317   1.368   3.244
  135fsi    OBT 2361   4.509   1.279   3.124
  135fsi    SBT 2362   4.156   1.113   3.177
  135fsi    OBT 2363   4.122   1.172   3.305
  135fsi    OBT 2364   4.115   0.979   3.153
  135fsi    FSI 2365   4.079   1.201   3.070
  136fsi    FSI 2366   2.359   4.571   2.237
  136fsi    SBT 2367   2.247   4.523   2.337
  136fsi    NBT 2368   2.242   4.641   2.438
  136fsi    OBT 2369   2.128   4.509   2.256
  136fsi    OBT 2370   2.298   4.404   2.396
  136fsi    SBT 2371   2.164   4.772   2.410
  136fsi    OBT 2372   2.132   4.792   2.271
  136fsi    OBT 2373   2.216   4.883   2.484
  136fsi    FSI 2374   2.025   4.738   2.479
  137fsi    FSI 2375   6.425   6.018   5.931
  137fsi    SBT 2376   6.278   6.071   5.911
  137fsi    NBT 2377   6.303   6.223   5.891
  137fsi    OBT 2378   6.229   6.002   5.793
  137fsi    OBT 2379   6.211   6.042   6.034
  137fsi    SBT 2380   6.344   6.284   5.755
  137fsi    OBT 2381   6.400   6.188   5.663
  137fsi    OBT 2382   6.415   6.408   5.770
  137fsi    FSI 2383   6.202   6.322   5.695
  138fsi    FSI 2384   1.085   6.641   5.707
  138fsi    SBT 2385   1.212   6.735   5.702
  138fsi    NBT 2386   1.326   6.630   5.690
  138fsi    OBT 2387   1.193   6.817   5.585
  138fsi    OBT 2388   1.214   6.800   5.829
  138fsi    SBT 2389   1.366   6.567   5.554
  138fsi    OBT 2390   1.265   6.577   5.452
  138fsi    OBT 2391   1.429   6.440   5.571
  138fsi    FSI 2392   1.482   6.665   5.508
  139fsi    FSI 2393   0.666   6.601   4.926
  139fsi    SBT 2394   0.770   6.514   5.007
  139fsi    NBT 2395   0.726   6.370   4.968
  139fsi    OBT 2396   0.899   6.553   4.956
  139fsi    OBT 2397   0.742   6.542   5.144
  139fsi    SBT 2398   0.772   6.302   4.836
  139fsi    OBT 2399   0.818   6.394   4.735
  139fsi    OBT 2400   0.681   6.200   4.794
  139fsi    FSI 2401   0.902   6.225   4.885
  140fsi    FSI 2402   3.553   5.799   6.776
  140fsi    SBT 2403   3.687   5.876   6.808
  140fsi    NBT 2404   3.633   6.009   6.867
  140fsi    OBT 2405   3.757   5.790   6.900
  140fsi    OBT 2406   3.747   5.895   6.679
  140fsi    SBT 2407   3.592   6.021   7.016
  140fsi    OBT 2408   3.562   5.895   7.079
  140fsi    OBT 2409   3.497   6.128   7.034
  140fsi    FSI 2410   3.727   6.073   7.082
  141fsi    FSI 2411   4.862   1.295   0.460
  141fsi    SBT 2412   4.754   1.368   0.371
  141fsi    NBT 2413   4.649   1.255   0.352
  141fsi    OBT 2414   4.707   1.478   0.453
  141fsi    OBT 2415   4.821   1.401   0.250
  141fsi    SBT 2416   4.541   1.221   0.457
  141fsi    OBT 2417   4.571   1.270   0.590
  141fsi    OBT 2418   4.495   1.086   0.447
  141fsi    FSI 2419   4.420   1.310   0.407
  142fsi    FSI 2420   5.019   0.709   6.002
  142fsi    SBT 2421   4.938   0.643   5.885
  142fsi    NBT 2422   4.811   0.593   5.958
  142fsi    OBT 2423   4.915   0.750   5.790
  142fsi    OBT 2424   5.020   0.535   5.843
  142fsi    SBT 2425   4.691   0.686   5.989
  142fsi    OBT 2426   4.724   0.827   5.986
  142fsi    OBT 2427   4.615   0.639   6.101
  142fsi    FSI 2428   4.599   0.661   5.863
  143fsi    FSI 2429   0.927   1.113   2.500
  143fsi    SBT 2430   0.901   1.206   2.624
  143fsi    NBT 2431   0.774   1.141   2.686
  143fsi    OBT 2432   1.019   1.195   2.706
  143fsi    OBT 2433   0.873   1.335   2.570
  143fsi    SBT 2434   0.781   1.016   2.778
  143fsi    OBT 2435   0.904   0.943   2.768
  143fsi    OBT 2436   0.659   0.941   2.776
  143fsi    FSI 2437   0.785   1.085   2.921
  144fsi    FSI 2438   2.489   3.852   0.732
  144fsi    SBT 2439   2.538   3.890   0.587
  144fsi    NBT 2440   2.558   4.044   0.601
  144fsi    OBT 2441   2.660   3.815   0.568
  144fsi    OBT 2442   2.428   3.857   0.502
  144fsi    SBT 2443   2.686   4.107   0.661
  144fsi    OBT 2444   2.762   4.015   0.742
  144fsi    OBT 2445   2.661   4.236   0.716
  144fsi    FSI 2446   2.772   4.130   0.531
  145fsi    FSI 2447   3.392   2.168   5.655
  145fsi    SBT 2448   3.404   2.093   5.794
  145fsi    NBT 2449   3.288   2.159   5.873
  145fsi    OBT 2450   3.385   1.954   5.762
  145fsi    OBT 2451   3.532   2.133   5.844
  145fsi    SBT 2452   3.142   2.111   5.861
  145fsi    OBT 2453   3.114   2.037   5.740
  145fsi    OBT 2454   3.049   2.215   5.895
  145fsi    FSI 2455   3.133   2.005   5.979
  146fsi    FSI 2456   4.694   4.461   6.838
  146fsi    SBT 2457   4.744   4.611   6.830
  146fsi    NBT 2458   4.870   4.595   6.742
  146fsi    OBT 2459   4.635   4.682   6.764
  146fsi    OBT 2460   4.775   4.647   6.964
  146fsi    SBT 2461   4.865   4.588   6.587
  146fsi    OBT 2462   4.736   4.552   6.534
  146fsi    OBT 2463   4.978   4.521   6.532
  146fsi    FSI 2464   4.884   4.741   6.548
  147fsi    FSI 2465   6.073   6.680   3.247
  147fsi    SBT 2466   6.182   6.779   3.302
  147fsi    NBT 2467   6.124   6.916   3.257
  147fsi    OBT 2468   6.183   6.758   3.445
  147fsi    OBT 2469   6.302   6.745   3.231
  147fsi    SBT 2470   6.015   6.991   3.338
  147fsi    OBT 2471   5.941   6.906   3.428
  147fsi    OBT 2472   5.939   7.080   3.256
  147fsi    FSI 2473   6.104   7.084   3.431
  148fsi    FSI 2474   1.797   2.115   4.517
  148fsi    SBT 2475   1.750   1.968   4.548
  148fsi    NBT 2476   1.810   1.947   4.690
  148fsi    OBT 2477   1.606   1.976   4.544
  148fsi    OBT 2478   1.815   1.887   4.450
  148fsi    SBT 2479   1.740   1.996   4.818
  148fsi    OBT 2480   1.642   2.100   4.796
  148fsi    OBT 2481   1.833   2.018   4.925
  148fsi    FSI 2482   1.656   1.869   4.860
  149fsi    FSI 2483   3.258   6.118   5.906
  149fsi    SBT 2484   3.250   6.003   5.798
  149fsi    NBT 2485   3.108   5.945   5.825
  149fsi    OBT 2486   3.264   6.070   5.671
  149fsi    OBT 2487   3.353   5.911   5.833
  149fsi    SBT 2488   2.979   6.010   5.768
  149fsi    OBT 2489   2.996   6.147   5.725
  149fsi    OBT 2490   2.864   5.979   5.846
  149fsi    FSI 2491   2.962   5.928   5.634
  150fsi    FSI 2492   2.191   2.679   4.406
  150fsi    SBT 2493   2.165   2.551   4.317
  150fsi    NBT 2494   2.014   2.571   4.283
  150fsi    OBT 2495   2.255   2.565   4.205
  150fsi    OBT 2496   2.186   2.441   4.405
  150fsi    SBT 2497   1.966   2.661   4.167
  150fsi    OBT 2498   2.063   2.760   4.127
  150fsi    OBT 2499   1.831   2.707   4.187
  150fsi    FSI 2500   1.958   2.558   4.047
  151fsi    FSI 2501   5.784   3.262   5.539
  151fsi    SBT 2502   5.833   3.210   5.680
  151fsi    NBT 2503   5.987   3.218   5.663
  151fsi    OBT 2504   5.779   3.304   5.775
  151fsi    OBT 2505   5.788   3.075   5.688
  151fsi    SBT 2506   6.067   3.349   5.683
  151fsi    OBT 2507   5.987   3.469   5.674
  151fsi    OBT 2508   6.191   3.349   5.611
  151fsi    FSI 2509   6.107   3.337   5.836
  152fsi    FSI 2510   2.515   7.077   6.888
  152fsi    SBT 2511   2.617   6.958   6.874
  152fsi    NBT 2512   2.521   6.838   6.852
  152fsi    OBT 2513   2.698   6.991   6.759
  152fsi    OBT 2514   2.683   6.950   7.000
  152fsi    SBT 2515   2.461   6.804   6.713
  152fsi    OBT 2516   2.464   6.913   6.619
  152fsi    OBT 2517   2.338   6.731   6.723
  152fsi    FSI 2518   2.567   6.699   6.659
  153fsi    FSI 2519   4.187   1.231   5.496
  153fsi    SBT 2520   4.132   1.245   5.644
  153fsi    NBT 2521   3.979   1.235   5.617
  153fsi    OBT 2522   4.189   1.132   5.714
  153fsi    OBT 2523   4.171   1.376   5.685
  153fsi    SBT 2524   3.906   1.099   5.603
  153fsi    OBT 2525   3.992   0.990   5.566
  153fsi    OBT 2526   3.785   1.113   5.527
  153fsi    FSI 2527   3.861   1.072   5.751
  154fsi    FSI 2528   3.358   3.610   4.027
  154fsi    SBT 2529   3.316   3.753   4.078
  154fsi    NBT 2530   3.172   3.764   4.021
  154fsi    OBT 2531   3.324   3.744   4.222
  154fsi    OBT 2532   3.406   3.843   4.014
  154fsi    SBT 2533   3.049   3.703   4.092
  154fsi    OBT 2534   3.082   3.599   4.188
  154fsi    OBT 2535   2.942   3.674   4.002
  154fsi    FSI 2536   2.999   3.825   4.180
  155fsi    FSI 2537   0.804   4.165   5.713
  155fsi    SBT 2538   0.950   4.140   5.768
  155fsi    NBT 2539   0.985   4.280   5.825
  155fsi    OBT 2540   0.934   4.037   5.868
  155fsi    OBT 2541   1.027   4.108   5.653
  155fsi    SBT 2542   0.940   4.328   5.965
  155fsi    OBT 2543   0.828   4.253   6.018
  155fsi    OBT 2544   0.932   4.470   5.974
  155fsi    FSI 2545   1.064   4.285   6.054
  156fsi    FSI 2546   1.421   5.471   2.439
  156fsi    SBT 2547   1.474   5.352   2.349
  156fsi    NBT 2548   1.430   5.401   2.208
  156fsi    OBT 2549   1.616   5.350   2.371
  156fsi    OBT 2550   1.399   5.238   2.391
  156fsi    SBT 2551   1.515   5.501   2.125
  156fsi    OBT 2552   1.605   5.580   2.204
  156fsi    OBT 2553   1.433   5.572   2.030
  156fsi    FSI 2554   1.606   5.404   2.040
  157fsi    FSI 2555   6.519   3.643   2.251
  157fsi    SBT 2556   6.388   3.566   2.294
  157fsi    NBT 2557   6.428   3.516   2.435
  157fsi    OBT 2558   6.285   3.667   2.293
  157fsi    OBT 2559   6.376   3.459   2.200
  157fsi    SBT 2560   6.417   3.604   2.561
  157fsi    OBT 2561   6.413   3.746   2.533
  157fsi    OBT 2562   6.507   3.562   2.665
  157fsi    FSI 2563   6.272   3.567   2.613
  158fsi    FSI 2564   2.275   6.922   1.086
  158fsi    SBT 2565   2.277   6.765   1.093
  158fsi    NBT 2566   2.334   6.729   0.953
  158fsi    OBT 2567   2.365   6.733   1.203
  158fsi    OBT 2568   2.140   6.726   1.109
  158fsi    SBT 2569   2.486   6.730   0.922
  158fsi    OBT 2570   2.565   6.806   1.016
  158fsi    OBT 2571   2.513   6.751   0.783
  158fsi    FSI 2572   2.523   6.579   0.950
  159fsi    FSI 2573   1.431   1.607   4.782
  159fsi    SBT 2574   1.551   1.572   4.686
  159fsi    NBT 2575   1.671   1.576   4.785
  159fsi    OBT 2576   1.520   1.440   4.635
  159fsi    OBT 2577   1.554   1.678   4.591
  159fsi    SBT 2578   1.708   1.457   4.876
  159fsi    OBT 2579   1.601   1.362   4.895
  159fsi    OBT 2580   1.780   1.499   4.993
  159fsi    FSI 2581   1.815   1.382   4.786
  160fsi    FSI 2582   6.172   0.605   2.313
  160fsi    SBT 2583   6.291   0.606   2.209
  160fsi    NBT 2584   6.314   0.759   2.193
  160fsi    OBT 2585   6.398   0.536   2.276
  160fsi    OBT 2586   6.237   0.547   2.091
  160fsi    SBT 2587   6.400   0.841   2.292
  160fsi    OBT 2588   6.416   0.779   2.421
  160fsi    OBT 2589   6.364   0.980   2.291
  160fsi    FSI 2590   6.543   0.834   2.224
  161fsi    FSI 2591   3.765   4.190   1.696
  161fsi    SBT 2592   3.802   4.303   1.800
  161fsi    NBT 2593   3.815   4.426   1.706
  161fsi    OBT 2594   3.689   4.307   1.890
  161fsi    OBT 2595   3.927   4.262   1.855
  161fsi    SBT 2596   3.694   4.510   1.659
  161fsi    OBT 2597   3.568   4.439   1.669
  161fsi    OBT 2598   3.720   4.577   1.536
  161fsi    FSI 2599   3.688   4.622   1.770
  162fsi    FSI 2600   2.971   1.758   2.429
  162fsi    SBT 2601   2.816   1.786   2.426
  162fsi    NBT 2602   2.759   1.641   2.422
  162fsi    OBT 2603   2.788   1.855   2.550
  162fsi    OBT 2604   2.793   1.856   2.304
  162fsi    SBT 2605   2.741   1.554   2.548
  162fsi    OBT 2606   2.817   1.597   2.664
  162fsi    OBT 2607   2.742   1.414   2.520
  162fsi    FSI 2608   2.591   1.588   2.588
  163fsi    FSI 2609   3.282   4.899   1.062
  163fsi    SBT 2610   3.148   4.927   0.984
  163fsi    NBT 2611   3.171   5.073   0.936
  163fsi    OBT 2612   3.145   4.828   0.879
  163fsi    OBT 2613   3.046   4.918   1.083
  163fsi    SBT 2614   3.253   5.108   0.809
  163fsi    OBT 2615   3.340   5.001   0.766
  163fsi    OBT 2616   3.308   5.239   0.815
  163fsi    FSI 2617   3.138   5.114   0.700
  164fsi    FSI 2618   1.556   5.331   0.759
  164fsi    SBT 2619   1.571   5.239   0.886
  164fsi    NBT 2620   1.627   5.109   0.823
  164fsi    OBT 2621   1.664   5.309   0.972
  164fsi    OBT 2622   1.438   5.221   0.935
  164fsi    SBT 2623   1.777   5.090   0.790
  164fsi    OBT 2624   1.851   5.213   0.780
  164fsi    OBT 2625   1.797   4.993   0.686
  164fsi    FSI 2626   1.828   5.020   0.923
  165fsi    FSI 2627   0.443   2.720   6.071
  165fsi    SBT 2628   0.349   2.847   6.069
  165fsi    NBT 2629   0.452   2.961   6.084
  165fsi    OBT 2630   0.282   2.842   5.941
  165fsi    OBT 2631   0.266   2.833   6.186
  165fsi    SBT 2632   0.532   3.018   5.964
  165fsi    OBT 2633   0.536   2.930   5.850
  165fsi    OBT 2634   0.655   3.078   6.005
  165fsi    FSI 2635   0.439   3.139   5.920
  166fsi    FSI 2636   3.970   3.865   3.680
  166fsi    SBT 2637   3.922   4.010   3.720
  166fsi    NBT 2638   3.770   4.001   3.691
  166fsi    OBT 2639   3.956   4.023   3.860
  166fsi    OBT 2640   3.989   4.097   3.629
  166fsi    SBT 2641   3.669   3.939   3.791
  166fsi    OBT 2642   3.731   3.853   3.889
  166fsi    OBT 2643   3.552   3.890   3.724
  166fsi    FSI 2644   3.623   4.069   3.870
  167fsi    FSI 2645   6.264   1.717   4.654
  167fsi    SBT 2646   6.268   1.864   4.596
  167fsi    NBT 2647   6.385   1.926   4.676
  167fsi    OBT 2648   6.294   1.848   4.455
  167fsi    OBT 2649   6.142   1.921   4.632
  167fsi    SBT 2650   6.534   1.906   4.636
  167fsi    OBT 2651   6.556   1.793   4.549
  167fsi    OBT 2652   6.623   1.921   4.748
  167fsi    FSI 2653   6.558   2.034   4.546
  168fsi    FSI 2654   2.873   0.797   6.365
  168fsi    SBT 2655   2.973   0.681   6.326
  168fsi    NBT 2656   2.876   0.574   6.272
  168fsi    OBT 2657   3.059   0.740   6.226
  168fsi    OBT 2658   3.034   0.642   6.450
  168fsi    SBT 2659   2.821   0.576   6.127
  168fsi    OBT 2660   2.830   0.704   6.063
  168fsi    OBT 2661   2.697   0.506   6.115
  168fsi    FSI 2662   2.928   0.485   6.053
  169fsi    FSI 2663   2.912   6.468   2.656
  169fsi    SBT 2664   2.775   6.471   2.578
  169fsi    NBT 2665   2.716   6.607   2.626
  169fsi    OBT 2666   2.812   6.468   2.438
  169fsi    OBT 2667   2.702   6.360   2.630
  169fsi    SBT 2668   2.756   6.742   2.561
  169fsi    OBT 2669   2.880   6.739   2.489
  169fsi    OBT 2670   2.736   6.852   2.651
  169fsi    FSI 2671   2.643   6.758   2.451
  170fsi    FSI 2672   5.534   1.934   1.655
  170fsi    SBT 2673   5.555   1.780   1.630
  170fsi    NBT 2674   5.434   1.747   1.539
  170fsi    OBT 2675   5.684   1.770   1.567
  170fsi    OBT 2676   5.542   1.720   1.760
  170fsi    SBT 2677   5.436   1.771   1.386
  170fsi    OBT 2678   5.536   1.866   1.344
  170fsi    OBT 2679   5.304   1.787   1.334
  170fsi    FSI 2680   5.486   1.630   1.333
  171fsi    FSI 2681   6.055   1.826   0.726
  171fsi    SBT 2682   6.036   1.980   0.699
  171fsi    NBT 2683   5.898   1.983   0.629
  171fsi    OBT 2684   6.040   2.042   0.829
  171fsi    OBT 2685   6.142   2.015   0.609
  171fsi    SBT 2686   5.765   1.980   0.708
  171fsi    OBT 2687   5.778   1.932   0.843
  171fsi    OBT 2688   5.657   1.928   0.630
  171fsi    FSI 2689   5.735   2.135   0.722
  172fsi    FSI 2690   4.129   1.161   2.611
  172fsi    SBT 2691   4.112   1.308   2.556
  172fsi    NBT 2692   4.225   1.382   2.633
  172fsi    OBT 2693   4.135   1.297   2.413
  172fsi    OBT 2694   3.983   1.349   2.598
  172fsi    SBT 2695   4.373   1.381   2.587
  172fsi    OBT 2696   4.405   1.274   2.496
  172fsi    OBT 2697   4.463   1.405   2.695
  172fsi    FSI 2698   4.378   1.512   2.497
  173fsi    FSI 2699   5.374   5.547   3.195
  173fsi    SBT 2700   5.511   5.602   3.137
  173fsi    NBT 2701   5.575   5.661   3.265
  173fsi    OBT 2702   5.577   5.486   3.082
  173fsi    OBT 2703   5.471   5.704   3.045
  173fsi    SBT 2704   5.654   5.574   3.366
  173fsi    OBT 2705   5.623   5.434   3.358
  173fsi    OBT 2706   5.654   5.634   3.497
  173fsi    FSI 2707   5.802   5.589   3.311
  174fsi    FSI 2708   0.977   1.799   5.800
  174fsi    SBT 2709   1.131   1.832   5.805
  174fsi    NBT 2710   1.193   1.693   5.777
  174fsi    OBT 2711   1.151   1.929   5.699
  174fsi    OBT 2712   1.155   1.876   5.939
  174fsi    SBT 2713   1.210   1.636   5.634
  174fsi    OBT 2714   1.124   1.699   5.535
  174fsi    OBT 2715   1.213   1.493   5.632
  174fsi    FSI 2716   1.357   1.683   5.599
  175fsi    FSI 2717   1.443   6.362   3.139
  175fsi    SBT 2718   1.297   6.346   3.080
  175fsi    NBT 2719   1.222   6.457   3.159
  175fsi    OBT 2720   1.310   6.372   2.939
  175fsi    OBT 2721   1.255   6.216   3.120
  175fsi    SBT 2722   1.223   6.606   3.115
  175fsi    OBT 2723   1.333   6.641   3.030
  175fsi    OBT 2724   1.197   6.693   3.226
  175fsi    FSI 2725   1.094   6.613   3.024
  176fsi    FSI 2726   4.554   3.425   0.772
  176fsi    SBT 2727   4.649   3.300   0.781
  176fsi    NBT 2728   4.776   3.360   0.847
  176fsi    OBT 2729   4.578   3.205   0.864
  176fsi    OBT 2730   4.673   3.261   0.645
  176fsi    SBT 2731   4.788   3.383   1.000
  176fsi    OBT 2732   4.662   3.383   1.069
  176fsi    OBT 2733   4.882   3.486   1.032
  176fsi    FSI 2734   4.859   3.248   1.044
  177fsi    FSI 2735   4.132   5.121   1.872
  177fsi    SBT 2736   4.176   5.198   2.003
  177fsi    NBT 2737   4.067   5.309   2.011
  177fsi    OBT 2738   4.171   5.100   2.109
  177fsi    OBT 2739   4.305   5.252   1.972
  177fsi    SBT 2740   3.927   5.283   2.072
  177fsi    OBT 2741   3.892   5.143   2.080
  177fsi    OBT 2742   3.829   5.373   2.021
  177fsi    FSI 2743   3.951   5.328   2.222
  178fsi    FSI 2744   5.537   4.998   3.924
  178fsi    SBT 2745   5.641   4.881   3.932
  178fsi    NBT 2746   5.614   4.826   4.075
  178fsi    OBT 2747   5.604   4.790   3.826
  178fsi    OBT 2748   5.769   4.943   3.923
  178fsi    SBT 2749   5.500   4.726   4.106
  178fsi    OBT 2750   5.395   4.723   4.007
  178fsi    OBT 2751   5.458   4.732   4.243
  178fsi    FSI 2752   5.574   4.587   4.091
  179fsi    FSI 2753   3.261   4.025   4.231
  179fsi    SBT 2754   3.320   4.154   4.164
  179fsi    NBT 2755   3.236   4.163   4.034
  179fsi    OBT 2756   3.292   4.259   4.261
  179fsi    OBT 2757   3.457   4.126   4.141
  179fsi    SBT 2758   3.094   4.223   4.030
  179fsi    OBT 2759   3.029   4.230   4.159
  179fsi    OBT 2760   3.015   4.173   3.921
  179fsi    FSI 2761   3.126   4.374   3.993
  180fsi    FSI 2762   1.931   2.159   3.991
  180fsi    SBT 2763   1.935   2.003   4.013
  180fsi    NBT 2764   1.790   1.964   3.974
  180fsi    OBT 2765   2.035   1.955   3.920
  180fsi    OBT 2766   1.961   1.986   4.151
  180fsi    SBT 2767   1.744   1.942   3.828
  180fsi    OBT 2768   1.830   2.003   3.729
  180fsi    OBT 2769   1.604   1.962   3.810
  180fsi    FSI 2770   1.767   1.786   3.812
  181fsi    FSI 2771   1.671   0.505   5.938
  181fsi    SBT 2772   1.537   0.481   5.858
  181fsi    NBT 2773   1.526   0.613   5.777
  181fsi    OBT 2774   1.562   0.363   5.779
  181fsi    OBT 2775   1.436   0.472   5.959
  181fsi    SBT 2776   1.602   0.635   5.644
  181fsi    OBT 2777   1.714   0.546   5.624
  181fsi    OBT 2778   1.624   0.774   5.616
  181fsi    FSI 2779   1.493   0.588   5.538
  182fsi    FSI 2780   2.417   5.519   0.870
  182fsi    SBT 2781   2.545   5.576   0.796
  182fsi    NBT 2782   2.647   5.582   0.912
  182fsi    OBT 2783   2.574   5.477   0.694
  182fsi    OBT 2784   2.506   5.705   0.751
  182fsi    SBT 2785   2.729   5.459   0.959
  182fsi    OBT 2786   2.670   5.333   0.920
  182fsi    OBT 2787   2.769   5.472   1.096
  182fsi    FSI 2788   2.860   5.475   0.872
  183fsi    FSI 2789   4.904   3.807   0.789
  183fsi    SBT 2790   4.754   3.792   0.741
  183fsi    NBT 2791   4.678   3.857   0.859
  183fsi    OBT 2792   4.748   3.866   0.617
  183fsi    OBT 2793   4.733   3.652   0.732
  183fsi    SBT 2794   4.658   4.009   0.873
  183fsi    OBT 2795   4.751   4.087   0.795
  183fsi    OBT 2796   4.638   4.050   1.008
  183fsi    FSI 2797   4.518   4.028   0.801
  184fsi    FSI 2798   6.110   6.381   0.344
  184fsi    SBT 2799   6.054   6.490   0.444
  184fsi    NBT 2800   6.181   6.523   0.527
  184fsi    OBT 2801   6.008   6.597   0.359
  184fsi    OBT 2802   5.956   6.421   0.521
  184fsi    SBT 2803   6.288   6.623   0.478
  184fsi    OBT 2804   6.287   6.646   0.336
  184fsi    OBT 2805   6.416   6.597   0.538
  184fsi    FSI 2806   6.237   6.758   0.544
  185fsi    FSI 2807   6.337   2.314   5.693
  185fsi    SBT 2808   6.379   2.214   5.579
  185fsi    NBT 2809   6.524   2.180   5.622
  185fsi    OBT 2810   6.285   2.105   5.591
  185fsi    OBT 2811   6.374   2.293   5.460
  185fsi    SBT 2812   6.557   2.071   5.727
  185fsi    OBT 2813   6.447   2.042   5.815
  185fsi    OBT 2814   6.684   2.096   5.789
  185fsi    FSI 2815   6.577   1.943   5.636
  186fsi    FSI 2816   5.278   3.498   4.347
  186fsi    SBT 2817   5.340   3.605   4.249
  186fsi    NBT 2818   5.485   3.617   4.305
  186fsi    OBT 2819   5.332   3.546   4.118
  186fsi    OBT 2820   5.265   3.724   4.272
  186fsi    SBT 2821   5.597   3.517   4.268
  186fsi    OBT 2822   5.549   3.391   4.217
  186fsi    OBT 2823   5.699   3.511   4.369
  186fsi    FSI 2824   5.663   3.590   4.144
  187fsi    FSI 2825   4.111   6.145   0.353
  187fsi    SBT 2826   4.093   5.997   0.408
  187fsi    NBT 2827   3.938   5.984   0.406
  187fsi    OBT 2828   4.162   5.914   0.311
  187fsi    OBT 2829   4.145   6.001   0.540
  187fsi    SBT 2830   3.858   5.946   0.279
  187fsi    OBT 2831   3.931   5.971   0.156
  187fsi    OBT 2832   3.724   5.994   0.284
  187fsi    FSI 2833   3.851   5.789   0.293
  188fsi    FSI 2834   1.901   3.626   3.158
  188fsi    SBT 2835   1.913   3.681   3.010
  188fsi    NBT 2836   2.067   3.682   2.992
  188fsi    OBT 2837   1.844   3.583   2.929
  188fsi    OBT 2838   1.857   3.812   3.015
  188fsi    SBT 2839   2.149   3.557   2.952
  188fsi    OBT 2840   2.080   3.432   2.977
  188fsi    OBT 2841   2.285   3.564   2.994
  188fsi    FSI 2842   2.152   3.571   2.794
  189fsi    FSI 2843   6.094   0.179   6.653
  189fsi    SBT 2844   6.122   0.323   6.711
  189fsi    NBT 2845   5.997   0.344   6.801
  189fsi    OBT 2846   6.247   0.311   6.783
  189fsi    OBT 2847   6.121   0.409   6.597
  189fsi    SBT 2848   5.988   0.288   6.945
  189fsi    OBT 2849   6.080   0.180   6.972
  189fsi    OBT 2850   5.852   0.269   6.987
  189fsi    FSI 2851   6.041   0.411   7.029
  190fsi    FSI 2852   3.378   2.203   2.710
  190fsi    SBT 2853   3.336   2.119   2.837
  190fsi    NBT 2854   3.302   2.232   2.938
  190fsi    OBT 2855   3.222   2.041   2.795
  190fsi    OBT 2856   3.453   2.047   2.876
  190fsi    SBT 2857   3.165   2.305   2.939
  190fsi    OBT 2858   3.092   2.292   2.816
  190fsi    OBT 2859   3.175   2.436   2.997
  190fsi    FSI 2860   3.086   2.218   3.045
  191fsi    FSI 2861   4.637   4.989   5.809
  191fsi    SBT 2862   4.583   5.078   5.691
  191fsi    NBT 2863   4.710   5.160   5.655
  191fsi    OBT 2864   4.542   4.983   5.590
  191fsi    OBT 2865   4.481   5.158   5.750
  191fsi    SBT 2866   4.822   5.106   5.563
  191fsi    OBT 2867   4.822   4.962   5.552
  191fsi    OBT 2868   4.948   5.169   5.588
  191fsi    FSI 2869   4.774   5.159   5.422
  192fsi    FSI 2870   6.384   0.724   5.857
  192fsi    SBT 2871   6.380   0.877   5.894
  192fsi    NBT 2872   6.374   0.871   6.049
  192fsi    OBT 2873   6.503   0.931   5.841
  192fsi    OBT 2874   6.258   0.926   5.838
  192fsi    SBT 2875   6.500   0.852   6.136
  192fsi    OBT 2876   6.614   0.798   6.065
  192fsi    OBT 2877   6.470   0.794   6.264
  192fsi    FSI 2878   6.539   1.002   6.167
  193fsi    FSI 2879   5.731   6.529   4.822
  193fsi    SBT 2880   5.718   6.376   4.785
  193fsi    NBT 2881   5.599   6.377   4.686
  193fsi    OBT 2882   5.844   6.341   4.724
  193fsi    OBT 2883   5.686   6.310   4.908
  193fsi    SBT 2884   5.612   6.414   4.537
  193fsi    OBT 2885   5.733   6.486   4.505
  193fsi    OBT 2886   5.490   6.465   4.480
  193fsi    FSI 2887   5.630   6.270   4.473
  194fsi    FSI 2888   2.766   5.263   2.416
  194fsi    SBT 2889   2.741   5.259   2.260
  194fsi    NBT 2890   2.743   5.106   2.233
  194fsi    OBT 2891   2.613   5.322   2.242
  194fsi    OBT 2892   2.855   5.325   2.205
  194fsi    SBT 2893   2.619   5.016   2.255
  194fsi    OBT 2894   2.520   5.074   2.343
  194fsi    OBT 2895   2.655   4.880   2.278
  194fsi    FSI 2896   2.553   5.019   2.110
  195fsi    FSI 2897   5.195   2.105   4.498
  195fsi    SBT 2898   5.183   2.165   4.643
  195fsi    NBT 2899   5.332   2.169   4.686
  195fsi    OBT 2900   5.120   2.293   4.620
  195fsi    OBT 2901   5.108   2.068   4.716
  195fsi    SBT 2902   5.427   2.285   4.647
  195fsi    OBT 2903   5.382   2.362   4.534
  195fsi    OBT 2904   5.564   2.243   4.646
  195fsi    FSI 2905   5.415   2.380   4.772
  196fsi    FSI 2906   1.800   6.032   2.980
  196fsi    SBT 2907   1.700   5.917   2.939
  196fsi    NBT 2908   1.766   5.863   2.810
  196fsi    OBT 2909   1.701   5.825   3.051
  196fsi    OBT 2910   1.576   5.984   2.913
  196fsi    SBT 2911   1.882   5.761   2.811
  196fsi    OBT 2912   1.952   5.754   2.938
  196fsi    OBT 2913   1.963   5.768   2.693
  196fsi    FSI 2914   1.803   5.624   2.801
  197fsi    FSI 2915   2.086   1.822   6.614
  197fsi    SBT 2916   2.037   1.791   6.761
  197fsi    NBT 2917   2.020   1.935   6.817
  197fsi    OBT 2918   1.914   1.718   6.745
  197fsi    OBT 2919   2.147   1.723   6.822
  197fsi    SBT 2920   1.892   2.019   6.793
  197fsi    OBT 2921   1.814   1.976   6.680
  197fsi    OBT 2922   1.918   2.160   6.803
  197fsi    FSI 2923   1.806   1.982   6.921
  198fsi    FSI 2924   5.181   7.018   6.794
  198fsi    SBT 2925   5.214   6.864   6.800
  198fsi    NBT 2926   5.215   6.827   6.649
  198fsi    OBT 2927   5.343   6.856   6.864
  198fsi    OBT 2928   5.103   6.805   6.868
  198fsi    SBT 2929   5.338   6.851   6.559
  198fsi    OBT 2930   5.432   6.947   6.611
  198fsi    OBT 2931   5.302   6.863   6.420
  198fsi    FSI 2932   5.411   6.710   6.570
  199fsi    FSI 2933   3.958   2.464   0.715
  199fsi    SBT 2934   3.815   2.504   0.663
  199fsi    NBT 2935   3.725   2.441   0.773
  199fsi    OBT 2936   3.815   2.648   0.661
  199fsi    OBT 2937   3.801   2.437   0.538
  199fsi    SBT 2938   3.696   2.511   0.908
  199fsi    OBT 2939   3.792   2.613   0.942
  199fsi    OBT 2940   3.661   2.417   1.010
  199fsi    FSI 2941   3.562   2.589   0.874
  200fsi    FSI 2942   6.303   0.723   3.545
  200fsi    SBT 2943   6.343   0.871   3.510
  200fsi    NBT 2944   6.488   0.853   3.458
  200fsi    OBT 2945   6.249   0.915   3.410
  200fsi    OBT 2946   6.341   0.942   3.635
  200fsi    SBT 2947   6.519   0.809   3.313
  200fsi    OBT 2948   6.408   0.747   3.245
  200fsi    OBT 2949   6.647   0.746   3.302
  200fsi    FSI 2950   6.537   0.950   3.242
   7.23840   7.23840   7.23840
