L2P1 short trajectory practice
 1400
    1Li+     Li    1   4.764   3.615   0.622  0.7463  0.4984  0.0795
    2Li+     Li    2   3.423   0.651   2.009 -1.1758 -0.5307 -0.1048
    3Li+     Li    3   1.678   1.486   3.140 -0.7408 -0.4558 -0.2063
    4Li+     Li    4   2.098   3.233   1.462  0.2241  0.8259 -0.6791
    5Li+     Li    5   3.935   2.954   4.114 -0.0787  0.2756 -0.4424
    6Li+     Li    6   2.390   4.484   4.102  0.4323 -0.0983 -0.3459
    7Li+     Li    7   2.189   1.820   2.299  0.7883  0.3490  0.4981
    8Li+     Li    8   3.788   0.777   1.656  0.2627  0.2649  0.6087
    9Li+     Li    9   2.705   0.535   3.113 -0.6223 -0.9350 -0.1184
   10Li+     Li   10   1.967   2.161   2.602  0.2057 -0.2467  0.3827
   11Li+     Li   11   0.182   2.006   1.808  0.4011 -0.4195 -0.4358
   12Li+     Li   12   3.580   5.372   2.790  0.8058 -0.3258  1.4336
   13Li+     Li   13   1.687   1.737   2.676  0.8530 -0.4784  0.4873
   14Li+     Li   14   3.157   2.709   2.780 -0.9303 -0.7574 -1.0689
   15Li+     Li   15   1.581   1.411   1.589  1.2896  0.2691 -0.7827
   16Li+     Li   16   1.740   2.236   1.566 -0.6766 -0.9219 -0.9264
   17Li+     Li   17   3.527   1.023   2.574 -0.3135  0.4333  0.0580
   18Li+     Li   18   3.920   4.855   3.956  0.4439 -0.0023  0.0058
   19Li+     Li   19   2.049   5.236   4.069  0.2389  0.3253  0.3161
   20Li+     Li   20   3.874   0.920   0.680 -0.3234 -0.0077 -0.1619
   21Li+     Li   21   3.476   5.075   2.508  0.0268  2.2612  1.1825
   22Li+     Li   22   1.951   4.665   4.251  0.3257 -0.8890  1.5999
   23Li+     Li   23   4.314   3.948   4.146 -0.3586 -0.0711 -0.0626
   24Li+     Li   24   1.699   2.304   2.092 -0.7462  1.0681 -0.6669
   25Li+     Li   25   2.493   0.165   3.684 -0.2403 -0.3135 -1.1943
   26Li+     Li   26   1.319   5.498   4.291  1.4301 -0.7716 -0.1680
   27Li+     Li   27   2.903   1.989   2.162  0.4342  0.1971  0.2191
   28Li+     Li   28   1.751   1.359   2.141 -0.0024  0.3764  0.3797
   29Li+     Li   29   4.021   3.988   4.609 -0.0876  0.3403  0.3561
   30Li+     Li   30   3.652   1.068   1.079 -0.0183 -0.0659 -0.6658
   31Li+     Li   31   3.763   0.594   1.115 -0.2210 -1.4197 -0.4640
   32Li+     Li   32   1.255   1.435   2.382  0.1151 -1.0227 -0.2913
   33Li+     Li   33   3.753   4.394   4.570 -0.0398  0.3922 -0.3696
   34Li+     Li   34   0.722   1.678   0.632  0.6370 -0.4493 -0.0626
   35Li+     Li   35   3.324   0.953   3.257  0.0640  0.6256  0.0886
   36Li+     Li   36   3.063   0.615   3.670 -0.3257  0.2500 -0.5761
   37Li+     Li   37   1.243   0.933   1.602  0.5150 -0.2844 -0.4954
   38Li+     Li   38   2.518   4.929   4.142  0.2962 -0.3684 -0.4539
   39Li+     Li   39   1.054   2.147   0.724 -0.7949 -1.6534 -0.0679
   40Li+     Li   40   2.124   5.013   4.596 -0.2709  0.2063  0.8007
   41Li+     Li   41   4.007   1.193   1.371 -1.2246  0.7100 -0.4985
   42Li+     Li   42   4.101   4.310   4.045  0.2437 -0.9281 -0.2731
   43Li+     Li   43   1.828   0.050   4.406  0.4732 -0.2001 -0.2521
   44Li+     Li   44   1.246   1.651   2.937 -0.0339 -1.1004  0.6589
   45Li+     Li   45   1.456   1.711   2.112 -0.4934 -0.5878  0.2086
   46Li+     Li   46   0.079   4.347   3.483 -0.8826 -0.1409  1.0904
   47Li+     Li   47   2.060   1.665   1.486 -0.9479  0.2478  0.1256
   48Li+     Li   48   3.440   1.395   2.799  0.9143  0.1637  0.8665
   49Li+     Li   49   2.968   1.800   2.791  0.5549 -0.1968 -0.2992
   50Li+     Li   50   1.807   1.940   1.979 -0.5675  0.4685  0.3309
   51c3c     N4   51   2.114   2.752   1.440  0.3798  0.2973 -0.1737
   51c3c     C1   52   2.163   2.703   1.313  0.2160 -0.2383  0.0334
   51c3c     C1   53   2.000   2.832   1.403  0.3424 -0.2106 -0.3609
   51c3c     C2   54   2.033   2.678   1.226  0.0914 -0.2393 -0.0049
   51c3c     C2   55   1.923   2.767   1.292  0.1745 -0.0315  0.1194
   51c3c     C1   56   2.076   2.636   1.515 -0.1601  0.7521 -0.4434
   51c3c     C1   57   2.216   2.821   1.529  0.4418 -0.4362 -0.0871
   51c3c     H1   58   2.225   2.614   1.308 -1.1028 -1.1856  0.2719
   51c3c     H1   59   2.217   2.780   1.259 -0.8866  0.1963 -0.4682
   51c3c     H1   60   1.937   2.859   1.488  0.0134 -1.6124 -0.1477
   51c3c     H1   61   2.028   2.924   1.352 -0.4142  0.0683 -0.2850
   51c3c     HC   62   2.003   2.573   1.228  0.4604 -0.3485 -0.0671
   51c3c     HC   63   2.048   2.712   1.124 -0.6929 -0.5891 -0.2347
   51c3c     HC   64   1.835   2.713   1.326  0.6793 -2.1178 -1.8106
   51c3c     HC   65   1.886   2.842   1.221 -0.7336 -1.1107 -0.5609
   51c3c     H1   66   2.156   2.563   1.530 -1.2105 -0.0600  1.2357
   51c3c     H1   67   2.041   2.660   1.615 -0.0833 -1.5470  0.1487
   51c3c     H1   68   1.990   2.585   1.472 -0.3637  0.7020  0.0258
   51c3c     H1   69   2.173   2.840   1.628  1.4046  0.7549  0.1140
   51c3c     H1   70   2.300   2.753   1.545 -0.2846 -1.0791  1.1344
   51c3c     C2   71   2.273   2.948   1.465 -0.4152 -0.3009  0.3555
   51c3c     HC   72   2.197   3.023   1.448 -0.9371 -1.1023 -0.8498
   51c3c     HC   73   2.309   2.925   1.365 -0.6135 -1.1122  0.4723
   51c3c     CT   74   2.385   3.023   1.544  0.4275 -0.2796 -0.2291
   51c3c     HC   75   2.400   3.124   1.508 -1.5067 -0.3426 -1.2642
   51c3c     HC   76   2.477   2.964   1.543  0.0582 -0.9542  1.9000
   51c3c     HC   77   2.347   3.031   1.646  0.4822 -0.3730 -0.2014
   52c3c     N4   78   3.722   2.391   4.013 -0.6730 -0.2508 -0.1180
   52c3c     C1   79   3.699   2.247   3.998 -0.3687 -0.1587  0.1326
   52c3c     C1   80   3.702   2.410   4.158 -0.2108  0.1973 -0.2527
   52c3c     C2   81   3.767   2.178   4.117 -0.2286  0.1356  0.4607
   52c3c     C2   82   3.756   2.282   4.229 -0.5050  0.1879 -0.0666
   52c3c     C1   83   3.867   2.425   3.991 -0.0882  0.0283 -0.1615
   52c3c     C1   84   3.646   2.480   3.924 -0.1768 -0.4467 -0.8540
   52c3c     H1   85   3.732   2.207   3.902  0.1426 -0.4262  0.4208
   52c3c     H1   86   3.592   2.229   4.011 -0.5321 -0.6309 -1.7437
   52c3c     H1   87   3.744   2.504   4.194 -0.8610  0.5438 -0.3820
   52c3c     H1   88   3.594   2.424   4.170 -0.3932 -0.7771 -0.6894
   52c3c     HC   89   3.872   2.161   4.095 -0.1954  1.4893 -0.4948
   52c3c     HC   90   3.724   2.079   4.135  0.2872 -0.0521  0.6750
   52c3c     HC   91   3.855   2.294   4.272 -0.5053  0.3331 -0.1060
   52c3c     HC   92   3.687   2.248   4.307 -0.1272  0.0955  0.2300
   52c3c     H1   93   3.887   2.404   3.886 -0.8164 -0.1318 -0.2757
   52c3c     H1   94   3.887   2.530   4.011  0.4151 -0.1077  0.0573
   52c3c     H1   95   3.933   2.362   4.050 -1.6474 -2.3455 -0.8576
   52c3c     H1   96   3.665   2.580   3.963 -0.9626  0.3822 -2.5156
   52c3c     H1   97   3.696   2.470   3.827 -0.3488 -0.3715 -0.9508
   52c3c     C2   98   3.497   2.456   3.903 -0.2580 -0.0425 -1.0924
   52c3c     HC   99   3.445   2.460   3.999  0.7934 -1.0988 -0.4562
   52c3c     HC  100   3.483   2.354   3.869 -0.3047 -0.2945 -0.3296
   52c3c     CT  101   3.435   2.554   3.803  0.1716  0.2154 -0.4251
   52c3c     HC  102   3.480   2.532   3.705  2.2801  0.9086  0.3498
   52c3c     HC  103   3.449   2.657   3.835  1.5320  0.1802 -0.8587
   52c3c     HC  104   3.328   2.536   3.792  0.2798 -0.1315 -0.9267
   53c3c     N4  105   3.180   1.378   1.910 -0.1269  0.1498  0.1589
   53c3c     C1  106   3.228   1.332   1.781 -0.3722  0.2435 -0.2121
   53c3c     C1  107   3.097   1.496   1.877 -0.4030  0.3039  0.0681
   53c3c     C2  108   3.117   1.363   1.682 -0.9028  0.2054  0.0681
   53c3c     C2  109   3.030   1.476   1.740 -0.2767  0.4101 -0.1394
   53c3c     C1  110   3.092   1.274   1.966 -0.4849  0.3991  0.0277
   53c3c     C1  111   3.282   1.416   2.009 -0.2054  0.4040 -0.1427
   53c3c     H1  112   3.265   1.229   1.781 -0.0639  0.3358  1.3559
   53c3c     H1  113   3.311   1.389   1.740  0.9865 -1.5838 -0.0836
   53c3c     H1  114   3.023   1.521   1.953 -0.0736  0.4154  0.3564
   53c3c     H1  115   3.150   1.591   1.874 -0.1400  0.1084 -1.7245
   53c3c     HC  116   3.051   1.277   1.669 -0.9001  0.1322  0.5225
   53c3c     HC  117   3.150   1.390   1.581 -1.4788 -1.6048 -0.6286
   53c3c     HC  118   2.926   1.445   1.747 -0.5986  1.2018 -1.2140
   53c3c     HC  119   3.036   1.567   1.680 -0.5711  1.3323  1.2230
   53c3c     H1  120   3.140   1.179   1.990 -0.4588  0.3838 -0.0867
   53c3c     H1  121   3.045   1.307   2.059 -0.6805  0.1599  0.0129
   53c3c     H1  122   3.011   1.245   1.899  0.8734 -2.1103 -0.5876
   53c3c     H1  123   3.229   1.466   2.090 -2.4260  0.7258 -1.7520
   53c3c     H1  124   3.326   1.329   2.058 -0.4072  0.7132  0.5920
   53c3c     C2  125   3.389   1.512   1.954 -0.4909  0.5155  0.1408
   53c3c     HC  126   3.417   1.579   2.035  0.8188 -0.7061  0.7364
   53c3c     HC  127   3.358   1.572   1.869 -0.1003  0.2126 -0.2248
   53c3c     CT  128   3.517   1.423   1.920 -0.5193 -0.3477  0.8353
   53c3c     HC  129   3.498   1.344   1.848 -2.3134 -1.5093  2.5057
   53c3c     HC  130   3.553   1.378   2.013  1.0065  1.1804  1.0039
   53c3c     HC  131   3.597   1.486   1.883  0.5944 -2.3968 -0.3280
   54c3c     N4  132   2.035   4.928   3.568 -0.0253  0.4765 -0.2240
   54c3c     C1  133   2.087   4.963   3.701 -0.5455  0.1965  0.0891
   54c3c     C1  134   1.962   5.049   3.527  0.2249  0.1678  0.2343
   54c3c     C2  135   2.122   5.111   3.688  0.7332 -0.2889  0.0823
   54c3c     C2  136   2.045   5.168   3.573  0.2105  0.3200 -0.2606
   54c3c     C1  137   2.147   4.903   3.477 -0.2329 -0.2343 -0.2561
   54c3c     C1  138   1.951   4.804   3.568  0.3127  0.5936  0.3884
   54c3c     H1  139   2.173   4.906   3.738 -1.7744 -0.4430  2.0514
   54c3c     H1  140   2.010   4.955   3.778 -0.9073  2.3709 -0.0113
   54c3c     H1  141   1.943   5.049   3.420 -1.8577  0.4986  0.5777
   54c3c     H1  142   1.865   5.055   3.577  0.9346 -0.3981  1.7066
   54c3c     HC  143   2.228   5.128   3.669  0.6997 -0.0817  0.0814
   54c3c     HC  144   2.098   5.163   3.781 -0.6114  1.1974 -1.0702
   54c3c     HC  145   2.104   5.208   3.490  0.0178 -0.2437 -0.6729
   54c3c     HC  146   1.976   5.246   3.607  0.6594  0.2742  0.7632
   54c3c     H1  147   2.208   4.821   3.514 -0.1944  0.6982  1.8333
   54c3c     H1  148   2.109   4.873   3.379  1.3449  0.7001 -1.1592
   54c3c     H1  149   2.216   4.985   3.458  0.9102 -0.9589  0.6881
   54c3c     H1  150   1.923   4.769   3.468  0.2322 -0.4050  0.7487
   54c3c     H1  151   2.010   4.720   3.606 -0.9590  0.1752  1.4570
   54c3c     C2  152   1.817   4.795   3.651 -0.4987 -0.1803 -0.3576
   54c3c     HC  153   1.735   4.844   3.599 -0.4795 -0.1524 -0.3623
   54c3c     HC  154   1.823   4.848   3.746  0.4997 -0.6203 -0.1701
   54c3c     CT  155   1.778   4.653   3.684  1.0199 -0.3857 -0.9359
   54c3c     HC  156   1.863   4.599   3.723  1.3965  0.3816 -0.6732
   54c3c     HC  157   1.735   4.603   3.597 -0.2613 -1.0254  0.0529
   54c3c     HC  158   1.707   4.652   3.767  1.7106 -1.3218 -0.3534
   55c3c     N4  159   1.377   4.657   4.534 -0.2515  0.3867  0.0450
   55c3c     C1  160   1.441   4.744   4.634  0.1320  0.2244 -0.9244
   55c3c     C1  161   1.260   4.731   4.485 -0.3285 -0.2799 -0.1107
   55c3c     C2  162   1.423   4.890   4.582 -0.9752  0.7170  0.1140
   55c3c     C2  163   1.312   4.872   4.476 -0.2816  0.3728  0.2501
   55c3c     C1  164   1.471   4.634   4.423  0.2358  0.2075 -0.6391
   55c3c     C1  165   1.342   4.524   4.586  0.6189 -0.0201 -0.1545
   55c3c     H1  166   1.547   4.719   4.644  0.0766  0.4017  0.2177
   55c3c     H1  167   1.393   4.745   4.732 -0.3675 -0.5893 -1.1614
   55c3c     H1  168   1.221   4.695   4.390 -0.0293 -1.9522  0.3874
   55c3c     H1  169   1.180   4.730   4.560  0.2212 -1.9806  0.4720
   55c3c     HC  170   1.516   4.927   4.540 -1.7544  1.6947 -0.7603
   55c3c     HC  171   1.392   4.958   4.661 -1.5473  0.2727  0.2832
   55c3c     HC  172   1.353   4.895   4.378 -1.5899  0.5250 -0.2697
   55c3c     HC  173   1.240   4.951   4.493  0.9374  1.3659  0.8876
   55c3c     H1  174   1.541   4.554   4.447  0.7343  0.8254 -0.0407
   55c3c     H1  175   1.422   4.602   4.331  0.2731  1.0448 -0.9499
   55c3c     H1  176   1.528   4.722   4.395  0.8295  0.2855  0.7736
   55c3c     H1  177   1.305   4.465   4.502  1.9174 -0.3249 -0.5232
   55c3c     H1  178   1.434   4.477   4.620  0.3958  1.1161  2.1145
   55c3c     C2  179   1.236   4.510   4.699  0.1944  0.0359 -0.4820
   55c3c     HC  180   1.135   4.528   4.662  0.6360 -0.9332 -2.1985
   55c3c     HC  181   1.257   4.582   4.778  0.3761 -0.6313  0.0787
   55c3c     CT  182   1.228   4.369   4.759 -0.4796 -0.5475 -0.2757
   55c3c     HC  183   1.329   4.334   4.780 -0.2052  0.7126  0.5777
   55c3c     HC  184   1.186   4.303   4.682  1.3404  0.4505 -2.1723
   55c3c     HC  185   1.170   4.361   4.851 -1.0879 -0.2229 -0.6240
   56c3c     N4  186   3.434   2.062   2.584  0.4546 -0.0756  0.2595
   56c3c     C1  187   3.424   1.916   2.586 -0.0574  0.1422  0.2143
   56c3c     C1  188   3.470   2.088   2.443 -0.0742 -0.0213  0.5161
   56c3c     C2  189   3.350   1.880   2.455 -0.1151 -0.0151 -0.0276
   56c3c     C2  190   3.385   1.995   2.361 -0.2496  0.2090  0.4338
   56c3c     C1  191   3.304   2.121   2.609 -0.2086 -0.1392  0.2000
   56c3c     C1  192   3.527   2.117   2.690  0.0682  0.7466  0.3574
   56c3c     H1  193   3.372   1.869   2.670 -0.3215  0.9027  0.4815
   56c3c     H1  194   3.523   1.871   2.590  0.2124  0.7261  0.0833
   56c3c     H1  195   3.455   2.192   2.414  1.7426  0.5333  1.4457
   56c3c     H1  196   3.574   2.064   2.421 -0.0775  0.3993  0.0353
   56c3c     HC  197   3.242   1.879   2.468 -0.0900 -0.0425  0.1810
   56c3c     HC  198   3.390   1.784   2.421  0.3856  0.0964  0.2430
   56c3c     HC  199   3.293   2.045   2.327 -0.0825 -0.1753 -0.6178
   56c3c     HC  200   3.436   1.964   2.270  0.0889 -0.3391  0.8116
   56c3c     H1  201   3.277   2.106   2.713 -0.9976  0.1536  0.0399
   56c3c     H1  202   3.301   2.228   2.589 -0.2792 -0.3333 -0.8566
   56c3c     H1  203   3.219   2.084   2.551  0.3258 -0.6889 -0.2445
   56c3c     H1  204   3.506   2.224   2.698  0.1980  0.7376  0.8597
   56c3c     H1  205   3.488   2.074   2.783 -0.0161  1.9063  0.8766
   56c3c     C2  206   3.679   2.104   2.669  0.2878  0.3056  0.1480
   56c3c     HC  207   3.707   2.147   2.573 -0.4642  0.1270 -0.1485
   56c3c     HC  208   3.708   1.999   2.666 -0.1036  0.2089 -0.2082
   56c3c     CT  209   3.772   2.175   2.769 -0.2732 -0.2985  0.1860
   56c3c     HC  210   3.761   2.137   2.870 -0.7612  0.8254  0.5584
   56c3c     HC  211   3.746   2.281   2.768 -1.4866 -0.5842 -0.4705
   56c3c     HC  212   3.877   2.165   2.742 -0.2246 -0.9760  0.6062
   57c3c     N4  213   3.502   5.144   3.283 -0.0409 -0.1635  0.1500
   57c3c     C1  214   3.439   5.278   3.286 -0.1881 -0.3143  0.1251
   57c3c     C1  215   3.458   5.086   3.411 -0.2549  0.1062  0.3812
   57c3c     C2  216   3.304   5.266   3.353 -0.4689  0.2818  0.4080
   57c3c     C2  217   3.314   5.133   3.428 -0.4392  0.2615  0.3165
   57c3c     C1  218   3.444   5.063   3.174  0.2158 -0.4389  0.1996
   57c3c     C1  219   3.647   5.136   3.260 -0.1268 -0.0351 -0.2416
   57c3c     H1  220   3.433   5.322   3.186 -0.3150  0.2686  0.3862
   57c3c     H1  221   3.493   5.353   3.345 -1.4555  0.7433 -0.0250
   57c3c     H1  222   3.467   4.978   3.411 -0.8224  0.0603 -0.1435
   57c3c     H1  223   3.516   5.133   3.491 -1.1131  2.4283 -0.3001
   57c3c     HC  224   3.224   5.260   3.278  0.4781 -0.4094 -0.5651
   57c3c     HC  225   3.287   5.353   3.415  1.0911  0.3706  0.7316
   57c3c     HC  226   3.244   5.064   3.381  0.4140  0.2512 -0.9956
   57c3c     HC  227   3.288   5.145   3.533 -0.3574 -0.9013  0.4778
   57c3c     H1  228   3.467   5.104   3.076  0.4581 -0.5075  0.2275
   57c3c     H1  229   3.485   4.962   3.170  0.5975 -0.4216  2.5778
   57c3c     H1  230   3.335   5.058   3.177  0.2033 -0.1683  0.2361
   57c3c     H1  231   3.679   5.034   3.279  0.4862  0.2106  0.0445
   57c3c     H1  232   3.671   5.166   3.158  0.9117  1.4261  0.4257
   57c3c     C2  233   3.734   5.229   3.347 -0.1307 -0.0043  0.3200
   57c3c     HC  234   3.696   5.234   3.449  0.5184 -0.2929  0.5779
   57c3c     HC  235   3.726   5.331   3.311 -0.5944  0.3876  1.5242
   57c3c     CT  236   3.883   5.192   3.361 -0.0134 -0.3720  0.7734
   57c3c     HC  237   3.934   5.182   3.265  0.1587 -0.3509  0.8625
   57c3c     HC  238   3.900   5.097   3.411  0.4075 -0.1529  1.0546
   57c3c     HC  239   3.934   5.266   3.423 -0.9980  1.2660 -0.3097
   58c3c     N4  240   2.633   2.458   2.457  0.6749 -0.7146  0.2740
   58c3c     C1  241   2.542   2.368   2.530  0.6440 -0.5935 -0.4826
   58c3c     C1  242   2.750   2.377   2.424  0.2114 -0.0721 -0.1811
   58c3c     C2  243   2.561   2.230   2.468 -0.0968 -0.2914  0.3659
   58c3c     C2  244   2.708   2.228   2.421 -0.1505 -0.6167 -0.2859
   58c3c     C1  245   2.563   2.486   2.333  0.2111 -0.5398 -0.1868
   58c3c     C1  246   2.660   2.591   2.521 -0.3147 -0.1419 -0.0970
   58c3c     H1  247   2.439   2.404   2.532  0.6226 -0.6705  1.5270
   58c3c     H1  248   2.562   2.361   2.637 -0.5065 -0.6722 -0.2686
   58c3c     H1  249   2.800   2.414   2.335 -0.0729 -0.7715 -0.6331
   58c3c     H1  250   2.832   2.389   2.495  0.1980  0.9020 -0.3322
   58c3c     HC  251   2.495   2.208   2.385  2.4189 -1.7704 -1.2961
   58c3c     HC  252   2.549   2.149   2.541  1.4376 -0.3217  0.6048
   58c3c     HC  253   2.714   2.183   2.322 -0.0397 -0.0868 -0.5214
   58c3c     HC  254   2.762   2.157   2.484 -0.4266 -0.8390 -0.2991
   58c3c     H1  255   2.471   2.542   2.350 -0.0273 -1.0538  0.2342
   58c3c     H1  256   2.626   2.549   2.270  0.6024 -1.5225 -0.7814
   58c3c     H1  257   2.540   2.403   2.267  0.7898  0.1305 -1.2594
   58c3c     H1  258   2.714   2.658   2.453 -0.6466  1.1326  0.8785
   58c3c     H1  259   2.567   2.644   2.537 -0.0924  0.3848 -0.5144
   58c3c     C2  260   2.734   2.581   2.653 -0.0818  0.0278 -0.2393
   58c3c     HC  261   2.835   2.543   2.646 -0.0394  0.2952 -1.0973
   58c3c     HC  262   2.688   2.507   2.718 -0.3972  1.2983  1.0141
   58c3c     CT  263   2.746   2.714   2.728 -0.1319 -0.3583 -0.0199
   58c3c     HC  264   2.656   2.739   2.785  0.4841  1.2293  0.2811
   58c3c     HC  265   2.770   2.799   2.665  0.4080 -1.8870 -1.9155
   58c3c     HC  266   2.827   2.711   2.801  0.2696 -0.4385 -0.4697
   59c3c     N4  267   0.555   2.306   1.120  0.7518 -0.3596  0.4589
   59c3c     C1  268   0.462   2.195   1.116  0.2818 -0.2368  0.0677
   59c3c     C1  269   0.518   2.380   1.242  0.2229 -0.6609  0.1691
   59c3c     C2  270   0.325   2.244   1.168  0.0944  0.0373  0.3311
   59c3c     C2  271   0.366   2.353   1.262  0.1969  0.0269  0.4148
   59c3c     C1  272   0.693   2.253   1.127  0.4315  0.1873  0.3835
   59c3c     C1  273   0.549   2.386   0.996 -0.0376 -0.0608  0.5809
   59c3c     H1  274   0.494   2.123   1.192  0.9914  0.5720  0.5483
   59c3c     H1  275   0.464   2.138   1.023  1.2220  0.0801 -0.1148
   59c3c     H1  276   0.568   2.329   1.324 -0.2261 -1.7417 -0.2230
   59c3c     H1  277   0.541   2.487   1.240  0.8853 -0.8259 -1.4502
   59c3c     HC  278   0.270   2.165   1.218 -0.0111  0.1875  0.4515
   59c3c     HC  279   0.262   2.289   1.091 -1.3592 -0.4997  1.1921
   59c3c     HC  280   0.344   2.321   1.364 -1.5958  1.1627  0.3964
   59c3c     HC  281   0.311   2.444   1.240  0.1844 -0.2075 -0.5254
   59c3c     H1  282   0.715   2.180   1.049  1.4632  0.5839  0.2935
   59c3c     H1  283   0.777   2.323   1.123  0.6065 -0.0391  0.0208
   59c3c     H1  284   0.703   2.196   1.220 -0.4136 -2.2328 -0.9672
   59c3c     H1  285   0.619   2.469   1.005 -0.1481  0.0047  0.8407
   59c3c     H1  286   0.582   2.325   0.912  0.5778  0.1115  0.6999
   59c3c     C2  287   0.415   2.456   0.949  0.3411 -0.4179 -0.2212
   59c3c     HC  288   0.374   2.516   1.031  1.9468  0.0179  0.2755
   59c3c     HC  289   0.338   2.383   0.926 -0.7640  0.7503 -0.2693
   59c3c     CT  290   0.440   2.543   0.824  0.5511 -0.0835 -0.7311
   59c3c     HC  291   0.468   2.481   0.739  0.9268 -1.1891  0.1869
   59c3c     HC  292   0.524   2.612   0.840  0.9565 -1.1225  1.9890
   59c3c     HC  293   0.353   2.602   0.794  0.3739 -0.2495 -0.5437
   60c3c     N4  294   3.561   3.834   5.173 -0.1404  0.3275  0.2572
   60c3c     C1  295   3.667   3.921   5.114  0.2306 -0.1468 -0.0580
   60c3c     C1  296   3.640   3.742   5.256 -0.3161  0.3394  0.3045
   60c3c     C2  297   3.779   3.937   5.224 -0.2324 -0.8162 -0.2633
   60c3c     C2  298   3.760   3.817   5.312  0.5579 -0.0311  0.1863
   60c3c     C1  299   3.479   3.916   5.265 -0.0743  0.0707  0.1538
   60c3c     C1  300   3.472   3.764   5.081 -0.4703  0.0294  0.3403
   60c3c     H1  301   3.630   4.014   5.071  0.6113  0.3079  0.5798
   60c3c     H1  302   3.715   3.869   5.031 -1.3099  0.0044 -1.0562
   60c3c     H1  303   3.586   3.687   5.333  0.5639  0.4537  1.0083
   60c3c     H1  304   3.682   3.659   5.199 -1.4582 -0.5600  0.7337
   60c3c     HC  305   3.770   4.032   5.277 -0.1501 -0.2267 -1.2865
   60c3c     HC  306   3.882   3.935   5.188 -0.1871 -0.7523 -0.1349
   60c3c     HC  307   3.743   3.853   5.413 -0.9050 -0.5410  0.1387
   60c3c     HC  308   3.847   3.751   5.314 -0.0203 -0.8876 -1.5616
   60c3c     H1  309   3.420   3.988   5.209  0.2691  0.4314  0.2502
   60c3c     H1  310   3.405   3.856   5.317 -0.7588  0.0414 -0.8422
   60c3c     H1  311   3.537   3.969   5.341  0.4001 -1.0985  0.6341
   60c3c     H1  312   3.418   3.691   5.141 -0.3548  0.5275  1.0560
   60c3c     H1  313   3.395   3.833   5.047 -0.8465 -0.6221 -0.1527
   60c3c     C2  314   3.528   3.692   4.959  0.0624 -0.1656  0.5878
   60c3c     HC  315   3.622   3.643   4.984  0.0315 -0.6218 -0.1922
   60c3c     HC  316   3.551   3.765   4.881 -0.8777 -0.2706  0.2054
   60c3c     CT  317   3.434   3.584   4.906 -0.0150 -0.2404 -0.5551
   60c3c     HC  318   3.331   3.619   4.898 -0.6436 -2.3051 -1.7986
   60c3c     HC  319   3.430   3.497   4.971  1.1714 -0.7835 -1.2020
   60c3c     HC  320   3.476   3.557   4.810  2.1985 -0.3013  0.4057
   61c3c     N4  321   2.206   0.688   3.616  0.2837  0.5668  0.0417
   61c3c     C1  322   2.242   0.578   3.526  0.0363  0.4581 -0.3131
   61c3c     C1  323   2.060   0.688   3.629 -0.2570  0.1268 -0.0751
   61c3c     C2  324   2.127   0.482   3.532 -0.1613  0.1888  0.0458
   61c3c     C2  325   2.026   0.541   3.623 -0.3047  0.2681  0.1531
   61c3c     C1  326   2.263   0.655   3.747 -0.0823  0.3973 -0.2232
   61c3c     C1  327   2.267   0.820   3.574  0.1314  0.3605 -0.2516
   61c3c     H1  328   2.334   0.530   3.559  1.1589  2.6514 -0.1037
   61c3c     H1  329   2.254   0.611   3.423 -1.1858  0.7967 -0.3496
   61c3c     H1  330   2.022   0.738   3.718 -0.2181  2.1619 -1.1701
   61c3c     H1  331   2.011   0.744   3.549 -0.3058 -0.2880 -0.3341
   61c3c     HC  332   2.158   0.381   3.557  0.2722  0.1320 -0.6946
   61c3c     HC  333   2.084   0.475   3.432  0.0106  2.4125 -0.2171
   61c3c     HC  334   2.034   0.498   3.723 -1.6911 -0.1829  0.0882
   61c3c     HC  335   1.925   0.519   3.588 -0.4223  0.7331  0.1983
   61c3c     H1  336   2.372   0.665   3.747  0.0423 -0.8628 -0.2157
   61c3c     H1  337   2.227   0.722   3.825  0.3611  1.1705 -0.6731
   61c3c     H1  338   2.242   0.554   3.781 -1.0698  0.7733  0.3073
   61c3c     H1  339   2.237   0.899   3.643 -1.4919 -0.6951  0.2777
   61c3c     H1  340   2.375   0.819   3.589  0.1069 -0.1721 -0.0981
   61c3c     C2  341   2.236   0.874   3.433  0.3721  0.5510 -0.1505
   61c3c     HC  342   2.131   0.904   3.428  0.0711 -0.4395  0.0615
   61c3c     HC  343   2.255   0.799   3.357 -1.3067  1.0065 -1.0387
   61c3c     CT  344   2.313   0.999   3.389  0.5504  0.4736 -0.2734
   61c3c     HC  345   2.315   1.010   3.281 -0.8104 -0.3016 -0.3943
   61c3c     HC  346   2.417   0.997   3.423  0.5622 -0.7163 -0.3661
   61c3c     HC  347   2.273   1.092   3.430  0.7832  1.0248 -1.2886
   62c3c     N4  348   1.190   1.746   1.289  0.1895 -0.2109  0.3789
   62c3c     C1  349   1.060   1.766   1.229  0.2595 -0.8504  0.1907
   62c3c     C1  350   1.218   1.874   1.356  0.2388 -0.0172  0.3408
   62c3c     C2  351   0.981   1.851   1.327  0.5940 -0.4380  0.2746
   62c3c     C2  352   1.085   1.925   1.405  0.6038 -0.7008  0.6717
   62c3c     C1  353   1.189   1.631   1.378  0.0552  0.3352  0.3666
   62c3c     C1  354   1.291   1.705   1.188 -0.1474  0.1898  0.3124
   62c3c     H1  355   1.000   1.682   1.194 -2.1896  0.6909  0.5350
   62c3c     H1  356   1.066   1.831   1.142 -0.2927 -0.2258  0.6151
   62c3c     H1  357   1.285   1.861   1.441  0.7902 -0.7543 -0.2008
   62c3c     H1  358   1.258   1.946   1.285 -0.3343 -0.3536 -0.3332
   62c3c     HC  359   0.923   1.793   1.399  0.8698 -1.4391 -0.3036
   62c3c     HC  360   0.919   1.918   1.268 -0.1855 -1.3372  0.0705
   62c3c     HC  361   1.077   1.905   1.512 -1.2424 -1.0277  0.4874
   62c3c     HC  362   1.077   2.034   1.397 -0.3673 -0.7587  0.7111
   62c3c     H1  363   1.160   1.545   1.318  2.1426  0.2054 -0.4926
   62c3c     H1  364   1.281   1.607   1.431 -0.4940 -0.0908  1.1340
   62c3c     H1  365   1.118   1.647   1.459 -1.0006  0.6240 -0.6101
   62c3c     H1  366   1.386   1.696   1.240 -0.5926 -1.2524  0.9206
   62c3c     H1  367   1.266   1.610   1.141 -2.8933  0.9545  0.0980
   62c3c     C2  368   1.315   1.806   1.069  0.5261  0.2796  0.9249
   62c3c     HC  369   1.311   1.911   1.095 -1.1534  0.4458  0.0714
   62c3c     HC  370   1.233   1.779   1.002 -0.1832 -0.7141  2.1737
   62c3c     CT  371   1.448   1.776   0.996  0.1219  0.6877  0.3542
   62c3c     HC  372   1.459   1.667   0.991 -0.5599  0.6511 -0.3122
   62c3c     HC  373   1.532   1.811   1.056  0.3604 -1.4652  1.3116
   62c3c     HC  374   1.449   1.826   0.899  2.2451  1.9625  0.9846
   63c3c     N4  375   2.029   1.007   3.001  0.1176 -0.2211  1.2131
   63c3c     C1  376   1.961   1.107   3.086  0.2217 -0.0969  0.7963
   63c3c     C1  377   2.078   1.087   2.888  0.3358 -0.6586  0.6370
   63c3c     C2  378   2.048   1.232   3.084  0.7205 -0.6916  0.0050
   63c3c     C2  379   2.096   1.235   2.938  0.0952 -0.2585  0.4612
   63c3c     C1  380   2.141   0.943   3.074 -0.6329 -1.1744  0.7475
   63c3c     C1  381   1.942   0.895   2.962  0.5989  0.1580 -0.2655
   63c3c     H1  382   1.934   1.065   3.184 -1.2030 -0.4068  0.2794
   63c3c     H1  383   1.868   1.139   3.040  1.1746 -0.5061 -1.4545
   63c3c     H1  384   2.170   1.049   2.843  1.1659  0.3892  1.4563
   63c3c     H1  385   2.008   1.087   2.804  1.2856 -0.4320 -0.1673
   63c3c     HC  386   2.135   1.223   3.150 -0.3802 -1.0407  1.4268
   63c3c     HC  387   1.998   1.324   3.115  1.0379 -0.4342 -0.2427
   63c3c     HC  388   2.201   1.262   2.930  0.0947 -0.6284 -0.8278
   63c3c     HC  389   2.034   1.302   2.878 -0.2084 -1.3879 -0.5236
   63c3c     H1  390   2.106   0.905   3.170 -1.3285 -0.4990  0.7648
   63c3c     H1  391   2.184   0.862   3.016 -0.4803 -1.6329  1.4862
   63c3c     H1  392   2.224   1.011   3.093  0.3073 -1.7970 -1.0540
   63c3c     H1  393   2.000   0.829   2.898  1.9122  0.5959  0.4702
   63c3c     H1  394   1.923   0.835   3.050 -1.3988 -0.4117 -1.0505
   63c3c     C2  395   1.804   0.930   2.902  0.3085 -0.1028 -0.7831
   63c3c     HC  396   1.819   0.999   2.819 -0.5963  0.5766 -0.3817
   63c3c     HC  397   1.738   0.983   2.970  0.6670 -0.5098 -0.1117
   63c3c     CT  398   1.720   0.808   2.854  0.6964 -0.7287 -0.1972
   63c3c     HC  399   1.691   0.746   2.939  0.8930 -1.2847 -0.5307
   63c3c     HC  400   1.776   0.745   2.784 -1.2763 -0.1205 -2.3786
   63c3c     HC  401   1.628   0.844   2.807  0.9852  0.2897  0.0032
   64c3c     N4  402   2.356   0.171   2.922 -0.1416  0.6969 -0.2376
   64c3c     C1  403   2.265   0.190   3.035 -0.0700 -0.0366 -0.0864
   64c3c     C1  404   2.330   0.282   2.832 -0.3645  0.2716  0.0524
   64c3c     C2  405   2.139   0.261   2.983  0.0273  0.6988  0.1728
   64c3c     C2  406   2.189   0.327   2.856  0.0639  0.3563 -0.1969
   64c3c     C1  407   2.498   0.184   2.969  0.3606 -0.1539 -0.4500
   64c3c     C1  408   2.341   0.037   2.860 -0.3752 -0.0306 -0.4256
   64c3c     H1  409   2.315   0.256   3.105  0.0365  0.8466 -0.9838
   64c3c     H1  410   2.245   0.098   3.091 -0.6265  0.1045 -0.0518
   64c3c     H1  411   2.397   0.364   2.857  0.3969 -0.0661 -0.8619
   64c3c     H1  412   2.345   0.252   2.728 -0.9176 -0.2175  0.1138
   64c3c     HC  413   2.101   0.337   3.052  0.3059  1.7320 -0.8101
   64c3c     HC  414   2.055   0.195   2.962  0.0577  0.3688  1.0363
   64c3c     HC  415   2.183   0.435   2.873  0.6627  0.3359  0.1558
   64c3c     HC  416   2.120   0.304   2.776  0.9782  0.1313 -0.9335
   64c3c     H1  417   2.525   0.101   3.035 -0.3719 -0.8889 -1.0639
   64c3c     H1  418   2.574   0.192   2.892 -0.3212  1.4049 -0.9751
   64c3c     H1  419   2.516   0.270   3.033  0.6067 -0.3472 -0.2561
   64c3c     H1  420   2.423   0.020   2.792 -0.4955  0.6968 -0.7507
   64c3c     H1  421   2.347  -0.036   2.941  0.5366  1.5407  0.9599
   64c3c     C2  422   2.206   0.010   2.795  0.1415  0.3677  0.4290
   64c3c     HC  423   2.178   0.090   2.726 -0.4233  0.5791  0.9053
   64c3c     HC  424   2.123   0.006   2.865 -0.4305  0.6485 -0.2244
   64c3c     CT  425   2.210  -0.122   2.723 -0.4420  0.7794  0.1115
   64c3c     HC  426   2.253  -0.204   2.781 -0.5851  0.3911 -0.3240
   64c3c     HC  427   2.275  -0.116   2.635 -1.6011  1.1454 -0.7348
   64c3c     HC  428   2.112  -0.152   2.688  0.0866  0.2916 -0.9925
   65c3c     N4  429   3.746   0.531   3.330  0.3718  0.2491  0.3575
   65c3c     C1  430   3.742   0.466   3.462 -0.5183  0.1990  0.0478
   65c3c     C1  431   3.752   0.672   3.377  0.2717  0.4954 -0.1882
   65c3c     C2  432   3.841   0.535   3.558  0.0984 -0.1621 -0.3053
   65c3c     C2  433   3.850   0.673   3.493  0.2863  0.1839 -0.1204
   65c3c     C1  434   3.866   0.488   3.254  0.1804 -0.0493  0.4200
   65c3c     C1  435   3.629   0.510   3.241  0.2437  0.0799  0.2307
   65c3c     H1  436   3.761   0.358   3.454 -0.4375  0.3067 -1.3588
   65c3c     H1  437   3.642   0.467   3.504 -0.9180 -0.1502 -0.8942
   65c3c     H1  438   3.769   0.741   3.294  0.5614  0.1893 -0.3863
   65c3c     H1  439   3.658   0.700   3.424 -0.0073  0.1200 -0.5186
   65c3c     HC  440   3.940   0.490   3.561  0.5982  0.8056 -1.9183
   65c3c     HC  441   3.804   0.533   3.661  0.9471 -1.1392 -0.0078
   65c3c     HC  442   3.951   0.689   3.457  0.1582  0.0193 -0.5593
   65c3c     HC  443   3.829   0.753   3.564 -0.6406 -0.2213  0.0717
   65c3c     H1  444   3.861   0.381   3.232 -1.3337  0.1118 -0.0892
   65c3c     H1  445   3.873   0.538   3.158  2.0904  0.3289  0.7379
   65c3c     H1  446   3.959   0.503   3.308 -0.1350 -0.8871  1.2208
   65c3c     H1  447   3.636   0.566   3.149  0.5460 -0.4999 -0.1034
   65c3c     H1  448   3.625   0.405   3.212 -0.0590 -0.0691  0.8035
   65c3c     C2  449   3.490   0.541   3.300  0.0746  0.0944 -0.1892
   65c3c     HC  450   3.477   0.647   3.323  1.8107  0.3480 -0.3114
   65c3c     HC  451   3.472   0.489   3.394  1.2364  1.3966  0.7846
   65c3c     CT  452   3.378   0.501   3.205  0.2967  0.7361  0.0959
   65c3c     HC  453   3.283   0.546   3.233  0.6013  1.8145 -0.5553
   65c3c     HC  454   3.371   0.392   3.202  0.1790  0.7116  1.1707
   65c3c     HC  455   3.390   0.542   3.105 -0.6845  0.5773 -0.0905
   66c3c     N4  456   5.203   4.455   3.780  0.0523  0.3970 -0.4695
   66c3c     C1  457   5.082   4.504   3.843 -0.4422 -0.3065 -0.4067
   66c3c     C1  458   5.266   4.577   3.725 -0.2028 -0.1878  0.1658
   66c3c     C2  459   5.029   4.610   3.745 -0.1447 -0.0116 -0.3313
   66c3c     C2  460   5.155   4.660   3.671 -0.1368 -0.1233 -0.1819
   66c3c     C1  461   5.290   4.411   3.890  0.0755  0.1901  0.6612
   66c3c     C1  462   5.185   4.347   3.682  0.0694  0.6586  0.4386
   66c3c     H1  463   5.107   4.557   3.934 -1.5934 -1.6223  0.6870
   66c3c     H1  464   5.012   4.426   3.872  0.0318 -1.2787 -1.7670
   66c3c     H1  465   5.309   4.635   3.807 -1.1774 -1.0072  1.2661
   66c3c     H1  466   5.344   4.558   3.651 -0.5595  0.1917 -0.3169
   66c3c     HC  467   4.978   4.689   3.800  1.4236  0.4019  0.5759
   66c3c     HC  468   4.953   4.572   3.677 -0.2276 -0.7628  0.1794
   66c3c     HC  469   5.171   4.766   3.692 -1.3458  0.2247 -0.9707
   66c3c     HC  470   5.146   4.643   3.564  0.6002 -0.9506 -0.1157
   66c3c     H1  471   5.238   4.336   3.949 -0.3319 -0.2754 -0.2801
   66c3c     H1  472   5.382   4.368   3.849  0.1751  0.4504  0.6077
   66c3c     H1  473   5.317   4.492   3.957 -0.0622  0.8467 -0.0708
   66c3c     H1  474   5.276   4.315   3.632 -0.8457 -0.4321 -0.5819
   66c3c     H1  475   5.158   4.260   3.741 -1.2582  1.6381  1.3147
   66c3c     C2  476   5.073   4.356   3.572  0.0311 -0.0337 -0.0688
   66c3c     HC  477   5.077   4.448   3.513 -0.7631  0.2431  0.3151
   66c3c     HC  478   4.977   4.361   3.622 -0.1964  1.4088 -0.6192
   66c3c     CT  479   5.069   4.235   3.479 -0.2183 -0.1402  0.1534
   66c3c     HC  480   5.089   4.143   3.535 -0.5510  0.7290  1.7402
   66c3c     HC  481   5.140   4.245   3.397  0.4605 -0.4227  0.7017
   66c3c     HC  482   4.970   4.226   3.435  0.2559 -0.7320 -0.8206
   67c3c     N4  483   2.817   1.253   2.537 -0.1875  0.0309 -0.4276
   67c3c     C1  484   2.836   1.362   2.436  0.7829 -0.2201 -0.3779
   67c3c     C1  485   2.772   1.134   2.461  0.6511 -0.4069 -0.0931
   67c3c     C2  486   2.889   1.289   2.311  0.4966 -0.0186  0.0544
   67c3c     C2  487   2.856   1.142   2.334  0.0948 -0.4963  0.1423
   67c3c     C1  488   2.946   1.228   2.604  0.0090  0.3245  0.1299
   67c3c     C1  489   2.727   1.293   2.645  0.3808  0.0152 -0.0803
   67c3c     H1  490   2.905   1.438   2.473  1.0627 -0.3233 -0.6870
   67c3c     H1  491   2.745   1.415   2.411  1.0521  0.9036  0.9912
   67c3c     H1  492   2.787   1.040   2.513  2.1517 -0.5604 -0.8033
   67c3c     H1  493   2.668   1.151   2.431  0.7081  0.7538  0.3308
   67c3c     HC  494   2.996   1.307   2.294  0.6529 -1.3751 -0.5045
   67c3c     HC  495   2.841   1.313   2.216 -1.0355 -1.6012  0.4110
   67c3c     HC  496   2.946   1.083   2.349 -0.0477 -0.3600  1.5870
   67c3c     HC  497   2.801   1.098   2.251 -1.5087 -0.5760  1.2134
   67c3c     H1  498   2.996   1.319   2.639  0.2019  0.6937 -1.0645
   67c3c     H1  499   2.939   1.160   2.689 -1.6932 -0.9740 -1.0357
   67c3c     H1  500   3.019   1.185   2.536  0.0669 -0.9645  0.9856
   67c3c     H1  501   2.736   1.217   2.723  1.4942  0.1482 -0.0781
   67c3c     H1  502   2.767   1.385   2.686 -0.6781  0.5370 -0.1849
   67c3c     C2  503   2.577   1.318   2.608  0.0261 -0.4832 -0.0311
   67c3c     HC  504   2.518   1.226   2.612  1.0736 -1.1407  0.6489
   67c3c     HC  505   2.572   1.354   2.505 -0.1379 -0.5449 -0.0441
   67c3c     CT  506   2.513   1.418   2.705 -0.4124 -0.4705  0.3876
   67c3c     HC  507   2.559   1.517   2.701 -0.2516 -0.5128  1.1447
   67c3c     HC  508   2.531   1.380   2.806  1.6894 -1.0855 -0.1934
   67c3c     HC  509   2.407   1.426   2.683 -0.9384 -3.4139  1.6011
   68c3c     N4  510   3.528   1.926   3.121 -0.0904 -0.4127  0.0926
   68c3c     C1  511   3.584   1.880   3.250 -0.5454 -0.3681  0.5238
   68c3c     C1  512   3.411   1.847   3.098  0.1691  0.8608  0.0697
   68c3c     C2  513   3.466   1.833   3.332 -0.2146  0.4416  0.1383
   68c3c     C2  514   3.350   1.822   3.239 -0.4405 -0.0398  0.9406
   68c3c     C1  515   3.498   2.073   3.141  0.0723  0.7334 -0.3373
   68c3c     C1  516   3.632   1.921   3.014 -0.2479  0.4242  0.2967
   68c3c     H1  517   3.646   1.954   3.300 -0.4148 -0.6550  0.7875
   68c3c     H1  518   3.647   1.791   3.251 -0.3452 -0.2194  1.1641
   68c3c     H1  519   3.334   1.892   3.036 -0.0201  0.4590  0.0077
   68c3c     H1  520   3.439   1.750   3.057  0.1193  0.3457  1.2369
   68c3c     HC  521   3.433   1.903   3.409  0.9434  0.3253  0.7434
   68c3c     HC  522   3.486   1.739   3.383 -0.8382  0.6230  0.7357
   68c3c     HC  523   3.280   1.903   3.258 -0.1021  0.3739  0.4009
   68c3c     HC  524   3.305   1.723   3.249  0.4126 -0.4493  0.7803
   68c3c     H1  525   3.584   2.140   3.154  0.1792  0.4107  0.6163
   68c3c     H1  526   3.436   2.109   3.059  0.0356  0.1766 -0.5529
   68c3c     H1  527   3.434   2.087   3.227  1.3455  0.2849  0.7086
   68c3c     H1  528   3.580   1.951   2.922 -0.4924 -0.0177  0.2885
   68c3c     H1  529   3.710   1.993   3.037  0.1644  0.8577 -2.2477
   68c3c     C2  530   3.708   1.792   2.983 -0.2057  0.1318  0.3233
   68c3c     HC  531   3.641   1.710   2.957 -1.3774  0.9176  0.7786
   68c3c     HC  532   3.762   1.754   3.069  0.0558  0.7828  0.4544
   68c3c     CT  533   3.807   1.802   2.867 -0.8885  0.4527 -0.1253
   68c3c     HC  534   3.877   1.884   2.883  0.3094 -0.3330 -1.2253
   68c3c     HC  535   3.750   1.815   2.775 -0.4164  0.6255 -0.3933
   68c3c     HC  536   3.858   1.706   2.860 -0.5360  0.5116  1.4458
   69c3c     N4  537   1.608   0.379   3.855 -0.1953  0.3806 -0.1088
   69c3c     C1  538   1.720   0.288   3.900  0.2700  0.3929 -0.2443
   69c3c     C1  539   1.616   0.365   3.710  0.2863  0.7573 -0.4426
   69c3c     C2  540   1.709   0.166   3.810 -0.3513  0.0082  0.2470
   69c3c     C2  541   1.656   0.216   3.677  0.6942 -0.2932  0.0908
   69c3c     C1  542   1.479   0.332   3.906  0.1318 -0.6984 -0.3780
   69c3c     C1  543   1.618   0.522   3.896 -0.2266  0.0930  0.0477
   69c3c     H1  544   1.717   0.258   4.004  1.2710 -0.3253 -0.4199
   69c3c     H1  545   1.816   0.338   3.884  1.3630 -1.5247  0.2464
   69c3c     H1  546   1.519   0.391   3.667  0.0446  1.0831  0.3009
   69c3c     H1  547   1.698   0.421   3.666  0.0143  0.9597 -0.6942
   69c3c     HC  548   1.644   0.091   3.854 -0.8465  0.2568 -0.0617
   69c3c     HC  549   1.805   0.116   3.797 -0.0720  0.6270 -0.0858
   69c3c     HC  550   1.572   0.154   3.646  0.2508  0.7160 -0.7834
   69c3c     HC  551   1.734   0.218   3.601  0.6552  0.1330  0.0594
   69c3c     H1  552   1.470   0.351   4.013 -0.2047 -1.2211 -0.3124
   69c3c     H1  553   1.396   0.383   3.858  0.4711  0.5805  0.3522
   69c3c     H1  554   1.465   0.224   3.898 -2.1987 -0.3353 -1.4112
   69c3c     H1  555   1.525   0.576   3.875  0.1248  0.1703 -1.3594
   69c3c     H1  556   1.629   0.516   4.004 -1.2401  0.4146  0.1762
   69c3c     C2  557   1.740   0.608   3.847 -0.3711  0.0125  0.4939
   69c3c     HC  558   1.734   0.626   3.740 -0.4941 -0.6174  0.3969
   69c3c     HC  559   1.829   0.547   3.863  0.6666  1.0816 -1.0996
   69c3c     CT  560   1.757   0.743   3.917  0.3172  0.2966  0.6156
   69c3c     HC  561   1.779   0.731   4.023 -1.7244  0.2676  1.0629
   69c3c     HC  562   1.670   0.809   3.911  0.8779  0.9310 -0.6960
   69c3c     HC  563   1.837   0.805   3.879 -0.4898  0.6556 -0.5258
   70c3c     N4  564   3.337   0.341   2.488 -0.4609 -0.1158  0.1747
   70c3c     C1  565   3.308   0.216   2.559  0.0941 -0.1463 -0.3958
   70c3c     C1  566   3.437   0.299   2.388 -0.5414  0.4113 -0.0135
   70c3c     C2  567   3.318   0.107   2.458  0.0191  0.2563  0.1595
   70c3c     C2  568   3.411   0.154   2.349 -0.0350 -0.3261  0.2891
   70c3c     C1  569   3.211   0.385   2.425 -0.0786 -0.6131 -0.0959
   70c3c     C1  570   3.378   0.448   2.582 -0.7320  0.3439  0.1274
   70c3c     H1  571   3.209   0.208   2.605 -0.0681  0.5845 -0.6005
   70c3c     H1  572   3.379   0.197   2.640 -0.5228  2.0608  0.7173
   70c3c     H1  573   3.442   0.366   2.302 -0.3191 -0.6383 -0.8243
   70c3c     H1  574   3.539   0.299   2.425 -0.7413 -1.9618  0.5698
   70c3c     HC  575   3.222   0.079   2.413 -0.1599 -2.0037  1.8609
   70c3c     HC  576   3.362   0.018   2.503 -0.0572  1.2620  2.2719
   70c3c     HC  577   3.355   0.146   2.256  0.1133 -0.3254  0.2006
   70c3c     HC  578   3.504   0.097   2.343 -0.3861 -0.7025 -1.6431
   70c3c     H1  579   3.136   0.421   2.496  0.3449  0.4950 -0.1913
   70c3c     H1  580   3.231   0.472   2.362 -0.6542  1.6346  2.7137
   70c3c     H1  581   3.158   0.312   2.363 -1.0451 -0.4002  0.4738
   70c3c     H1  582   3.379   0.543   2.530  1.2434 -0.5541 -1.5493
   70c3c     H1  583   3.299   0.456   2.657  0.4724  1.6835  1.2749
   70c3c     C2  584   3.516   0.431   2.646 -0.6117 -0.1196 -0.0144
   70c3c     HC  585   3.593   0.439   2.569 -1.5941  1.3422 -0.8622
   70c3c     HC  586   3.525   0.333   2.692  0.7230 -0.0503 -0.1093
   70c3c     CT  587   3.561   0.535   2.748  0.1555 -0.5174  0.1568
   70c3c     HC  588   3.507   0.521   2.842  0.6003 -0.5511  0.4124
   70c3c     HC  589   3.535   0.634   2.710 -0.6452 -0.2318  1.4345
   70c3c     HC  590   3.669   0.540   2.767  0.2874 -1.1935 -0.4046
   71c3c     N4  591   4.138   3.359   0.248 -0.6698 -0.1200  0.1351
   71c3c     C1  592   4.256   3.364   0.331 -0.2627  0.3011 -0.5840
   71c3c     C1  593   4.187   3.412   0.118  0.0658 -0.0851 -0.4036
   71c3c     C2  594   4.371   3.319   0.241 -0.0035 -0.3708  0.2249
   71c3c     C2  595   4.335   3.387   0.109 -0.2868 -0.5832  0.2909
   71c3c     C1  596   4.094   3.221   0.227 -0.3218  0.2564 -0.2009
   71c3c     C1  597   4.022   3.438   0.289  0.4871  0.1050 -0.3510
   71c3c     H1  598   4.254   3.296   0.416  1.4283  0.0194 -0.7568
   71c3c     H1  599   4.278   3.463   0.370  0.6266  0.1160 -0.6153
   71c3c     H1  600   4.130   3.381   0.030  0.5262  0.5430 -0.9295
   71c3c     H1  601   4.186   3.521   0.111 -2.0484 -0.1371 -1.3177
   71c3c     HC  602   4.368   3.210   0.230 -1.6304 -0.3652  0.5636
   71c3c     HC  603   4.469   3.349   0.278  0.2297 -0.2684 -0.4519
   71c3c     HC  604   4.355   3.328   0.020  0.0036 -0.1353  0.0602
   71c3c     HC  605   4.384   3.484   0.099  1.3263 -1.4726 -0.7702
   71c3c     H1  606   4.078   3.164   0.319 -0.0108  0.4595 -0.0207
   71c3c     H1  607   4.007   3.220   0.161 -0.7569  0.5946  0.3619
   71c3c     H1  608   4.168   3.166   0.168 -0.9420 -0.2587 -0.5084
   71c3c     H1  609   3.940   3.435   0.218  1.1956  0.2198 -1.1957
   71c3c     H1  610   3.985   3.396   0.382  1.7343 -0.5117 -0.1170
   71c3c     C2  611   4.055   3.589   0.315  0.5759 -0.1172 -0.5183
   71c3c     HC  612   4.093   3.644   0.229  0.2016 -0.5299 -0.9512
   71c3c     HC  613   4.118   3.603   0.403 -0.8420  1.1503  0.3373
   71c3c     CT  614   3.925   3.664   0.351 -0.1290  0.5220 -0.0810
   71c3c     HC  615   3.902   3.645   0.456 -1.2762  0.8945 -0.2607
   71c3c     HC  616   3.845   3.625   0.289  1.0895  0.1894 -1.4762
   71c3c     HC  617   3.925   3.772   0.332  2.2888  0.6322  0.4046
   72c3c     N4  618   2.417   4.032   1.418 -0.0876 -0.1876 -0.1898
   72c3c     C1  619   2.423   3.887   1.430 -0.2719 -0.0682 -0.1745
   72c3c     C1  620   2.385   4.081   1.554  0.0359 -0.2280  0.0154
   72c3c     C2  621   2.482   3.861   1.566 -0.5405 -0.2405 -0.2671
   72c3c     C2  622   2.451   3.985   1.652  0.2991 -0.0247 -0.2626
   72c3c     C1  623   2.549   4.089   1.382 -0.0991  0.0712 -0.2362
   72c3c     C1  624   2.321   4.084   1.320 -0.0698  0.3356  0.0883
   72c3c     H1  625   2.476   3.837   1.349 -0.2714  1.2418 -0.9963
   72c3c     H1  626   2.323   3.843   1.433 -0.3518  0.1320  0.0276
   72c3c     H1  627   2.414   4.184   1.574 -0.0550 -0.1127 -0.4382
   72c3c     H1  628   2.279   4.077   1.575  0.2887 -0.5440  1.2582
   72c3c     HC  629   2.591   3.849   1.561 -0.7233 -2.3503  0.5017
   72c3c     HC  630   2.442   3.769   1.609 -0.4421 -0.3695 -0.4482
   72c3c     HC  631   2.543   4.029   1.693  0.1775 -0.5325  0.5547
   72c3c     HC  632   2.386   3.968   1.738  0.9925  0.4930  0.3809
   72c3c     H1  633   2.594   4.042   1.294  0.0556  0.8608 -0.5816
   72c3c     H1  634   2.539   4.196   1.363  0.0800  0.2404  0.6039
   72c3c     H1  635   2.622   4.088   1.463  0.9499  0.8338 -1.1518
   72c3c     H1  636   2.315   4.192   1.334 -0.9824  0.3577 -0.4875
   72c3c     H1  637   2.361   4.074   1.219 -0.7947 -0.2832 -0.1316
   72c3c     C2  638   2.180   4.026   1.326 -0.4153 -0.0789  0.1455
   72c3c     HC  639   2.133   4.025   1.425 -0.2663  1.9626  0.2531
   72c3c     HC  640   2.180   3.923   1.292 -0.5713 -0.1443  0.3406
   72c3c     CT  641   2.087   4.106   1.233 -0.0347  0.2709 -0.5163
   72c3c     HC  642   2.129   4.132   1.136  0.4635  0.1001 -0.3465
   72c3c     HC  643   2.057   4.198   1.284  0.1592  0.3750 -0.5924
   72c3c     HC  644   1.997   4.047   1.217 -0.1793  0.6616 -1.1789
   73c3c     N4  645   3.915   3.463   4.703 -0.0230  0.0578 -0.6150
   73c3c     C1  646   3.847   3.592   4.735  0.2520 -0.0462 -0.2151
   73c3c     C1  647   3.817   3.394   4.620  0.0789  0.3149 -0.2748
   73c3c     C2  648   3.765   3.625   4.610  0.0565  0.0159  0.0807
   73c3c     C2  649   3.766   3.500   4.526 -0.1408 -0.0832 -0.1571
   73c3c     C1  650   4.041   3.487   4.632  0.2633 -0.0561 -0.4351
   73c3c     C1  651   3.957   3.393   4.827  0.4101 -0.1816 -0.3602
   73c3c     H1  652   3.922   3.668   4.759  2.1436 -1.4293 -1.6081
   73c3c     H1  653   3.772   3.582   4.814  0.3071  0.4545 -0.0940
   73c3c     H1  654   3.852   3.302   4.573 -0.0455 -0.5932  1.3907
   73c3c     H1  655   3.729   3.369   4.679  0.3228  0.3186  0.0917
   73c3c     HC  656   3.816   3.709   4.562 -0.3527  0.4127  0.3417
   73c3c     HC  657   3.663   3.654   4.635  0.2217  0.4664  0.2454
   73c3c     HC  658   3.834   3.512   4.442  0.0687 -0.7208 -0.0875
   73c3c     HC  659   3.668   3.480   4.482  0.3822  1.3056 -2.0220
   73c3c     H1  660   4.123   3.526   4.692  0.6995 -0.1930 -0.9395
   73c3c     H1  661   4.082   3.393   4.595 -0.2673  0.2105 -1.7251
   73c3c     H1  662   4.030   3.550   4.544  1.4379  0.7558 -0.0020
   73c3c     H1  663   4.019   3.308   4.798 -0.2953 -0.5121 -0.9246
   73c3c     H1  664   4.024   3.458   4.883  0.6913 -0.5697 -0.2438
   73c3c     C2  665   3.848   3.359   4.930  0.1060  0.1260 -0.2707
   73c3c     HC  666   3.760   3.316   4.885 -0.1902 -0.2028  0.6148
   73c3c     HC  667   3.810   3.449   4.979 -1.1733 -0.5325 -0.0639
   73c3c     CT  668   3.900   3.265   5.038 -0.0006  0.3719 -0.5099
   73c3c     HC  669   4.000   3.289   5.074  0.2399 -0.3018 -0.7172
   73c3c     HC  670   3.901   3.160   5.006  0.4146 -0.0865  0.9480
   73c3c     HC  671   3.832   3.270   5.122  0.1687  0.2988 -0.3672
   74c3c     N4  672   4.151   2.680   3.640 -0.2787  0.0346 -0.2882
   74c3c     C1  673   4.071   2.756   3.544  0.4648 -0.1997 -0.5182
   74c3c     C1  674   4.049   2.618   3.726 -0.1523  0.3737 -0.2570
   74c3c     C2  675   3.949   2.667   3.513 -0.0067  0.9253 -0.0939
   74c3c     C2  676   3.927   2.583   3.642  0.2447  0.1581  0.3387
   74c3c     C1  677   4.227   2.574   3.569 -0.0466 -0.2897  0.6613
   74c3c     C1  678   4.251   2.761   3.709 -0.2425  0.1138  0.4177
   74c3c     H1  679   4.127   2.787   3.456  0.7392 -1.3193 -0.7473
   74c3c     H1  680   4.031   2.848   3.587 -0.5184 -0.4788 -0.8266
   74c3c     H1  681   4.089   2.527   3.772 -0.3548 -0.2976 -1.3767
   74c3c     H1  682   4.016   2.680   3.809 -0.5147 -0.3041  0.1142
   74c3c     HC  683   3.966   2.602   3.427 -1.2294  0.5315 -0.0447
   74c3c     HC  684   3.864   2.729   3.485  0.6074  1.9125  0.1866
   74c3c     HC  685   3.920   2.476   3.623  0.3822 -0.0649  1.5313
   74c3c     HC  686   3.835   2.619   3.687 -0.4502 -0.7660 -0.3192
   74c3c     H1  687   4.309   2.607   3.506 -0.0498  0.5831  1.1078
   74c3c     H1  688   4.267   2.505   3.644  0.2141 -0.0571  0.7357
   74c3c     H1  689   4.166   2.512   3.503 -0.2313  1.7552 -1.1228
   74c3c     H1  690   4.322   2.698   3.762 -0.0533 -0.2465 -0.2538
   74c3c     H1  691   4.310   2.814   3.634  1.1318 -0.6470  0.9434
   74c3c     C2  692   4.200   2.873   3.806 -0.3571 -0.1182  0.8065
   74c3c     HC  693   4.122   2.844   3.877 -0.9317  0.1400  0.2866
   74c3c     HC  694   4.157   2.957   3.752 -0.0867  0.1302  0.9780
   74c3c     CT  695   4.318   2.931   3.887 -0.3748 -0.5950  0.4899
   74c3c     HC  696   4.391   2.971   3.817  0.8032 -1.9467  0.9436
   74c3c     HC  697   4.364   2.860   3.955 -0.0431 -0.1386  0.7457
   74c3c     HC  698   4.283   3.018   3.943 -0.7476 -0.5775  0.2324
   75c3c     N4  699   4.171   0.359   1.496  0.3069 -0.5373  0.5324
   75c3c     C1  700   4.256   0.270   1.420 -0.2638 -0.1336 -0.4205
   75c3c     C1  701   4.253   0.407   1.604  1.1499  0.1246 -0.1548
   75c3c     C2  702   4.396   0.333   1.426  0.2163  0.8387  0.0654
   75c3c     C2  703   4.393   0.414   1.551  0.4342 -0.0947 -0.1155
   75c3c     C1  704   4.130   0.476   1.418 -0.2158 -0.9262 -0.3525
   75c3c     C1  705   4.044   0.299   1.545 -0.1062 -0.3222 -0.5388
   75c3c     H1  706   4.222   0.256   1.318 -2.8212 -0.0620  0.3885
   75c3c     H1  707   4.253   0.173   1.471  0.3313 -0.4841 -1.0458
   75c3c     H1  708   4.217   0.501   1.646  0.5362 -0.5690  0.8989
   75c3c     H1  709   4.249   0.337   1.688  0.6119  1.0024  0.5550
   75c3c     HC  710   4.417   0.390   1.336  0.0648  1.3417  0.3486
   75c3c     HC  711   4.466   0.249   1.431  0.3521  0.9059 -0.6167
   75c3c     HC  712   4.421   0.518   1.532  1.6806  0.0815  2.4828
   75c3c     HC  713   4.461   0.371   1.624  0.9434  0.8260 -0.0365
   75c3c     H1  714   4.090   0.445   1.322  0.5619 -1.1151 -0.6206
   75c3c     H1  715   4.058   0.540   1.469 -1.1092 -2.9393  0.9669
   75c3c     H1  716   4.214   0.542   1.396 -0.5086 -0.8000 -1.0864
   75c3c     H1  717   3.998   0.365   1.619  0.6665 -0.4681  0.0777
   75c3c     H1  718   3.972   0.298   1.463  0.1775 -1.2941 -0.7806
   75c3c     C2  719   4.049   0.159   1.609 -0.2761 -0.3937  0.2598
   75c3c     HC  720   4.143   0.139   1.661 -0.4460  0.5597  0.9560
   75c3c     HC  721   4.044   0.087   1.528  0.7273 -0.8290  0.5766
   75c3c     CT  722   3.944   0.136   1.717 -0.6562  0.0505  0.2383
   75c3c     HC  723   3.960   0.038   1.763  0.4144  0.3604  0.5473
   75c3c     HC  724   3.842   0.144   1.680 -0.6117 -0.2957  0.0425
   75c3c     HC  725   3.959   0.210   1.796 -1.1816  1.0993 -0.6250
   76fsi    FSI  726   1.488   0.963   1.282 -0.0857 -0.0616  0.9220
   76fsi    SBT  727   1.346   1.007   1.322  0.0968  0.5689  0.0598
   76fsi    NBT  728   1.371   1.144   1.397  0.4001  0.0374  0.8051
   76fsi    OBT  729   1.267   1.016   1.203  0.6318  0.5529 -0.1171
   76fsi    OBT  730   1.306   0.906   1.416 -0.4091  0.1593 -0.5367
   76fsi    SBT  731   1.372   1.288   1.350 -0.1819 -0.4075  0.3187
   76fsi    OBT  732   1.348   1.314   1.208  0.0286  0.5577  0.3331
   76fsi    OBT  733   1.478   1.371   1.410 -0.1778  0.2083 -0.0149
   76fsi    FSI  734   1.242   1.341   1.424  0.0823 -0.3680  0.0657
   77fsi    FSI  735   1.700   1.874   2.435 -0.2735 -0.6564  0.2580
   77fsi    SBT  736   1.672   2.018   2.492  0.2355 -0.4545  0.1377
   77fsi    NBT  737   1.633   2.100   2.361  0.7425 -0.1691  0.7476
   77fsi    OBT  738   1.560   1.989   2.572 -0.0072 -0.4060 -0.3562
   77fsi    OBT  739   1.790   2.057   2.566  0.0520  0.0548  0.4188
   77fsi    SBT  740   1.537   2.065   2.236  0.5767 -0.1948 -0.0120
   77fsi    OBT  741   1.512   1.926   2.213 -0.3702  0.0291 -0.6093
   77fsi    OBT  742   1.579   2.142   2.127  0.5402 -0.2114 -0.8031
   77fsi    FSI  743   1.395   2.131   2.273 -0.1262 -0.1732 -0.0696
   78fsi    FSI  744   3.426   1.150   2.296  0.0909  0.4236 -0.0500
   78fsi    SBT  745   3.296   1.099   2.353  0.0270 -0.2476 -0.3945
   78fsi    NBT  746   3.289   0.952   2.294 -0.3413 -0.3594  0.1288
   78fsi    OBT  747   3.312   1.110   2.493  1.0882  0.3364  0.3317
   78fsi    OBT  748   3.200   1.187   2.296 -0.5299 -0.9581  0.2256
   78fsi    SBT  749   3.380   0.830   2.333 -0.0146 -0.0487 -0.1965
   78fsi    OBT  750   3.327   0.707   2.280  0.0163 -0.2850 -0.0230
   78fsi    OBT  751   3.434   0.827   2.465  0.3848  0.2174 -0.2603
   78fsi    FSI  752   3.503   0.854   2.240 -0.0206 -0.9228 -0.2411
   79fsi    FSI  753   2.473   1.896   2.240 -0.4851  0.3245  0.4949
   79fsi    SBT  754   2.584   1.893   2.126 -0.0515 -0.2905 -0.0078
   79fsi    NBT  755   2.633   1.746   2.110 -0.5670 -0.3649  0.5495
   79fsi    OBT  756   2.502   1.932   2.015 -0.5100  0.4276 -0.8554
   79fsi    OBT  757   2.692   1.980   2.163  0.0260 -0.0859  0.1259
   79fsi    SBT  758   2.777   1.690   2.114  0.4072 -0.5963 -0.6972
   79fsi    OBT  759   2.806   1.585   2.208  0.0802 -0.4954 -0.0970
   79fsi    OBT  760   2.886   1.787   2.093  0.0267 -0.2600  0.2126
   79fsi    FSI  761   2.778   1.618   1.970 -0.3645 -0.0031 -0.4834
   80fsi    FSI  762   3.574   1.122   1.446  0.0876  0.1677 -0.2487
   80fsi    SBT  763   3.717   1.061   1.429 -0.2052 -0.1091 -0.0959
   80fsi    NBT  764   3.681   0.939   1.340  0.6700 -0.6064  0.1471
   80fsi    OBT  765   3.795   1.146   1.348 -0.4191 -0.0133  0.5671
   80fsi    OBT  766   3.750   1.037   1.569  0.1516 -0.1665  0.3730
   80fsi    SBT  767   3.651   0.786   1.371  0.0215  0.2344 -0.4392
   80fsi    OBT  768   3.700   0.738   1.496 -0.2426 -0.1993 -0.6509
   80fsi    OBT  769   3.677   0.712   1.253  0.6047  0.2618  0.4497
   80fsi    FSI  770   3.496   0.781   1.390 -0.8272 -1.0580  0.4050
   81fsi    FSI  771   1.030   1.659   2.673  0.3299  0.0296 -0.5625
   81fsi    SBT  772   1.125   1.532   2.696 -0.0590 -0.0993  0.2055
   81fsi    NBT  773   1.265   1.602   2.706 -0.4295  0.3127 -0.1948
   81fsi    OBT  774   1.071   1.478   2.815  0.5441 -0.0375 -0.4690
   81fsi    OBT  775   1.111   1.464   2.572 -0.4077 -0.6375  0.2353
   81fsi    SBT  776   1.364   1.663   2.594 -0.5923 -0.0573  0.3004
   81fsi    OBT  777   1.355   1.594   2.472  0.1370  0.0505  0.0981
   81fsi    OBT  778   1.489   1.690   2.656 -0.0194 -0.0786  0.0349
   81fsi    FSI  779   1.314   1.813   2.573 -0.3187 -0.1498  0.5836
   82fsi    FSI  780   3.195   1.036   2.849  0.0361  0.0823 -0.8991
   82fsi    SBT  781   3.345   1.068   2.839 -0.1916  0.2130 -0.5119
   82fsi    NBT  782   3.401   1.035   2.983  0.2978 -0.0827 -0.0011
   82fsi    OBT  783   3.383   0.979   2.734 -0.7109  0.0238  0.2703
   82fsi    OBT  784   3.344   1.205   2.808 -0.4042 -0.6034 -0.0883
   82fsi    SBT  785   3.519   0.937   3.025 -0.4600  0.0657 -0.5560
   82fsi    OBT  786   3.523   0.815   2.951 -0.2354 -0.9132  0.2472
   82fsi    OBT  787   3.513   0.930   3.168  0.2496  0.8986 -0.8681
   82fsi    FSI  788   3.647   1.011   2.988 -0.4532  0.0854 -0.4395
   83fsi    FSI  789   3.694   0.311   2.068 -0.5435  0.7960  0.2018
   83fsi    SBT  790   3.686   0.448   1.987 -0.0707 -0.1104  0.1245
   83fsi    NBT  791   3.824   0.510   2.009  0.7205  0.7024 -0.2564
   83fsi    OBT  792   3.660   0.392   1.856 -0.4757  0.4182 -0.1509
   83fsi    OBT  793   3.585   0.524   2.061 -0.2508  0.2366  0.9588
   83fsi    SBT  794   3.925   0.578   1.907 -0.1595 -0.2517  0.1385
   83fsi    OBT  795   3.865   0.616   1.782 -0.5180  0.1898  0.5800
   83fsi    OBT  796   4.047   0.510   1.891  0.0495 -0.5992  0.0692
   83fsi    FSI  797   3.963   0.718   1.985  0.6650 -0.2046  0.1545
   84fsi    FSI  798   2.590   4.570   4.453 -0.2208 -0.2803 -0.0090
   84fsi    SBT  799   2.539   4.598   4.307  0.2860  0.0439 -0.0986
   84fsi    NBT  800   2.386   4.619   4.334  0.0197 -0.0722 -0.1161
   84fsi    OBT  801   2.612   4.709   4.257 -0.1232 -0.1501 -0.5609
   84fsi    OBT  802   2.564   4.473   4.234  0.6476  0.1959  0.2760
   84fsi    SBT  803   2.295   4.744   4.360 -0.0277  0.1515 -0.4467
   84fsi    OBT  804   2.160   4.717   4.311  0.2170 -0.5848  0.5338
   84fsi    OBT  805   2.354   4.871   4.349  0.2475  0.7470 -0.5641
   84fsi    FSI  806   2.269   4.731   4.515 -0.5164  0.6500  0.5425
   85fsi    FSI  807   4.119   3.745   5.183 -0.1156  0.1021 -0.6147
   85fsi    SBT  808   4.081   3.747   5.031  0.1005 -0.2730  0.0148
   85fsi    NBT  809   4.062   3.899   5.000  0.3845 -0.2411  0.0683
   85fsi    OBT  810   4.192   3.687   4.962  0.1164  0.2835  0.0229
   85fsi    OBT  811   3.956   3.675   5.031 -0.0073 -0.4111 -0.2336
   85fsi    SBT  812   4.107   3.982   4.874 -0.5378 -0.0964  0.2056
   85fsi    OBT  813   4.021   4.095   4.854 -0.1717 -0.4927 -0.3834
   85fsi    OBT  814   4.148   3.907   4.758 -0.0776  0.2780  0.7667
   85fsi    FSI  815   4.252   4.050   4.910 -0.1194  0.5324  0.6372
   86fsi    FSI  816   1.809   2.014   1.350  0.2400  0.1545  1.0690
   86fsi    SBT  817   1.917   2.093   1.428  0.1187 -0.5233  0.7475
   86fsi    NBT  818   1.894   2.057   1.576  0.0161 -1.0367 -0.2308
   86fsi    OBT  819   2.029   2.031   1.358 -0.0244 -0.8409 -0.6196
   86fsi    OBT  820   1.893   2.233   1.404 -0.2022  0.2499  0.9432
   86fsi    SBT  821   1.993   1.966   1.668  0.2248 -0.3683 -0.2307
   86fsi    OBT  822   2.046   1.852   1.589  0.5008 -0.4718  1.0084
   86fsi    OBT  823   1.929   1.943   1.792  0.3389  0.1936 -0.7280
   86fsi    FSI  824   2.125   2.069   1.702  0.0314  0.1661 -0.5738
   87fsi    FSI  825   1.723   2.655   1.730  0.5195 -0.1452  0.9220
   87fsi    SBT  826   1.700   2.508   1.791  0.2647 -0.2183  0.1408
   87fsi    NBT  827   1.804   2.428   1.706  0.0555 -0.1264  0.3721
   87fsi    OBT  828   1.721   2.522   1.931  0.6383 -0.3539  0.4962
   87fsi    OBT  829   1.561   2.490   1.746 -0.3196  0.8849  0.1804
   87fsi    SBT  830   1.949   2.402   1.757  0.4142  0.0864 -0.0228
   87fsi    OBT  831   1.992   2.497   1.854  0.2906  0.2820  0.2686
   87fsi    OBT  832   2.054   2.354   1.671 -0.2425 -0.9529  0.5182
   87fsi    FSI  833   1.928   2.278   1.848  0.0470 -0.2733 -0.6857
   88fsi    FSI  834   3.432   1.431   3.307  0.8501 -0.0436 -0.2622
   88fsi    SBT  835   3.432   1.345   3.168  0.0600 -0.0389 -0.1165
   88fsi    NBT  836   3.571   1.303   3.127  0.0671  0.1677 -0.3318
   88fsi    OBT  837   3.357   1.226   3.200 -1.0860  0.0222  0.2907
   88fsi    OBT  838   3.378   1.437   3.069 -0.6237  0.5411 -0.2754
   88fsi    SBT  839   3.664   1.393   3.044 -0.3663  0.0484 -0.0025
   88fsi    OBT  840   3.697   1.513   3.117  0.0204 -0.4501  0.3730
   88fsi    OBT  841   3.631   1.398   2.901 -0.9233 -0.2037 -0.5561
   88fsi    FSI  842   3.796   1.306   3.059 -0.1889  0.0079  0.5948
   89fsi    FSI  843   3.135   2.845   2.404  0.3724 -0.0083 -0.6561
   89fsi    SBT  844   3.099   2.762   2.531  0.1378 -0.5074 -0.2466
   89fsi    NBT  845   3.233   2.681   2.563  0.3708 -0.3652 -0.8425
   89fsi    OBT  846   3.065   2.853   2.641 -0.4860 -0.6255 -0.3106
   89fsi    OBT  847   2.995   2.673   2.483  0.1565 -0.6134 -0.3598
   89fsi    SBT  848   3.262   2.526   2.572  0.2772 -0.8278  0.4502
   89fsi    OBT  849   3.152   2.438   2.544 -0.2535  0.0327 -0.1574
   89fsi    OBT  850   3.340   2.496   2.691  0.0058  0.1186  0.7393
   89fsi    FSI  851   3.352   2.497   2.453 -0.3388 -0.1764  0.0385
   90fsi    FSI  852   4.123   1.446   1.021  1.4180  0.0456  0.2763
   90fsi    SBT  853   4.022   1.351   1.098 -0.3293  0.2036 -0.1378
   90fsi    NBT  854   4.012   1.224   1.002  0.2823 -0.3190  0.7414
   90fsi    OBT  855   4.095   1.331   1.219  0.2751 -0.4146  0.1830
   90fsi    OBT  856   3.896   1.420   1.108 -0.2612 -0.1446 -0.7429
   90fsi    SBT  857   3.912   1.196   0.887  0.3261  0.6300  0.5405
   90fsi    OBT  858   3.770   1.196   0.920 -0.1628  0.3257 -1.1287
   90fsi    OBT  859   3.956   1.084   0.804  0.0022  0.1108 -0.6791
   90fsi    FSI  860   3.951   1.323   0.794  0.5211  0.1009  0.8286
   91fsi    FSI  861   0.051   4.693   3.609 -0.5628 -0.1550  0.1171
   91fsi    SBT  862   0.065   4.577   3.711  0.2799 -0.2957 -0.1160
   91fsi    NBT  863   0.223   4.560   3.740 -0.6272 -1.0985 -0.2389
   91fsi    OBT  864  -0.001   4.635   3.826 -0.3286 -0.7667  0.3007
   91fsi    OBT  865  -0.001   4.461   3.648  0.2395  0.0354 -0.3475
   91fsi    SBT  866   0.330   4.498   3.649 -0.2718  0.3650 -0.0685
   91fsi    OBT  867   0.283   4.381   3.582 -0.2952 -0.0758  0.2058
   91fsi    OBT  868   0.458   4.501   3.712 -0.0503  0.5818  0.0327
   91fsi    FSI  869   0.348   4.606   3.539 -0.2143  0.9553  0.5105
   92fsi    FSI  870   3.764   4.822   4.703  0.2252  0.1723 -0.2632
   92fsi    SBT  871   3.806   4.667   4.711 -0.0021 -0.2781 -0.3615
   92fsi    NBT  872   3.962   4.661   4.713  1.2423 -1.4517  0.4357
   92fsi    OBT  873   3.748   4.607   4.828 -0.3554 -0.1130  0.1706
   92fsi    OBT  874   3.760   4.618   4.584  0.8408  0.6786 -0.1855
   92fsi    SBT  875   4.054   4.534   4.716  0.1618  0.1269  0.0175
   92fsi    OBT  876   3.981   4.427   4.644 -0.0198  0.3858 -0.8393
   92fsi    OBT  877   4.118   4.495   4.843  0.0966  0.5428  0.5684
   92fsi    FSI  878   4.184   4.567   4.625  0.3881 -0.2718  0.2913
   93fsi    FSI  879   2.821   0.764   3.865 -0.1350 -0.3141 -0.0895
   93fsi    SBT  880   2.736   0.649   3.801  0.1710  0.1146  0.0133
   93fsi    NBT  881   2.642   0.726   3.692 -0.5886  0.4413  0.3004
   93fsi    OBT  882   2.832   0.566   3.742  0.3330  0.0724 -0.3886
   93fsi    OBT  883   2.654   0.599   3.904 -0.1691  0.2388 -0.3383
   93fsi    SBT  884   2.676   0.745   3.539  0.2967  0.0318  0.4736
   93fsi    OBT  885   2.817   0.743   3.519  0.6262  0.0188  0.5218
   93fsi    OBT  886   2.603   0.853   3.478 -0.1999 -0.4397  0.4482
   93fsi    FSI  887   2.625   0.611   3.473  0.0987  0.3251 -0.1228
   94fsi    FSI  888   3.455   0.002   3.095 -0.2322 -0.5198  0.2501
   94fsi    SBT  889   3.549   0.022   2.967 -0.1237 -0.0117  0.7370
   94fsi    NBT  890   3.690  -0.019   3.021 -0.3005  0.1481  0.2931
   94fsi    OBT  891   3.497  -0.074   2.872  0.5491  0.2580  0.2416
   94fsi    OBT  892   3.539   0.165   2.936 -0.6398 -0.0733  0.5732
   94fsi    SBT  893   3.768  -0.157   3.011 -0.0871 -0.0703  0.2363
   94fsi    OBT  894   3.686  -0.267   2.968  0.3970 -0.1121  0.1669
   94fsi    OBT  895   3.867  -0.178   3.113  0.1669 -0.2111 -0.5792
   94fsi    FSI  896   3.858  -0.131   2.888 -0.0663 -0.6190  0.5017
   95fsi    FSI  897   2.642   1.851   2.629 -0.2483 -0.6827 -0.3897
   95fsi    SBT  898   2.698   1.760   2.514  0.2361 -0.2454 -0.5660
   95fsi    NBT  899   2.783   1.853   2.426  0.6534 -0.1175 -0.1145
   95fsi    OBT  900   2.779   1.667   2.592  0.3905 -0.3219 -0.0755
   95fsi    OBT  901   2.582   1.704   2.453  0.2572 -0.7447 -0.1740
   95fsi    SBT  902   2.935   1.902   2.445 -0.4310 -0.2343 -0.3815
   95fsi    OBT  903   2.983   1.899   2.579 -0.5268 -0.5540 -0.0201
   95fsi    OBT  904   2.972   2.008   2.359 -0.3585 -0.1270  0.1097
   95fsi    FSI  905   3.011   1.779   2.382 -0.6626  0.2382  0.7232
   96fsi    FSI  906   2.371   4.706   3.796  0.2989 -0.0995  1.0553
   96fsi    SBT  907   2.442   4.781   3.905  0.0432  0.1820 -0.2446
   96fsi    NBT  908   2.494   4.904   3.833 -0.5291 -0.0599 -0.0697
   96fsi    OBT  909   2.353   4.810   4.015 -0.2486 -0.4451 -0.2884
   96fsi    OBT  910   2.550   4.695   3.935  0.1163 -0.0272 -0.4687
   96fsi    SBT  911   2.630   4.972   3.862 -0.1770 -0.0073 -0.3150
   96fsi    OBT  912   2.661   4.975   4.001 -0.8258  0.8552 -0.3427
   96fsi    OBT  913   2.644   5.094   3.785 -0.1013 -0.2608 -0.4072
   96fsi    FSI  914   2.734   4.873   3.805  0.7829 -0.6593  0.7080
   97fsi    FSI  915   3.971   4.158   4.271  0.2831 -0.3812  0.4119
   97fsi    SBT  916   4.109   4.123   4.313 -0.1649 -1.1495 -0.2485
   97fsi    NBT  917   4.121   3.982   4.251 -0.7987  0.1216 -0.3555
   97fsi    OBT  918   4.175   4.228   4.240 -1.4470 -0.4888 -0.0071
   97fsi    OBT  919   4.112   4.125   4.459  0.1080  0.0496 -0.2390
   97fsi    SBT  920   4.097   3.842   4.314 -0.1302  0.7554 -0.3981
   97fsi    OBT  921   4.062   3.832   4.451  0.1194  0.7109  0.2578
   97fsi    OBT  922   4.202   3.758   4.264 -0.2515  0.3846 -0.5599
   97fsi    FSI  923   3.964   3.800   4.237 -0.5526  0.1148  0.8490
   98fsi    FSI  924   1.694   5.418   3.921  0.4885  0.3053  0.0081
   98fsi    SBT  925   1.861   5.409   3.934  0.4207  0.1140 -0.0525
   98fsi    NBT  926   1.896   5.430   4.083  0.2257 -0.4490  0.0503
   98fsi    OBT  927   1.891   5.276   3.889 -0.4344  0.0031  0.1232
   98fsi    OBT  928   1.893   5.517   3.852  0.0883 -0.0995  0.1117
   98fsi    SBT  929   1.853   5.550   4.169 -0.4917  0.0116 -0.0998
   98fsi    OBT  930   1.833   5.507   4.306  0.5046 -0.1472 -1.1737
   98fsi    OBT  931   1.766   5.652   4.117  0.2872  0.5693  0.5447
   98fsi    FSI  932   1.982   5.618   4.186 -0.6046  0.0406 -1.0495
   99fsi    FSI  933   2.970   2.128   1.886 -0.3023 -0.1895 -0.3571
   99fsi    SBT  934   3.046   2.161   2.018  0.2571 -0.3512 -0.2764
   99fsi    NBT  935   3.093   2.024   2.082 -0.1739  0.4355  0.3696
   99fsi    OBT  936   3.150   2.250   1.978  0.3230 -0.1553  0.6392
   99fsi    OBT  937   2.943   2.210   2.104 -0.6145 -0.0284 -0.0917
   99fsi    SBT  938   3.203   1.923   2.037  0.2577  0.1073  0.0954
   99fsi    OBT  939   3.189   1.865   1.906 -0.2938 -0.5375  0.2526
   99fsi    OBT  940   3.227   1.832   2.144 -0.0330  0.5008  0.4946
   99fsi    FSI  941   3.329   2.014   2.025 -0.1914 -0.3646  0.3715
  100fsi    FSI  942   4.163   0.994   1.548 -0.8854  0.1130 -0.1818
  100fsi    SBT  943   4.079   0.879   1.469 -0.7078  0.0149 -0.2095
  100fsi    NBT  944   4.022   0.955   1.345 -0.3519  0.1253  0.0596
  100fsi    OBT  945   4.182   0.787   1.434  1.0078  0.4373  0.3735
  100fsi    OBT  946   3.982   0.830   1.564 -0.9233 -0.5632 -0.4450
  100fsi    SBT  947   3.994   0.910   1.198  0.2475  0.3864 -0.2635
  100fsi    OBT  948   3.882   0.965   1.130  0.5894  0.5440 -0.0526
  100fsi    OBT  949   4.009   0.767   1.180 -0.9125  0.3716 -0.4697
  100fsi    FSI  950   4.115   0.963   1.118  0.3542 -0.5283  0.3993
  101fsi    FSI  951   4.004   0.736   0.887 -0.1049 -0.0864 -0.0299
  101fsi    SBT  952   3.873   0.674   0.827 -0.2298  0.4036 -0.4166
  101fsi    NBT  953   3.754   0.746   0.908 -0.3351  0.1704  1.0395
  101fsi    OBT  954   3.882   0.708   0.685  0.6043 -0.7706  0.4346
  101fsi    OBT  955   3.880   0.541   0.877 -0.7006  0.0147 -0.5056
  101fsi    SBT  956   3.637   0.842   0.862 -0.3015 -0.0957 -0.1993
  101fsi    OBT  957   3.678   0.934   0.757 -0.1031  0.0044  0.0323
  101fsi    OBT  958   3.556   0.898   0.963  0.0855  0.8390 -0.7119
  101fsi    FSI  959   3.536   0.747   0.787 -0.0035 -0.0599  0.0353
  102fsi    FSI  960   1.866   1.397   1.784  0.2487 -0.3508  0.0745
  102fsi    SBT  961   1.868   1.465   1.644 -0.6295 -0.1939 -0.0470
  102fsi    NBT  962   1.733   1.546   1.636 -0.1685 -0.1856 -0.1260
  102fsi    OBT  963   1.987   1.549   1.655 -0.5200  0.1742  0.7599
  102fsi    OBT  964   1.876   1.358   1.550  0.2264 -1.1192  0.3086
  102fsi    SBT  965   1.696   1.650   1.523  0.3675  0.2058  0.4392
  102fsi    OBT  966   1.555   1.644   1.478 -0.2925  0.6017 -0.0148
  102fsi    OBT  967   1.798   1.679   1.427 -0.2533 -0.0153 -0.5484
  102fsi    FSI  968   1.714   1.778   1.620  0.5370  0.5010  0.2716
  103fsi    FSI  969   2.000   4.681   4.629  0.0144  0.3774 -0.7927
  103fsi    SBT  970   1.899   4.778   4.552 -0.3678  0.1258  0.2283
  103fsi    NBT  971   1.802   4.827   4.661 -0.9952  0.1397 -0.5230
  103fsi    OBT  972   1.986   4.881   4.500  0.2277  0.1325 -0.1549
  103fsi    OBT  973   1.832   4.691   4.462  0.6176  0.0078 -0.7485
  103fsi    SBT  974   1.830   4.954   4.749  0.0912  0.1140 -0.4699
  103fsi    OBT  975   1.968   4.968   4.770 -0.2475  0.2284  0.1786
  103fsi    OBT  976   1.742   4.980   4.860 -0.2290  0.4469 -0.2339
  103fsi    FSI  977   1.790   5.064   4.648 -0.1249 -0.2104 -0.3990
  104fsi    FSI  978   2.211   5.341   4.460 -0.7396 -0.0705 -0.1130
  104fsi    SBT  979   2.148   5.230   4.363 -0.0183  0.2906  0.4264
  104fsi    NBT  980   2.279   5.153   4.318 -0.0279  0.5800  0.6849
  104fsi    OBT  981   2.078   5.152   4.460  0.0158  0.0724  0.2701
  104fsi    OBT  982   2.072   5.300   4.267 -0.3206 -0.1552 -0.9258
  104fsi    SBT  983   2.351   5.181   4.185 -0.1739  0.9713 -0.2154
  104fsi    OBT  984   2.256   5.179   4.076 -0.2706  0.6415 -0.4185
  104fsi    OBT  985   2.480   5.123   4.166  0.1190  0.7091 -0.2053
  104fsi    FSI  986   2.390   5.330   4.205  0.5096  0.1046  0.6195
  105fsi    FSI  987   5.600   4.029   3.342 -0.2666 -0.4657  0.1132
  105fsi    SBT  988   5.541   4.092   3.473  0.3595  0.1950 -0.0821
  105fsi    NBT  989   5.426   4.184   3.408 -0.6256  0.2451 -0.3167
  105fsi    OBT  990   5.488   3.983   3.548 -0.5632  0.1563 -0.5044
  105fsi    OBT  991   5.654   4.167   3.524 -0.1794 -0.3682 -0.4208
  105fsi    SBT  992   5.442   4.320   3.330  0.0033  0.1441 -0.1316
  105fsi    OBT  993   5.336   4.342   3.243  0.2762  0.0745  0.0822
  105fsi    OBT  994   5.578   4.353   3.302  0.1274 -0.1537  0.1211
  105fsi    FSI  995   5.405   4.417   3.440  0.2171  0.4540  0.1377
  106fsi    FSI  996   4.218   3.124   4.465  0.0428 -0.8373 -0.4340
  106fsi    SBT  997   4.065   3.132   4.422 -0.1964  0.6183 -0.0834
  106fsi    NBT  998   4.055   3.275   4.349 -0.2925  0.7293  0.0256
  106fsi    OBT  999   4.047   3.018   4.334 -0.3134  0.3296  0.1413
  106fsi    OBT 1000   4.004   3.128   4.549 -0.2805  0.1443 -0.4658
  106fsi    SBT 1001   4.005   3.305   4.202 -0.3585 -0.0331 -0.2185
  106fsi    OBT 1002   3.882   3.384   4.204  0.0355  0.2497 -0.3504
  106fsi    OBT 1003   4.009   3.196   4.106 -0.5124 -0.2608  0.0304
  106fsi    FSI 1004   4.108   3.413   4.153 -0.0508 -0.1452  0.0679
  107fsi    FSI 1005   4.386   2.409   4.108 -0.6525  0.0953 -0.6769
  107fsi    SBT 1006   4.237   2.374   4.054  0.4727  0.5062 -0.2272
  107fsi    NBT 1007   4.173   2.517   4.036 -0.7734  0.0606 -0.2069
  107fsi    OBT 1008   4.250   2.308   3.926 -0.2937 -0.1239 -0.5187
  107fsi    OBT 1009   4.179   2.301   4.160  0.1205  0.1447 -0.1425
  107fsi    SBT 1010   4.125   2.622   4.143  0.0033  0.0225 -0.5007
  107fsi    OBT 1011   4.080   2.561   4.266  0.0558  0.0893 -0.1781
  107fsi    OBT 1012   4.047   2.727   4.087 -0.0383 -0.1280 -0.1261
  107fsi    FSI 1013   4.253   2.699   4.186  0.2435 -0.3708 -0.1464
  108fsi    FSI 1014   2.303   0.098   3.418 -0.4118  0.3742 -0.6818
  108fsi    SBT 1015   2.449   0.068   3.367 -0.0079 -0.0781 -0.3949
  108fsi    NBT 1016   2.475   0.203   3.297  0.4778  0.4959 -1.1575
  108fsi    OBT 1017   2.528   0.055   3.486 -0.1435  0.2667  0.1155
  108fsi    OBT 1018   2.427  -0.038   3.275  0.0248  0.9656 -0.6348
  108fsi    SBT 1019   2.522   0.340   3.354  0.4535 -0.1303 -0.3352
  108fsi    OBT 1020   2.507   0.351   3.499  0.4906 -0.2279  0.5364
  108fsi    OBT 1021   2.479   0.455   3.274  0.3094  0.3738 -0.1114
  108fsi    FSI 1022   2.675   0.339   3.349 -0.2032 -0.3428  0.0305
  109fsi    FSI 1023   3.671   0.972   2.037  0.2693  0.3576 -0.3443
  109fsi    SBT 1024   3.615   0.950   1.889 -0.0354  0.2679  0.3273
  109fsi    NBT 1025   3.489   0.851   1.915 -0.2484 -0.1564  0.4161
  109fsi    OBT 1026   3.582   1.080   1.837 -0.2151 -0.0102  0.0791
  109fsi    OBT 1027   3.722   0.881   1.824 -0.5659 -0.0547  0.4863
  109fsi    SBT 1028   3.345   0.877   1.861 -0.0829  0.2480 -0.1089
  109fsi    OBT 1029   3.267   0.757   1.884  0.1245  0.0286  0.0238
  109fsi    OBT 1030   3.342   0.945   1.733  0.3982 -0.3728  0.2610
  109fsi    FSI 1031   3.284   0.984   1.957 -0.3468 -0.0549 -0.0205
  110fsi    FSI 1032   2.263   0.155   3.944 -0.7655  0.3666  0.2074
  110fsi    SBT 1033   2.201   0.185   3.806  0.3849  0.1900  0.3435
  110fsi    NBT 1034   2.163   0.046   3.739 -0.4353  0.0231  0.6555
  110fsi    OBT 1035   2.086   0.270   3.837 -0.2094 -0.9466  0.2187
  110fsi    OBT 1036   2.303   0.252   3.731  0.0884 -0.2677  0.1706
  110fsi    SBT 1037   2.249  -0.082   3.744 -0.2350  0.1364  0.2225
  110fsi    OBT 1038   2.201  -0.174   3.844  0.1251 -0.5288 -0.2227
  110fsi    OBT 1039   2.389  -0.038   3.748  0.2762 -0.2451 -0.1750
  110fsi    FSI 1040   2.217  -0.147   3.601 -0.0205  0.2064 -0.1728
  111fsi    FSI 1041   3.073   0.412   3.263 -0.3798 -0.4850  0.7384
  111fsi    SBT 1042   2.987   0.521   3.339 -0.3642 -0.3239 -0.2591
  111fsi    NBT 1043   3.062   0.655   3.313 -0.3073  0.3315  0.4960
  111fsi    OBT 1044   2.859   0.517   3.272  0.7633  0.0204 -0.6095
  111fsi    OBT 1045   3.001   0.488   3.480 -0.1607  0.4168  0.7798
  111fsi    SBT 1046   3.031   0.783   3.224 -0.0914  0.2565 -0.3518
  111fsi    OBT 1047   2.922   0.765   3.135 -0.6775  0.3997 -0.3716
  111fsi    OBT 1048   3.154   0.844   3.179 -0.3251 -0.0041  0.0946
  111fsi    FSI 1049   2.974   0.886   3.328  0.4147  0.3285  0.0914
  112fsi    FSI 1050   1.363   1.291   2.944 -0.4944 -0.2754  0.3523
  112fsi    SBT 1051   1.453   1.399   3.011 -0.0672  0.6795 -0.6826
  112fsi    NBT 1052   1.536   1.458   2.891  0.1822 -0.2491  0.5978
  112fsi    OBT 1053   1.359   1.492   3.060  0.5415 -0.6487 -0.8023
  112fsi    OBT 1054   1.534   1.325   3.105 -0.2727 -0.1307 -0.1424
  112fsi    SBT 1055   1.680   1.436   2.846  0.1847 -0.1183 -0.0572
  112fsi    OBT 1056   1.766   1.378   2.942  0.0202  0.4161 -0.3060
  112fsi    OBT 1057   1.724   1.551   2.771 -0.8940  0.4776 -0.4921
  112fsi    FSI 1058   1.673   1.323   2.740  0.6047  0.8377  0.2494
  113fsi    FSI 1059   3.520   3.354   5.448 -0.3983 -0.0964  0.1398
  113fsi    SBT 1060   3.647   3.349   5.357 -0.1565 -0.3918  0.2177
  113fsi    NBT 1061   3.739   3.464   5.414  0.2251 -0.4804 -0.1932
  113fsi    OBT 1062   3.697   3.214   5.370 -0.6958 -0.5785  0.6280
  113fsi    OBT 1063   3.598   3.387   5.228 -0.1206 -0.4673  0.0212
  113fsi    SBT 1064   3.862   3.452   5.512  0.2116  0.0151 -0.0896
  113fsi    OBT 1065   3.859   3.331   5.586  0.1453 -0.2914 -0.5069
  113fsi    OBT 1066   3.887   3.571   5.589  0.0357 -0.1288 -0.0948
  113fsi    FSI 1067   3.991   3.442   5.416  0.3137 -0.0241 -0.4611
  114fsi    FSI 1068   1.417   1.745   1.796 -0.5310  0.3209  0.1488
  114fsi    SBT 1069   1.438   1.871   1.890  0.6599 -0.0449  0.0675
  114fsi    NBT 1070   1.411   1.987   1.790 -0.0209 -0.5382  0.6255
  114fsi    OBT 1071   1.335   1.858   1.994 -0.1697  0.2854  0.0929
  114fsi    OBT 1072   1.571   1.847   1.933  0.0098 -0.3097 -0.1813
  114fsi    SBT 1073   1.501   2.107   1.750  0.0674  0.5555 -0.5427
  114fsi    OBT 1074   1.517   2.130   1.607 -0.3670 -0.0908 -0.7064
  114fsi    OBT 1075   1.630   2.107   1.826  0.0376 -0.0139  0.1740
  114fsi    FSI 1076   1.424   2.234   1.795  0.2588 -0.4125 -0.0586
  115fsi    FSI 1077   4.943   3.879   0.302 -0.0205  0.2717  0.2642
  115fsi    SBT 1078   4.898   3.755   0.381  0.3118  0.1199  0.2206
  115fsi    NBT 1079   4.782   3.697   0.296  0.0560  0.6726 -0.1524
  115fsi    OBT 1080   5.015   3.673   0.387 -0.3651 -0.4539 -0.2427
  115fsi    OBT 1081   4.851   3.809   0.507 -0.1144  0.0242  0.5869
  115fsi    SBT 1082   4.631   3.684   0.324  0.0425  0.3225 -0.2742
  115fsi    OBT 1083   4.598   3.701   0.463  0.4752 -0.1647 -0.0652
  115fsi    OBT 1084   4.576   3.581   0.242  0.0123 -0.1265 -0.2725
  115fsi    FSI 1085   4.582   3.815   0.254  0.1862  0.1264  0.0394
  116fsi    FSI 1086   1.516   1.022   1.713  0.3356  0.7833 -0.2114
  116fsi    SBT 1087   1.439   1.126   1.792  0.2807 -0.5880  0.4247
  116fsi    NBT 1088   1.296   1.111   1.733  0.1101  0.3175 -0.3421
  116fsi    OBT 1089   1.453   1.079   1.929 -0.0340 -0.4904  0.2691
  116fsi    OBT 1090   1.520   1.241   1.756 -0.4904  0.0284  0.6251
  116fsi    SBT 1091   1.183   1.217   1.707 -0.3566  0.2899  0.0015
  116fsi    OBT 1092   1.106   1.173   1.593 -0.2937 -0.1742  0.0760
  116fsi    OBT 1093   1.230   1.350   1.711  0.3218  0.4260 -1.4722
  116fsi    FSI 1094   1.089   1.203   1.839 -0.4397  0.5276 -0.1070
  117fsi    FSI 1095   1.679   0.441   4.464 -0.4302  0.0278 -0.0214
  117fsi    SBT 1096   1.638   0.327   4.361  0.4823  0.1569 -0.4683
  117fsi    NBT 1097   1.513   0.262   4.426 -0.3225 -0.3895  0.1161
  117fsi    OBT 1098   1.618   0.394   4.234 -0.2040 -0.6492  0.0866
  117fsi    OBT 1099   1.755   0.246   4.353  0.2787 -0.0892 -0.2042
  117fsi    SBT 1100   1.503   0.127   4.493  0.1939 -0.1562  0.0286
  117fsi    OBT 1101   1.629   0.069   4.531  0.3638 -0.1990 -0.2173
  117fsi    OBT 1102   1.418   0.043   4.409  0.9223 -0.6719  0.0166
  117fsi    FSI 1103   1.428   0.160   4.628  0.6666  0.7193  0.6216
  118fsi    FSI 1104   3.108   1.545   3.058 -0.3794  0.0418  0.1214
  118fsi    SBT 1105   3.057   1.484   2.924 -0.4140 -0.5617  0.1347
  118fsi    NBT 1106   3.184   1.493   2.838 -0.6085 -0.2445  0.7367
  118fsi    OBT 1107   3.033   1.348   2.955 -0.0375 -0.3818 -0.2827
  118fsi    OBT 1108   2.946   1.564   2.880 -0.3703 -0.3535  0.2857
  118fsi    SBT 1109   3.263   1.618   2.796 -0.5112 -0.1236 -0.2158
  118fsi    OBT 1110   3.400   1.620   2.821 -0.8537  0.3572 -0.1191
  118fsi    OBT 1111   3.195   1.740   2.824 -0.6457 -0.0321 -0.3323
  118fsi    FSI 1112   3.255   1.607   2.636 -0.3374  0.4607  0.1569
  119fsi    FSI 1113   4.071   4.531   3.734  0.2106  0.0787 -1.0565
  119fsi    SBT 1114   4.101   4.608   3.871  0.2421  0.2249 -0.1319
  119fsi    NBT 1115   3.963   4.656   3.919 -0.6105  0.1039 -0.9249
  119fsi    OBT 1116   4.166   4.510   3.955  0.3961 -0.4705 -0.6308
  119fsi    OBT 1117   4.176   4.725   3.829  0.4923  0.2274  0.5081
  119fsi    SBT 1118   3.892   4.592   4.049  0.3278  0.1278  0.5141
  119fsi    OBT 1119   3.926   4.672   4.167 -0.0464  0.8908  0.8305
  119fsi    OBT 1120   3.887   4.447   4.052  0.1193 -0.5490 -0.4640
  119fsi    FSI 1121   3.741   4.628   4.013  0.1147 -0.1708  0.1723
  120fsi    FSI 1122   2.126   4.306   3.722  0.4476  0.6041 -0.1718
  120fsi    SBT 1123   2.193   4.439   3.782  0.1540  0.6380  0.0102
  120fsi    NBT 1124   2.078   4.500   3.874  0.1188 -0.1100  0.1921
  120fsi    OBT 1125   2.299   4.390   3.858  0.0341 -0.1570 -0.2227
  120fsi    OBT 1126   2.213   4.513   3.659  0.1428 -0.1750 -0.5826
  120fsi    SBT 1127   2.071   4.541   4.028  0.2855  0.0799 -0.1356
  120fsi    OBT 1128   2.190   4.507   4.099 -0.5303  0.0830 -0.0078
  120fsi    OBT 1129   1.949   4.498   4.095  0.3245  0.2854 -0.4378
  120fsi    FSI 1130   2.060   4.700   4.025 -0.2622 -0.0177  0.4619
  121fsi    FSI 1131   3.712   5.419   2.380  0.4048  0.0582 -0.0559
  121fsi    SBT 1132   3.627   5.340   2.489 -0.0709 -0.0287  0.3545
  121fsi    NBT 1133   3.487   5.416   2.494 -0.0524 -0.0916  0.0387
  121fsi    OBT 1134   3.610   5.210   2.427  0.0530 -0.2904  0.4108
  121fsi    OBT 1135   3.710   5.348   2.606 -0.4669 -0.4006  0.2168
  121fsi    SBT 1136   3.344   5.364   2.457 -0.2388  0.3822  0.0768
  121fsi    OBT 1137   3.238   5.453   2.489 -0.2753  0.7592  0.5068
  121fsi    OBT 1138   3.322   5.227   2.498  0.3418 -0.7497  0.1147
  121fsi    FSI 1139   3.344   5.357   2.301  0.0573 -0.1969  0.3173
  122fsi    FSI 1140   3.174   5.229   2.746 -0.1163 -0.7903 -0.1635
  122fsi    SBT 1141   3.274   5.200   2.862 -0.0791  0.2558  0.2508
  122fsi    NBT 1142   3.337   5.059   2.827  0.8790  0.0517  0.4636
  122fsi    OBT 1143   3.365   5.316   2.862  0.1990 -0.0322  0.0299
  122fsi    OBT 1144   3.186   5.192   2.973 -0.3137  0.3723 -0.3526
  122fsi    SBT 1145   3.474   5.016   2.767  0.1516  0.1544  0.0314
  122fsi    OBT 1146   3.556   5.128   2.732  0.8040 -1.0022  0.5365
  122fsi    OBT 1147   3.469   4.913   2.670 -0.2437  0.0756 -0.2316
  122fsi    FSI 1148   3.553   4.953   2.893 -0.2177 -0.2390 -0.2542
  123fsi    FSI 1149   0.435   1.990   0.497 -0.0700  0.3150  0.4165
  123fsi    SBT 1150   0.577   1.957   0.446 -0.2467 -0.2745  0.6617
  123fsi    NBT 1151   0.663   2.101   0.452  1.0252  0.5967 -0.3073
  123fsi    OBT 1152   0.622   1.867   0.544 -0.1231  0.2565 -0.4088
  123fsi    OBT 1153   0.550   1.908   0.311 -0.0547  0.8679  0.5310
  123fsi    SBT 1154   0.708   2.191   0.570 -0.3058 -0.2185  0.4509
  123fsi    OBT 1155   0.848   2.201   0.572  1.0276  0.3137  0.3216
  123fsi    OBT 1156   0.641   2.154   0.691  0.1303  0.3239  0.3308
  123fsi    FSI 1157   0.662   2.344   0.529  0.0701  0.2800 -0.2143
  124fsi    FSI 1158   1.836   0.989   3.423 -0.2499  0.3522 -0.3625
  124fsi    SBT 1159   1.724   0.873   3.422  0.0340  0.1581 -0.1290
  124fsi    NBT 1160   1.750   0.803   3.284 -0.1405 -0.2153  0.0579
  124fsi    OBT 1161   1.759   0.784   3.530  0.5227  0.0526 -0.6656
  124fsi    OBT 1162   1.599   0.946   3.438 -0.5858 -0.8092  0.1122
  124fsi    SBT 1163   1.819   0.662   3.255 -0.0015  0.0215 -0.0822
  124fsi    OBT 1164   1.816   0.626   3.116  0.1694 -0.2052 -0.3406
  124fsi    OBT 1165   1.795   0.556   3.350  0.3977 -0.6289  0.1001
  124fsi    FSI 1166   1.971   0.684   3.272 -0.2069 -0.0144 -0.6611
  125fsi    FSI 1167   3.525   3.013   4.126 -0.2128  0.2744 -0.4754
  125fsi    SBT 1168   3.605   2.884   4.074 -0.0737  0.2119 -0.6064
  125fsi    NBT 1169   3.625   2.914   3.920 -0.0679 -0.2971 -0.0929
  125fsi    OBT 1170   3.725   2.886   4.151  0.1654 -0.1439  0.0462
  125fsi    OBT 1171   3.516   2.776   4.101  0.0080 -0.2898 -0.3591
  125fsi    SBT 1172   3.741   2.966   3.830 -0.2104  0.3665  0.0789
  125fsi    OBT 1173   3.746   2.884   3.713 -0.0003 -0.1491  0.2119
  125fsi    OBT 1174   3.868   2.973   3.899  0.0762  0.0874 -0.5070
  125fsi    FSI 1175   3.699   3.112   3.784  0.3764  0.4380  0.1750
  126fsi    FSI 1176   1.075   1.760   0.802 -0.3836  0.7360 -0.1897
  126fsi    SBT 1177   0.972   1.838   0.707  0.0049  0.1380  0.0643
  126fsi    NBT 1178   0.855   1.878   0.802 -0.1950 -0.4061  0.5722
  126fsi    OBT 1179   1.044   1.953   0.666 -0.3449 -0.0360  0.0530
  126fsi    OBT 1180   0.925   1.745   0.610  0.2591 -0.2117  0.1088
  126fsi    SBT 1181   0.759   1.789   0.892 -0.0026  0.4241  0.7898
  126fsi    OBT 1182   0.822   1.724   1.009  0.2403 -0.1240  0.2884
  126fsi    OBT 1183   0.665   1.712   0.824  0.3515 -0.1210  1.2202
  126fsi    FSI 1184   0.664   1.909   0.956  0.0860 -0.5617  0.2590
  127fsi    FSI 1185   1.815   1.884   3.239  1.1488 -0.0526  0.6901
  127fsi    SBT 1186   1.787   1.773   3.128 -0.3417  0.2110  0.3000
  127fsi    NBT 1187   1.625   1.792   3.109 -0.5285  0.2156  0.7179
  127fsi    OBT 1188   1.874   1.820   3.027  0.6084 -0.8640  0.0800
  127fsi    OBT 1189   1.811   1.642   3.188 -0.0996  0.2206 -0.0643
  127fsi    SBT 1190   1.550   1.849   2.984  0.2788  0.2421  0.0996
  127fsi    OBT 1191   1.428   1.783   2.940  0.6816  0.4488  0.9268
  127fsi    OBT 1192   1.633   1.888   2.869  0.4766  0.0154  0.0966
  127fsi    FSI 1193   1.506   1.979   3.045  0.2024 -0.1396 -0.2123
  128fsi    FSI 1194   1.848   4.952   3.986  1.4214  0.2769 -0.1026
  128fsi    SBT 1195   1.855   4.979   4.133  0.3090  0.0753  0.4220
  128fsi    NBT 1196   1.746   5.093   4.153  0.8172 -0.1664  0.0399
  128fsi    OBT 1197   1.824   4.845   4.177  0.0028  0.1244  0.5016
  128fsi    OBT 1198   1.989   5.025   4.148  0.0521 -0.2308  0.6414
  128fsi    SBT 1199   1.635   5.091   4.261  0.1389  0.2002  0.5037
  128fsi    OBT 1200   1.672   5.184   4.365 -0.5605 -0.4755 -0.0319
  128fsi    OBT 1201   1.588   4.959   4.299 -0.5410  0.2876 -0.7469
  128fsi    FSI 1202   1.504   5.143   4.197  0.1909 -0.6985  0.1923
  129fsi    FSI 1203   4.821   3.263   0.915 -0.1506 -0.6869  0.2499
  129fsi    SBT 1204   4.780   3.300   0.764  0.1184  0.1017  0.1872
  129fsi    NBT 1205   4.623   3.304   0.762  0.4388  0.1016 -0.1754
  129fsi    OBT 1206   4.842   3.429   0.736 -0.5357  0.1637 -0.1929
  129fsi    OBT 1207   4.817   3.186   0.683 -0.4621 -0.3613 -0.8327
  129fsi    SBT 1208   4.524   3.424   0.761  0.1287  0.3516 -0.3890
  129fsi    OBT 1209   4.408   3.393   0.685  0.2271 -0.2272 -0.0751
  129fsi    OBT 1210   4.590   3.550   0.746  0.2069 -0.2835  0.4189
  129fsi    FSI 1211   4.479   3.431   0.908  0.0160  0.9204  0.3905
  130fsi    FSI 1212   3.554   2.336   3.380 -0.6583  0.1604 -0.0438
  130fsi    SBT 1213   3.649   2.244   3.466 -0.0884  0.3678 -0.2901
  130fsi    NBT 1214   3.738   2.173   3.359 -0.3178  0.2542 -0.2099
  130fsi    OBT 1215   3.721   2.337   3.548 -0.1671  0.2231 -0.3613
  130fsi    OBT 1216   3.559   2.151   3.530  0.2230  0.1688 -0.0874
  130fsi    SBT 1217   3.887   2.194   3.314 -0.2893  0.3952 -0.2302
  130fsi    OBT 1218   3.950   2.320   3.344 -0.6643  0.3497  0.5685
  130fsi    OBT 1219   3.909   2.140   3.184  0.3282  0.1613  0.2644
  130fsi    FSI 1220   3.968   2.098   3.412 -0.5219  0.0631 -0.3242
  131fsi    FSI 1221   5.522   2.096   1.987  0.6575  0.4872  0.1831
  131fsi    SBT 1222   5.515   1.950   1.919  0.0312  0.1597  0.5818
  131fsi    NBT 1223   5.587   1.853   2.026  0.0255 -0.2228  0.3591
  131fsi    OBT 1224   5.373   1.918   1.908 -0.2517  1.6755 -0.0849
  131fsi    OBT 1225   5.587   1.977   1.794 -0.1590 -0.0346 -0.3782
  131fsi    SBT 1226   5.743   1.824   2.029  0.0294  0.0549  0.6481
  131fsi    OBT 1227   5.833   1.941   2.015 -0.6572  1.2692  1.5835
  131fsi    OBT 1228   5.777   1.721   1.938  0.3424  0.3995  0.0027
  131fsi    FSI 1229   5.782   1.765   2.166 -0.3850  0.0662 -0.2073
  132fsi    FSI 1230   1.447   5.571   3.922 -0.7356  0.2240  0.1033
  132fsi    SBT 1231   1.302   5.585   3.964 -0.2837 -0.1669 -0.0220
  132fsi    NBT 1232   1.235   5.448   3.920  0.1312 -0.9773  0.1077
  132fsi    OBT 1233   1.319   5.605   4.107 -0.1981 -0.0930 -0.0346
  132fsi    OBT 1234   1.253   5.696   3.890 -0.1103  0.1136  0.0188
  132fsi    SBT 1235   1.229   5.317   4.014 -0.1040  0.0385 -0.6369
  132fsi    OBT 1236   1.094   5.264   4.016  0.1241 -0.9041  0.0707
  132fsi    OBT 1237   1.306   5.324   4.139  0.5403  0.5693  0.1120
  132fsi    FSI 1238   1.305   5.203   3.937  0.0887 -0.3027 -0.4215
  133fsi    FSI 1239   0.717   2.135   1.655 -0.0834 -1.3557 -0.0161
  133fsi    SBT 1240   0.634   2.044   1.560  0.2032  0.6130 -0.2163
  133fsi    NBT 1241   0.487   2.093   1.600 -0.4777  0.6996 -0.1349
  133fsi    OBT 1242   0.678   2.087   1.430 -0.5507  0.2695 -0.2214
  133fsi    OBT 1243   0.669   1.912   1.602  0.8202  0.1194 -0.5194
  133fsi    SBT 1244   0.351   2.026   1.576 -0.0263  0.2371  0.6215
  133fsi    OBT 1245   0.243   2.127   1.565  0.0222  0.4917 -0.7818
  133fsi    OBT 1246   0.331   1.919   1.666  0.5812 -0.5177  0.0517
  133fsi    FSI 1247   0.357   1.951   1.436 -0.3113 -0.8000 -0.0741
  134fsi    FSI 1248   3.393   0.900   3.704  0.8131  0.0991 -0.1759
  134fsi    SBT 1249   3.305   0.810   3.599  0.2269 -0.6732  0.3507
  134fsi    NBT 1250   3.382   0.676   3.609  0.3903 -0.2102 -0.2869
  134fsi    OBT 1251   3.171   0.810   3.647  0.2599  0.5669  0.2660
  134fsi    OBT 1252   3.327   0.888   3.481 -0.6071 -0.5007  0.7085
  134fsi    SBT 1253   3.377   0.573   3.725 -0.2560  0.1714  0.6658
  134fsi    OBT 1254   3.437   0.452   3.679 -0.4668 -0.1327  0.0449
  134fsi    OBT 1255   3.247   0.567   3.783 -0.0846  0.7191  0.0846
  134fsi    FSI 1256   3.469   0.629   3.831 -0.3324 -0.2752  0.6772
  135fsi    FSI 1257   1.135   2.355   1.079  0.9545 -0.1896  0.4499
  135fsi    SBT 1258   1.128   2.215   1.018  0.8352 -0.0539  0.2697
  135fsi    NBT 1259   1.279   2.197   0.978  0.2007  0.9668  0.1149
  135fsi    OBT 1260   1.087   2.134   1.133  0.1464 -0.4885  0.1926
  135fsi    OBT 1261   1.030   2.230   0.914 -0.1134  0.0580 -0.8362
  135fsi    SBT 1262   1.348   2.233   0.842  0.0303  0.0981 -0.3709
  135fsi    OBT 1263   1.247   2.224   0.735 -0.4534 -0.2994 -0.1044
  135fsi    OBT 1264   1.474   2.170   0.824  0.3752 -0.4516  0.0323
  135fsi    FSI 1265   1.388   2.383   0.865  0.4037  0.7500 -0.1684
  136fsi    FSI 1266   1.817   1.663   2.333  0.6820  0.0884  1.1151
  136fsi    SBT 1267   1.777   1.668   2.183 -0.1446 -0.1278 -0.5961
  136fsi    NBT 1268   1.861   1.554   2.134  2.1187  0.1482 -0.1195
  136fsi    OBT 1269   1.641   1.635   2.202  0.4063  0.2115 -0.0451
  136fsi    OBT 1270   1.812   1.799   2.135 -0.3990  0.2133 -0.2099
  136fsi    SBT 1271   2.012   1.568   2.085 -0.2092 -0.2407 -0.5572
  136fsi    OBT 1272   2.098   1.624   2.180  0.1227 -0.5876 -0.1599
  136fsi    OBT 1273   2.022   1.625   1.953 -0.3874 -0.5425 -0.8132
  136fsi    FSI 1274   2.070   1.424   2.071  0.2093 -0.3469  0.1940
  137fsi    FSI 1275   2.524   4.510   1.296  0.4190  0.0466 -0.2185
  137fsi    SBT 1276   2.456   4.503   1.438  0.1692 -0.1153 -0.0738
  137fsi    NBT 1277   2.555   4.406   1.515  0.0676 -0.2128  0.0082
  137fsi    OBT 1278   2.459   4.639   1.482  0.2261  0.0938  0.2319
  137fsi    OBT 1279   2.328   4.440   1.413  0.2655 -0.2619 -0.3482
  137fsi    SBT 1280   2.668   4.437   1.620  0.0900  0.1271  0.1207
  137fsi    OBT 1281   2.719   4.570   1.620 -0.1499  0.1129 -0.0196
  137fsi    OBT 1282   2.763   4.329   1.634 -0.0240 -0.1423 -0.0315
  137fsi    FSI 1283   2.588   4.426   1.754  0.1001  0.0089  0.2616
  138fsi    FSI 1284   3.073   2.467   3.048 -0.5865  0.4939  0.0516
  138fsi    SBT 1285   2.995   2.441   2.915 -0.1661  0.1454 -0.1691
  138fsi    NBT 1286   3.012   2.287   2.891 -0.2271  0.2809  0.2220
  138fsi    OBT 1287   2.860   2.480   2.943  0.6057 -0.1826  0.5856
  138fsi    OBT 1288   3.071   2.515   2.819 -0.6400 -0.5205 -0.2703
  138fsi    SBT 1289   2.902   2.186   2.844 -0.2032  0.1232  0.1537
  138fsi    OBT 1290   2.954   2.055   2.818  0.5876 -0.2775 -0.0366
  138fsi    OBT 1291   2.813   2.238   2.744 -0.8574  0.3341  0.9423
  138fsi    FSI 1292   2.820   2.160   2.978 -0.2014 -0.3981  0.8843
  139fsi    FSI 1293   3.386   0.373   1.099  0.3431  0.8698 -0.3727
  139fsi    SBT 1294   3.488   0.484   1.065  0.1045  0.3320  0.4662
  139fsi    NBT 1295   3.622   0.425   1.128  0.6479 -0.3070  0.0387
  139fsi    OBT 1296   3.495   0.473   0.923 -0.2230 -0.4147  0.4188
  139fsi    OBT 1297   3.435   0.606   1.120  0.3909  0.4301  1.0800
  139fsi    SBT 1298   3.675   0.392   1.280  0.2035 -0.4168 -0.5249
  139fsi    OBT 1299   3.573   0.411   1.380  0.0500 -0.4068  0.1659
  139fsi    OBT 1300   3.813   0.433   1.303  0.0284 -0.2705 -0.2409
  139fsi    FSI 1301   3.682   0.234   1.263 -0.0071 -0.5023 -0.4406
  140fsi    FSI 1302   1.260   1.330   2.067  0.9911 -0.2693  0.1106
  140fsi    SBT 1303   1.377   1.423   2.108  0.0828 -0.4571 -0.1818
  140fsi    NBT 1304   1.492   1.330   2.169 -0.0907  0.5577 -0.2799
  140fsi    OBT 1305   1.434   1.475   1.988  0.3701  0.2254 -0.7719
  140fsi    OBT 1306   1.320   1.519   2.199 -0.3656  0.0195  0.0057
  140fsi    SBT 1307   1.510   1.291   2.321 -0.4392  0.0442  0.0281
  140fsi    OBT 1308   1.389   1.290   2.395  0.6665  0.7482  0.1733
  140fsi    OBT 1309   1.626   1.348   2.377  0.1693 -0.0417  0.2286
  140fsi    FSI 1310   1.544   1.139   2.325  0.9745 -0.4520 -0.9575
  141fsi    FSI 1311   1.997   2.459   2.330  0.6973  0.6404 -0.7594
  141fsi    SBT 1312   1.891   2.358   2.383  0.1500  0.4316  0.0987
  141fsi    NBT 1313   1.968   2.233   2.360  0.6735  0.5990 -0.2442
  141fsi    OBT 1314   1.885   2.397   2.520  0.5569 -0.3856  0.8261
  141fsi    OBT 1315   1.764   2.382   2.304  0.1967  1.3778 -0.1061
  141fsi    SBT 1316   1.981   2.142   2.240  0.6877 -0.6147 -0.1364
  141fsi    OBT 1317   1.871   2.152   2.140  0.2253  0.7843 -0.2196
  141fsi    OBT 1318   2.032   2.013   2.283  0.4617 -0.0201 -0.0264
  141fsi    FSI 1319   2.092   2.209   2.163 -0.3855 -0.0394  0.2472
  142fsi    FSI 1320   4.204   4.097   3.729 -0.2558  0.1456  0.2166
  142fsi    SBT 1321   4.206   4.104   3.890 -0.5622 -0.3682  0.1348
  142fsi    NBT 1322   4.290   4.232   3.933 -0.2268 -0.2409  0.2047
  142fsi    OBT 1323   4.070   4.126   3.921 -0.1726  0.2200 -0.4172
  142fsi    OBT 1324   4.269   3.981   3.933 -0.3315 -0.1844  0.3425
  142fsi    SBT 1325   4.431   4.238   4.000 -0.2511  0.3273  0.1271
  142fsi    OBT 1326   4.439   4.142   4.106  0.2420  0.6172 -0.0896
  142fsi    OBT 1327   4.481   4.363   4.030  0.1510  0.3663 -0.3789
  142fsi    FSI 1328   4.525   4.176   3.887 -0.2849 -0.5921 -0.1499
  143fsi    FSI 1329   3.755   5.163   3.929 -0.6055 -0.4767 -0.0884
  143fsi    SBT 1330   3.830   5.078   3.818  0.0055 -0.1106  0.5627
  143fsi    NBT 1331   3.768   4.932   3.816  0.0144 -0.9165 -0.3340
  143fsi    OBT 1332   3.807   5.144   3.694  0.2828  0.1723  0.9693
  143fsi    OBT 1333   3.963   5.074   3.867 -0.7870  0.1783  0.2434
  143fsi    SBT 1334   3.644   4.892   3.726  0.2390 -0.2033 -0.2490
  143fsi    OBT 1335   3.552   5.001   3.704  1.0620  0.5940 -0.2645
  143fsi    OBT 1336   3.583   4.767   3.761  0.0227  0.0682 -0.3593
  143fsi    FSI 1337   3.699   4.859   3.579  0.1417 -0.5206  0.7916
  144fsi    FSI 1338   3.441   4.135   4.378  0.7642  0.6502 -0.3773
  144fsi    SBT 1339   3.462   4.164   4.531  0.1047  0.0497 -0.1421
  144fsi    NBT 1340   3.575   4.059   4.575 -0.4024  0.5116 -0.0706
  144fsi    OBT 1341   3.497   4.304   4.529  0.1465 -0.8282 -0.5641
  144fsi    OBT 1342   3.337   4.131   4.592 -0.3041  0.6575 -0.2258
  144fsi    SBT 1343   3.702   4.079   4.664 -0.0758 -0.0353 -0.7435
  144fsi    OBT 1344   3.744   4.215   4.683  0.5476 -0.2948  0.2091
  144fsi    OBT 1345   3.809   3.987   4.631 -0.4332  0.1864 -0.5513
  144fsi    FSI 1346   3.651   4.037   4.809 -0.3111  0.0073 -0.0334
  145fsi    FSI 1347   1.802   1.070   2.297  0.0747 -0.4574  0.3672
  145fsi    SBT 1348   1.926   1.152   2.252 -0.1585  0.0125 -0.0907
  145fsi    NBT 1349   1.921   1.271   2.358  0.1891  0.6183  0.0245
  145fsi    OBT 1350   2.043   1.068   2.274  0.0689  0.1611 -0.0392
  145fsi    OBT 1351   1.882   1.190   2.120 -0.1927 -0.2014 -0.2845
  145fsi    SBT 1352   1.944   1.277   2.516  0.1754 -0.1817  0.3939
  145fsi    OBT 1353   1.875   1.173   2.588  1.1369 -0.9852 -0.3846
  145fsi    OBT 1354   1.939   1.411   2.565 -0.5007 -0.0907  0.0130
  145fsi    FSI 1355   2.097   1.234   2.534  1.1228  0.1613 -0.1073
  146fsi    FSI 1356   3.550   1.413   2.342 -0.6608  0.3097  0.1513
  146fsi    SBT 1357   3.604   1.398   2.487 -0.3685  0.1265  0.3871
  146fsi    NBT 1358   3.617   1.239   2.517  0.0417 -0.0326  0.7520
  146fsi    OBT 1359   3.725   1.471   2.491 -0.3041 -0.4724  0.4380
  146fsi    OBT 1360   3.498   1.455   2.564  0.4770 -0.0735  0.5308
  146fsi    SBT 1361   3.743   1.159   2.471 -0.5285  0.1401  0.2999
  146fsi    OBT 1362   3.848   1.223   2.396 -0.6214  0.5679 -0.2381
  146fsi    OBT 1363   3.703   1.028   2.426  0.1061 -0.0114  0.1816
  146fsi    FSI 1364   3.798   1.126   2.617  0.0447 -0.5033 -0.2172
  147fsi    FSI 1365   2.324   3.299   1.814  0.3438 -0.5866  0.4023
  147fsi    SBT 1366   2.202   3.361   1.736  0.1666 -0.3345 -0.2830
  147fsi    NBT 1367   2.273   3.472   1.654  0.4877 -0.0831 -0.2671
  147fsi    OBT 1368   2.167   3.242   1.662  0.6405 -0.7984  0.1566
  147fsi    OBT 1369   2.113   3.410   1.841  0.5612 -0.0033 -0.3892
  147fsi    SBT 1370   2.237   3.527   1.510 -0.0652  0.0646  0.3332
  147fsi    OBT 1371   2.160   3.431   1.438  0.3334  0.0891  0.1425
  147fsi    OBT 1372   2.352   3.580   1.440 -0.2340  0.2455  0.9731
  147fsi    FSI 1373   2.152   3.657   1.536 -0.4851  0.1678 -0.4100
  148fsi    FSI 1374   2.089   3.246   1.045 -0.3328  0.3567  0.2088
  148fsi    SBT 1375   2.117   3.119   1.134 -0.0421  0.0256  0.0295
  148fsi    NBT 1376   1.967   3.080   1.158 -0.3498 -0.0282 -0.0155
  148fsi    OBT 1377   2.181   3.022   1.048  0.1490  0.2039  0.0397
  148fsi    OBT 1378   2.190   3.165   1.248  0.0150 -0.2223 -0.0209
  148fsi    SBT 1379   1.863   3.141   1.256 -0.1693  0.5249  0.1573
  148fsi    OBT 1380   1.915   3.185   1.382 -0.4446  0.0622  1.1008
  148fsi    OBT 1381   1.754   3.049   1.271  0.2366 -0.6051 -0.3762
  148fsi    FSI 1382   1.809   3.272   1.188 -0.0587  0.0383 -0.1193
  149fsi    FSI 1383   2.139   1.746   2.701  0.2453 -0.0907 -0.0876
  149fsi    SBT 1384   2.058   1.836   2.606 -0.0168 -0.5113  0.1051
  149fsi    NBT 1385   2.122   1.985   2.631 -0.2226 -0.7324 -0.2613
  149fsi    OBT 1386   2.081   1.777   2.477  0.6736  0.2979 -0.8188
  149fsi    OBT 1387   1.924   1.825   2.657 -0.6586 -0.2300 -0.6680
  149fsi    SBT 1388   2.233   2.074   2.556 -1.3019 -0.1785  0.0384
  149fsi    OBT 1389   2.192   2.208   2.539 -0.0245 -0.3927 -0.4568
  149fsi    OBT 1390   2.294   2.000   2.452  0.3453  1.2086 -0.0753
  149fsi    FSI 1391   2.341   2.088   2.669  0.1738  0.4307 -0.1652
  150fsi    FSI 1392   2.863   0.644   2.753  0.0952 -0.2962 -0.6100
  150fsi    SBT 1393   2.725   0.569   2.780 -0.1096  0.0136 -0.2849
  150fsi    NBT 1394   2.628   0.683   2.825  0.6253  0.1818 -0.2121
  150fsi    OBT 1395   2.688   0.507   2.653 -0.0926  0.2196 -0.5050
  150fsi    OBT 1396   2.756   0.486   2.893 -0.0053  0.0865 -0.0004
  150fsi    SBT 1397   2.487   0.672   2.892  0.3211  0.3208  0.0258
  150fsi    OBT 1398   2.433   0.802   2.920 -0.2176  0.3934 -0.6252
  150fsi    OBT 1399   2.481   0.572   2.995  0.9332  0.8075  0.2616
  150fsi    FSI 1400   2.396   0.621   2.773  0.6248  0.1501  0.1657
   5.64600   5.64600   5.64600
