simbox
 2300
    1Li      Li    1   1.859   1.708   2.927 -1.0547 -0.1986  0.4392
    2Li      Li    2   0.962   2.808   2.710  0.6065 -0.6657 -0.6243
    3Li      Li    3   1.768   0.475   0.767  0.0857 -0.2113  0.1299
    4Li      Li    4   1.728   0.422   0.199  0.8041 -0.0940  0.9025
    5Li      Li    5   1.864   0.037   2.869  0.6597 -1.0377  0.1386
    6Li      Li    6   1.068   0.579   1.815 -0.0962  0.3141 -0.4382
    7Li      Li    7   2.086   2.555   2.813 -0.7179 -0.2761  1.5327
    8Li      Li    8   1.158   0.121   0.099  0.2013  0.0351  0.6272
    9Li      Li    9   1.452   1.508   2.444 -0.5375 -0.2010 -0.1114
   10Li      Li   10   0.033   2.917   1.656  0.0473  0.4642  0.4065
   11Li      Li   11   2.830   1.996   1.986  0.2216  0.3160  0.3547
   12Li      Li   12   2.938   0.707   2.748  0.2289 -0.4302  0.1058
   13Li      Li   13   0.596   2.677   1.249 -0.4283  1.2270 -0.0075
   14Li      Li   14   1.652   0.104   1.382  0.1376 -1.2012  0.0176
   15Li      Li   15   0.482   2.755   2.441 -1.2668  0.4619  0.0152
   16Li      Li   16   1.355   1.847   1.825  0.5717 -0.4890  0.2905
   17Li      Li   17   0.256   0.931   2.415  0.1944 -0.3064 -0.2322
   18Li      Li   18   2.273   2.750   2.357 -0.4903  0.8388  0.8752
   19Li      Li   19   0.715   2.311   0.916  0.4407  0.1366 -0.6731
   20Li      Li   20   2.239   0.439   0.511 -0.7643 -0.6027 -1.1985
   21Li      Li   21   0.927   1.540   1.004 -0.3108  0.0559  0.5401
   22Li      Li   22   2.842   2.835   1.151 -0.9259 -0.6994 -0.1657
   23Li      Li   23   1.282   0.527   1.295 -0.2747 -0.5218 -0.4539
   24Li      Li   24   1.845   2.112   0.217  0.6023  0.6255 -0.4016
   25Li      Li   25   1.293   1.913   2.249  1.7359  0.9733 -0.4618
   26Li      Li   26   1.986   0.687   0.140  0.0241  0.2254  1.5481
   27Li      Li   27   1.664   2.600   1.418 -0.7597  0.2663  0.4139
   28Li      Li   28   1.659   1.414   0.121 -0.2064 -0.6290 -0.6974
   29Li      Li   29   0.896   0.930   2.257 -0.9017  0.1222  0.7530
   30Li      Li   30   2.663   1.596   0.990  0.2862 -0.7363  0.0881
   31Li      Li   31   2.162   1.132   2.018 -1.0308 -0.8985  0.4429
   32Li      Li   32   1.293   1.484   0.538  0.2109  0.0467  0.4100
   33Li      Li   33   0.846   1.433   1.906  0.4368  1.4443 -0.3244
   34Li      Li   34   1.294   0.020   2.469  0.9377 -0.0785  0.1479
   35Li      Li   35   2.217   1.629   1.358 -0.3599 -0.7003  0.6353
   36Li      Li   36   2.629   0.837   2.151 -0.0808 -1.5334 -0.4044
   37Li      Li   37   1.256   2.337   1.105  0.8930 -0.2713 -0.3983
   38Li      Li   38   0.290   2.015   0.931  0.3559  0.3960 -0.1474
   39Li      Li   39   1.963   1.112   0.289 -0.4055 -0.4560  0.8175
   40Li      Li   40   0.248   0.997   0.029 -0.3068 -0.0457 -0.6180
   41Li      Li   41   1.328   2.429   2.361  1.4739 -0.6725  0.1131
   42Li      Li   42   2.011   1.280   2.502 -0.6162 -0.0605 -0.1355
   43Li      Li   43   2.980   0.946   1.092 -0.2141 -0.1463 -0.5190
   44Li      Li   44   1.749   2.429   0.751 -0.0385 -0.2998  1.6051
   45Li      Li   45   1.898   1.453   1.926  0.2738 -0.7017  0.8134
   46Li      Li   46   2.900   2.535   2.915  0.7454 -1.0686 -0.6617
   47Li      Li   47   0.701   0.765   1.152  0.5241  1.4077  0.9135
   48Li      Li   48   0.996   1.099   1.563 -1.0099 -0.7953 -0.4748
   49Li      Li   49   1.779   2.725   2.226 -0.9685 -0.3269  0.7026
   50Li      Li   50   1.791   2.045   1.337 -0.2211  0.6312  0.1704
   51c3c      N   51   2.691   0.123   2.897  0.1881  0.8449 -0.3097
   51c3c     C1   52   2.758   0.229   2.966 -0.0060 -0.1345 -0.2997
   51c3c     C2   53   2.758   0.124   2.766 -0.6359 -0.2447 -0.6086
   51c3c     C3   54   2.905   0.227   2.924 -0.4086 -0.9708  0.0235
   51c3c     C4   55   2.906   0.143   2.791  0.3504 -0.0284  0.8470
   51c3c     C5   56   2.723  -0.004   2.972 -0.3993 -0.0714 -0.2193
   51c3c     C6   57   2.543   0.128   2.888  0.2635 -0.0410  0.0008
   51c3c     H1   58   2.747   0.215   3.073  0.3684  0.1014 -0.2279
   51c3c     H2   59   2.714   0.325   2.940 -0.7617 -0.3208  0.2729
   51c3c     H3   60   2.757   0.029   2.713  0.0784 -0.8773  0.4813
   51c3c     H4   61   2.710   0.204   2.710 -1.6276  0.7558  1.6114
   51c3c     H5   62   2.968   0.178   2.998  0.1433  0.3011  0.4157
   51c3c     H6   63   2.945   0.326   2.902 -0.1943 -0.9908  0.3255
   51c3c     H7   64   2.949   0.047   2.821  1.6028  0.5744  1.0596
   51c3c     H8   65   2.950   0.194   2.705 -0.2901 -0.2040  0.4139
   51c3c     H9   66   2.830  -0.004   2.993 -1.1908  0.1349  4.4586
   51c3c    H10   67   2.677   0.000   3.071  0.2072 -1.3104  0.1284
   51c3c    H11   68   2.684  -0.089   2.917  1.9603 -1.0840 -0.4189
   51c3c    H12   69   2.509   0.052   2.818 -0.7601  0.4447 -0.0484
   51c3c    H13   70   2.492   0.108   2.982 -0.3773  1.6899  0.0483
   51c3c     C7   71   2.482   0.253   2.838  0.5074 -0.4608 -0.6076
   51c3c    H14   72   2.542   0.292   2.755 -0.9509 -0.6252 -1.7556
   51c3c    H15   73   2.489   0.323   2.921 -2.0388  0.1105 -0.8508
   51c3c     C8   74   2.336   0.228   2.785 -0.1365 -0.2231 -0.6068
   51c3c    H16   75   2.344   0.168   2.694  2.1661 -0.9652  0.0591
   51c3c    H17   76   2.289   0.326   2.775  0.0892 -0.2741 -2.3811
   51c3c    H18   77   2.269   0.175   2.853 -0.0304 -1.4400 -1.4287
   52c3c      N   78   1.918   2.872   0.745 -0.3406 -0.7335 -0.1549
   52c3c     C1   79   1.890   2.776   0.639 -0.2713  0.1179  0.5696
   52c3c     C2   80   1.935   2.998   0.663  0.3770 -0.0305 -0.0228
   52c3c     C3   81   1.796   2.846   0.538  0.4246  0.0681 -0.1068
   52c3c     C4   82   1.822   2.993   0.564  0.7310  0.2250  0.0981
   52c3c     C5   83   1.802   2.875   0.833 -0.4303  0.0188 -0.5954
   52c3c     C6   84   2.026   2.817   0.833  0.0762 -0.1997  1.1437
   52c3c     H1   85   1.840   2.683   0.667  1.4140 -1.4384 -1.4944
   52c3c     H2   86   1.976   2.731   0.591 -0.2213  0.4748  0.3169
   52c3c     H3   87   1.936   3.092   0.718 -1.1531 -0.7332  1.2335
   52c3c     H4   88   2.023   2.999   0.598  1.0241  0.9698  0.8586
   52c3c     H5   89   1.690   2.831   0.559  0.6808 -1.5185  0.0852
   52c3c     H6   90   1.825   2.811   0.439 -1.8350  1.4292 -1.3061
   52c3c     H7   91   1.737   3.050   0.603  1.3758  1.2971 -0.0297
   52c3c     H8   92   1.844   3.041   0.469  0.4616 -1.1008 -0.6416
   52c3c     H9   93   1.715   2.924   0.790 -0.4328  1.3675  0.9037
   52c3c    H10   94   1.761   2.775   0.846  0.1618 -0.1215  0.2462
   52c3c    H11   95   1.824   2.926   0.927  1.3920 -2.0818  0.1589
   52c3c    H12   96   2.029   2.890   0.915  0.4359  2.6983 -1.3668
   52c3c    H13   97   1.995   2.721   0.874 -2.1582  0.6678  1.5899
   52c3c     C7   98   2.171   2.810   0.775  0.2001  0.5957 -0.2124
   52c3c    H14   99   2.193   2.908   0.733  1.6054  1.3884  2.2497
   52c3c    H15  100   2.186   2.739   0.694  0.5520  1.1332 -0.6214
   52c3c     C8  101   2.272   2.775   0.886 -0.0417 -0.5095  0.2727
   52c3c    H16  102   2.253   2.856   0.956  0.0344  1.8810 -2.4118
   52c3c    H17  103   2.375   2.769   0.852  0.3507 -0.2028  1.3897
   52c3c    H18  104   2.249   2.672   0.916 -1.8248 -0.5131 -1.0144
   53c3c      N  105   2.414   0.897   0.873  0.0384  0.4076  0.1781
   53c3c     C1  106   2.557   0.932   0.850 -0.2208 -0.4324  0.4633
   53c3c     C2  107   2.408   0.783   0.778  0.1230  0.1472 -0.4015
   53c3c     C3  108   2.635   0.797   0.859  0.3385  0.6369 -0.7090
   53c3c     C4  109   2.523   0.694   0.813 -0.5098 -0.1060 -0.4954
   53c3c     C5  110   2.386   0.863   1.015 -0.2483 -0.2484 -0.2728
   53c3c     C6  111   2.315   1.006   0.841 -0.1536  0.1048 -0.0136
   53c3c     H1  112   2.591   1.009   0.920  0.0683 -1.1821  1.1582
   53c3c     H2  113   2.561   0.982   0.753  1.2154  1.1268  1.2869
   53c3c     H3  114   2.320   0.721   0.797  1.2586 -1.3420  0.0971
   53c3c     H4  115   2.403   0.802   0.671 -1.9473 -0.1200 -0.3807
   53c3c     H5  116   2.676   0.765   0.955  1.6227 -1.6494 -1.9738
   53c3c     H6  117   2.724   0.792   0.797  0.2708 -0.7420 -0.7187
   53c3c     H7  118   2.493   0.639   0.902 -1.7161 -0.1031 -0.8958
   53c3c     H8  119   2.543   0.613   0.742 -1.6142 -1.6579  0.9480
   53c3c     H9  120   2.283   0.833   1.035  0.4720 -2.0982  0.8066
   53c3c    H10  121   2.459   0.787   1.044 -1.0069 -0.9395 -0.1328
   53c3c    H11  122   2.405   0.953   1.073  1.4967  0.5880 -2.1009
   53c3c    H12  123   2.210   0.981   0.857  0.4787 -1.2209  2.2300
   53c3c    H13  124   2.338   1.098   0.894  1.2236  0.9436 -1.9960
   53c3c     C7  125   2.308   1.048   0.692  0.4718 -0.2995 -0.4974
   53c3c    H14  126   2.261   0.967   0.638 -0.6526  2.0202 -3.1094
   53c3c    H15  127   2.405   1.065   0.645  0.2407 -0.0082 -0.8750
   53c3c     C8  128   2.217   1.170   0.678  0.2614  0.0806 -0.5035
   53c3c    H16  129   2.246   1.246   0.750 -2.3232  0.4072  0.2415
   53c3c    H17  130   2.112   1.143   0.689  0.2569  0.5968  0.7544
   53c3c    H18  131   2.212   1.212   0.577 -0.4944  1.7113  0.2054
   54c3c      N  132   0.397   1.489   0.380  0.1075  0.0254  0.5178
   54c3c     C1  133   0.425   1.529   0.242  0.5475 -0.1098  0.0332
   54c3c     C2  134   0.442   1.349   0.388  0.1249 -0.1160  0.3229
   54c3c     C3  135   0.562   1.465   0.216  0.2560 -0.8739  0.1087
   54c3c     C4  136   0.563   1.332   0.283  0.9252  0.0586 -0.5831
   54c3c     C5  137   0.481   1.566   0.474  0.2653 -0.4942 -0.2579
   54c3c     C6  138   0.257   1.499   0.428 -0.0973 -0.4593  0.3424
   54c3c     H1  139   0.427   1.636   0.225 -1.9831 -0.0708 -0.2047
   54c3c     H2  140   0.357   1.482   0.171  0.2291  0.0176  0.2512
   54c3c     H3  141   0.470   1.318   0.489  0.6076 -5.5824 -1.3129
   54c3c     H4  142   0.365   1.275   0.367 -0.0055  0.3781 -0.9190
   54c3c     H5  143   0.653   1.519   0.242  1.5892 -2.4861 -1.0543
   54c3c     H6  144   0.564   1.440   0.109 -1.8426 -0.5123 -0.0363
   54c3c     H7  145   0.656   1.304   0.332 -0.4301 -0.2522  1.9001
   54c3c     H8  146   0.530   1.250   0.219 -0.8455  0.1741  0.1537
   54c3c     H9  147   0.440   1.557   0.575 -1.4209  1.4240 -0.7309
   54c3c    H10  148   0.587   1.544   0.465  0.4974  0.6245 -0.3701
   54c3c    H11  149   0.473   1.673   0.456 -0.8342 -0.7021 -1.0230
   54c3c    H12  150   0.242   1.438   0.517  1.6780  0.1478  1.0663
   54c3c    H13  151   0.232   1.602   0.457  0.7040  0.2840 -1.5331
   54c3c     C7  152   0.143   1.476   0.324 -0.1708 -0.4016 -0.2347
   54c3c    H14  153   0.146   1.370   0.297  2.5994 -0.0216 -1.6317
   54c3c    H15  154   0.154   1.531   0.231 -1.6292 -1.7535 -1.2330
   54c3c     C8  155   0.009   1.504   0.375  0.1046  0.3777 -0.0048
   54c3c    H16  156  -0.060   1.472   0.297 -0.5369 -1.6406  1.3496
   54c3c    H17  157  -0.014   1.605   0.410 -0.7633  0.6429 -1.3022
   54c3c    H18  158  -0.009   1.446   0.465  0.0631 -0.6994 -0.6934
   55c3c      N  159   1.048   2.749   0.525 -0.2798 -0.0579 -0.2328
   55c3c     C1  160   0.985   2.874   0.566  0.2136  0.0195  0.1076
   55c3c     C2  161   0.940   2.659   0.538  0.9440  0.2680  0.5387
   55c3c     C3  162   0.843   2.870   0.505  0.5615 -0.2922 -0.2811
   55c3c     C4  163   0.818   2.728   0.485  0.3804  0.5711  0.7255
   55c3c     C5  164   1.087   2.763   0.385 -0.5108  0.1962 -1.0766
   55c3c     C6  165   1.163   2.708   0.605 -0.3555  0.0531  0.9305
   55c3c     H1  166   1.036   2.967   0.542 -0.6952  0.5400  0.2116
   55c3c     H2  167   0.954   2.869   0.670 -0.4230  1.5714  0.0022
   55c3c     H3  168   0.963   2.560   0.497 -0.8352 -0.2829  0.7788
   55c3c     H4  169   0.916   2.652   0.644  2.2877 -1.9912  0.7187
   55c3c     H5  170   0.841   2.908   0.403 -3.2670 -0.9295 -0.5005
   55c3c     H6  171   0.765   2.915   0.566  1.7840  1.0226  0.3476
   55c3c     H7  172   0.783   2.696   0.387 -0.2158 -0.9259  1.3964
   55c3c     H8  173   0.737   2.698   0.552 -0.4851 -0.1319 -0.6038
   55c3c     H9  174   1.120   2.665   0.349 -2.0266 -0.5262 -0.5549
   55c3c    H10  175   1.016   2.806   0.315 -1.4808  0.1399 -0.1335
   55c3c    H11  176   1.170   2.833   0.390  0.7694 -1.4439  1.8371
   55c3c    H12  177   1.203   2.614   0.567  0.1129  0.8371 -0.5292
   55c3c    H13  178   1.237   2.786   0.586  0.2806 -1.0742 -1.3747
   55c3c     C7  179   1.156   2.694   0.758 -0.1249 -0.3713  0.2931
   55c3c    H14  180   1.081   2.618   0.780 -0.0618 -0.7965 -0.9088
   55c3c    H15  181   1.111   2.778   0.811 -1.2062 -0.0870 -1.0200
   55c3c     C8  182   1.287   2.665   0.815 -0.4655  0.7643 -0.2393
   55c3c    H16  183   1.290   2.680   0.923 -0.5372  0.9215 -0.2581
   55c3c    H17  184   1.370   2.721   0.773 -0.9885  2.2783  0.6898
   55c3c    H18  185   1.298   2.559   0.793 -0.8685  0.9120 -1.1648
   56c3c      N  186   1.868   1.878   0.691  0.4122 -0.1530  0.5063
   56c3c     C1  187   1.850   1.884   0.837 -0.1978  0.4711 -0.4474
   56c3c     C2  188   1.999   1.934   0.668 -0.9272  0.2710  0.0710
   56c3c     C3  189   1.987   1.849   0.896  0.2739  0.6485  1.0657
   56c3c     C4  190   2.091   1.894   0.789  0.2519 -0.2114 -0.2116
   56c3c     C5  191   1.867   1.737   0.654  0.3643  1.0372  0.8957
   56c3c     C6  192   1.767   1.949   0.605  0.5301  0.2004 -0.8120
   56c3c     H1  193   1.761   1.828   0.866 -0.6949  0.2279 -2.3342
   56c3c     H2  194   1.828   1.987   0.866  2.0247  0.4309  1.5418
   56c3c     H3  195   2.042   1.898   0.575 -3.5625 -1.4935 -0.4900
   56c3c     H4  196   1.995   2.043   0.666 -3.4976  0.2064 -0.2353
   56c3c     H5  197   1.997   1.740   0.896  0.9948  0.6968 -1.1222
   56c3c     H6  198   2.010   1.884   0.997 -1.3168 -0.9341  2.0245
   56c3c     H7  199   2.157   1.817   0.749 -1.6747 -0.1023 -3.7913
   56c3c     H8  200   2.152   1.975   0.829 -0.1084 -1.1233  2.3288
   56c3c     H9  201   1.935   1.673   0.710 -1.0670 -0.5699  0.8254
   56c3c    H10  202   1.769   1.690   0.666  0.6770  0.4148  0.9973
   56c3c    H11  203   1.891   1.736   0.548  1.0950  1.4396  1.0505
   56c3c    H12  204   1.762   2.052   0.641 -0.1096 -0.0275 -0.2316
   56c3c    H13  205   1.803   1.954   0.503  0.5111  1.1156 -0.7762
   56c3c     C7  206   1.612   1.922   0.614 -0.4362 -0.5974 -0.0477
   56c3c    H14  207   1.582   1.949   0.715 -1.2642  1.5288 -0.8407
   56c3c    H15  208   1.582   1.821   0.587 -0.9041 -0.4694 -0.0209
   56c3c     C8  209   1.532   2.011   0.522  0.1617 -0.2146  0.1917
   56c3c    H16  210   1.445   1.948   0.502 -0.0050 -0.5795  1.9737
   56c3c    H17  211   1.579   2.016   0.424 -1.2810  0.4887 -0.4822
   56c3c    H18  212   1.502   2.111   0.553 -1.7026 -1.1944  1.6196
   57c3c      N  213   0.034   0.602   1.741  0.7140  0.2839  0.0526
   57c3c     C1  214  -0.048   0.637   1.861  0.1186 -0.8374  0.3761
   57c3c     C2  215   0.090   0.472   1.790 -0.0160  0.3726 -0.0763
   57c3c     C3  216  -0.111   0.501   1.904 -0.5361  0.4530 -0.5855
   57c3c     C4  217  -0.023   0.394   1.850 -0.5818  0.0251 -0.0682
   57c3c     C5  218  -0.047   0.577   1.617 -0.0030 -0.1847 -0.6508
   57c3c     C6  219   0.139   0.706   1.717 -0.0963  0.2507  0.1588
   57c3c     H1  220  -0.128   0.703   1.829 -0.6007 -1.7617  0.2592
   57c3c     H2  221   0.014   0.677   1.942 -0.8372  3.5593 -0.9463
   57c3c     H3  222   0.126   0.425   1.699 -0.1096 -1.7020  0.9392
   57c3c     H4  223   0.172   0.486   1.861  0.3028  1.0952 -0.5808
   57c3c     H5  224  -0.217   0.484   1.887 -0.2059 -1.8042 -0.4183
   57c3c     H6  225  -0.108   0.500   2.013 -1.2037  0.0744 -0.5743
   57c3c     H7  226  -0.075   0.335   1.774 -0.6930 -1.0264  0.8133
   57c3c     H8  227   0.018   0.325   1.924  0.2301  1.0409  0.4475
   57c3c     H9  228  -0.096   0.669   1.586 -0.4736 -1.0658 -2.6468
   57c3c    H10  229   0.014   0.539   1.535  0.2079  0.0251 -0.5898
   57c3c    H11  230  -0.123   0.504   1.646  0.8432  0.2059  2.6861
   57c3c    H12  231   0.175   0.704   1.614 -2.0057  0.9138 -0.5409
   57c3c    H13  232   0.089   0.801   1.731  1.7174  1.2758 -0.1475
   57c3c     C7  233   0.264   0.708   1.808  0.3861 -0.1067  0.1346
   57c3c    H14  234   0.331   0.624   1.792  0.5464 -0.3595  2.0447
   57c3c    H15  235   0.244   0.696   1.914  1.8004  1.5892  0.6215
   57c3c     C8  236   0.344   0.829   1.773 -0.3403 -0.6638 -0.3699
   57c3c    H16  237   0.430   0.848   1.838 -0.7033  2.6850 -0.8069
   57c3c    H17  238   0.278   0.915   1.781  0.8432  0.3614 -1.3383
   57c3c    H18  239   0.381   0.834   1.671 -0.0345 -2.1536 -0.3398
   58c3c      N  240   0.063   1.984   0.337  0.1473  0.6384  0.8409
   58c3c     C1  241   0.144   2.056   0.233  0.5193 -0.4739  0.2613
   58c3c     C2  242   0.146   1.868   0.376 -0.1326 -0.2980 -0.0960
   58c3c     C3  243   0.295   2.033   0.269 -0.7652  0.7268 -0.2256
   58c3c     C4  244   0.298   1.918   0.366 -0.9549  1.4675 -0.5817
   58c3c     C5  245   0.047   2.079   0.446 -0.0123 -0.0358  0.7443
   58c3c     C6  246  -0.070   1.943   0.290  0.5211  0.0446 -0.4452
   58c3c     H1  247   0.119   2.159   0.208  1.2406 -0.7087 -1.4983
   58c3c     H2  248   0.137   2.003   0.137 -2.0614 -1.2900  0.8613
   58c3c     H3  249   0.130   1.813   0.468  2.9374 -1.0891  0.0051
   58c3c     H4  250   0.145   1.795   0.295 -0.8882  1.4257 -1.6939
   58c3c     H5  251   0.343   2.121   0.313 -0.7147  0.1724  0.8167
   58c3c     H6  252   0.351   2.011   0.178 -1.5014 -0.2722 -0.4448
   58c3c     H7  253   0.335   1.941   0.466  0.2140 -0.1118 -0.6237
   58c3c     H8  254   0.361   1.838   0.326  0.2752  1.5090  1.2078
   58c3c     H9  255   0.143   2.116   0.482 -0.5944  1.9629  0.3010
   58c3c    H10  256  -0.009   2.172   0.439  0.7938  0.3529 -0.7589
   58c3c    H11  257  -0.004   2.035   0.532 -0.3216 -2.2266 -0.5229
   58c3c    H12  258  -0.124   1.881   0.362  0.9304  0.4181  0.1851
   58c3c    H13  259  -0.133   2.028   0.267  0.9210  0.6283  0.6330
   58c3c     C7  260  -0.080   1.847   0.164 -0.4991  0.5853  0.0172
   58c3c    H14  261  -0.024   1.755   0.180  1.8714  2.0452  0.3122
   58c3c    H15  262  -0.038   1.903   0.080  0.2505  0.9264  0.6107
   58c3c     C8  263  -0.223   1.811   0.120 -0.4437 -0.2850 -0.5103
   58c3c    H16  264  -0.222   1.777   0.017 -0.5579 -3.2629  0.4003
   58c3c    H17  265  -0.280   1.904   0.117 -0.9076 -0.5037  0.8043
   58c3c    H18  266  -0.263   1.742   0.195  0.7965  0.6078  1.0121
   59c3c      N  267   0.610   2.022   2.519 -0.4145  0.5901  0.0840
   59c3c     C1  268   0.470   2.063   2.546  0.5375 -0.2348 -0.7200
   59c3c     C2  269   0.604   1.877   2.528  1.0138  0.5155  0.1890
   59c3c     C3  270   0.386   1.956   2.473 -0.3657 -0.2412  0.1401
   59c3c     C4  271   0.478   1.839   2.454  0.0119 -0.1183  0.4988
   59c3c     C5  272   0.648   2.064   2.378  0.1993  0.4968  1.0591
   59c3c     C6  273   0.704   2.076   2.627  0.1561 -0.0327 -0.2215
   59c3c     H1  274   0.447   2.165   2.516 -0.5348 -0.8443 -1.9990
   59c3c     H2  275   0.457   2.055   2.654  1.9772 -2.3658 -0.6773
   59c3c     H3  276   0.685   1.818   2.484 -1.9465 -0.8437 -3.6464
   59c3c     H4  277   0.592   1.843   2.631  1.0271  0.9517  0.3338
   59c3c     H5  278   0.355   1.991   2.375  0.4462 -0.0306 -0.0441
   59c3c     H6  279   0.300   1.931   2.534 -0.6129  1.2642  0.4229
   59c3c     H7  280   0.497   1.822   2.348 -2.6165 -0.9485  0.1361
   59c3c     H8  281   0.435   1.750   2.499 -1.9182  0.8472  0.6082
   59c3c     H9  282   0.648   2.173   2.375 -0.8890  0.5105  1.2536
   59c3c    H10  283   0.754   2.048   2.360 -0.0158  1.4966 -1.3130
   59c3c    H11  284   0.601   2.013   2.294  2.3560 -0.6134  0.5062
   59c3c    H12  285   0.798   2.026   2.605 -1.0192 -1.5033 -2.1471
   59c3c    H13  286   0.734   2.179   2.609  1.7304 -0.2420  1.1275
   59c3c     C7  287   0.668   2.059   2.778 -0.8467 -0.2389 -0.2235
   59c3c    H14  288   0.679   1.956   2.813 -0.8694  0.0700  0.7259
   59c3c    H15  289   0.573   2.106   2.805 -0.0083  0.9656  0.6924
   59c3c     C8  290   0.776   2.124   2.871 -0.1446 -0.6231  0.7645
   59c3c    H16  291   0.880   2.091   2.870 -0.6930 -2.4663  2.0495
   59c3c    H17  292   0.744   2.128   2.975  0.1991  1.8470  0.8223
   59c3c    H18  293   0.776   2.230   2.843  2.5300  0.5527  4.6307
   60c3c      N  294   2.470   0.128   1.276 -0.3583 -0.4645  0.0292
   60c3c     C1  295   2.357   0.168   1.197 -0.0310 -0.1790 -0.4050
   60c3c     C2  296   2.435  -0.010   1.306 -0.5422 -0.1200  0.1734
   60c3c     C3  297   2.310   0.047   1.114  0.3184  0.0535  0.5105
   60c3c     C4  298   2.373  -0.074   1.181  0.2026  0.2787 -0.0210
   60c3c     C5  299   2.589   0.138   1.187 -0.1253  0.1538 -0.3548
   60c3c     C6  300   2.487   0.212   1.395  0.1571  0.0529 -0.6542
   60c3c     H1  301   2.373   0.256   1.135 -1.0136  1.3574  1.4372
   60c3c     H2  302   2.267   0.200   1.250  0.7803  0.4736  0.6036
   60c3c     H3  303   2.521  -0.066   1.343  0.6730 -0.5463 -3.1362
   60c3c     H4  304   2.359  -0.013   1.385 -1.9435 -1.1646 -1.1792
   60c3c     H5  305   2.348   0.041   1.012  1.7490 -1.1353  1.0894
   60c3c     H6  306   2.204   0.030   1.098  0.6179 -0.7724 -0.6104
   60c3c     H7  307   2.448  -0.115   1.113  1.3344  1.1925  0.6539
   60c3c     H8  308   2.306  -0.154   1.213  1.1627 -0.4977  0.0716
   60c3c     H9  309   2.614   0.241   1.165 -1.1909  0.5821  0.4088
   60c3c    H10  310   2.665   0.085   1.245 -0.5465  1.1762  1.1620
   60c3c    H11  311   2.573   0.069   1.104  1.2598  0.6143 -1.0171
   60c3c    H12  312   2.569   0.167   1.452 -0.0969  0.4668  0.0527
   60c3c    H13  313   2.515   0.315   1.374 -0.1399  0.1165 -0.7416
   60c3c     C7  314   2.371   0.230   1.500  0.0650  0.7737  0.8792
   60c3c    H14  315   2.326   0.132   1.519 -0.6145  0.2648 -2.9418
   60c3c    H15  316   2.283   0.271   1.451  1.4983  0.5875 -1.9828
   60c3c     C8  317   2.416   0.298   1.626  0.2729 -0.1441  0.1158
   60c3c    H16  318   2.324   0.308   1.684  1.1933 -0.9148  1.7361
   60c3c    H17  319   2.458   0.398   1.620 -2.3240  0.8906 -1.9636
   60c3c    H18  320   2.486   0.238   1.683  0.1199  0.9366  1.4691
   61c3c      N  321   2.206   0.730   1.497  0.4162 -0.3110  0.4148
   61c3c     C1  322   2.187   0.839   1.408 -0.3162 -0.0103  0.2439
   61c3c     C2  323   2.350   0.729   1.520  0.0719  0.5254  0.8770
   61c3c     C3  324   2.287   0.952   1.451  0.7156 -0.5830  0.5878
   61c3c     C4  325   2.390   0.877   1.531 -0.2880  0.6001  0.2474
   61c3c     C5  326   2.130   0.740   1.628 -0.1081  0.5856  0.6811
   61c3c     C6  327   2.157   0.604   1.442 -0.5034  0.0859 -0.4242
   61c3c     H1  328   2.082   0.869   1.413 -0.5946 -0.9975  0.3657
   61c3c     H2  329   2.213   0.817   1.304  0.9086 -0.1510  0.5782
   61c3c     H3  330   2.375   0.679   1.613  3.6441 -1.3548 -0.9929
   61c3c     H4  331   2.406   0.690   1.435 -0.7717 -0.7972  0.9194
   61c3c     H5  332   2.229   1.019   1.515 -0.4446 -0.2419 -0.7971
   61c3c     H6  333   2.329   1.001   1.363 -2.4474 -0.3671 -0.8859
   61c3c     H7  334   2.395   0.913   1.634 -3.9107 -0.8059  0.9959
   61c3c     H8  335   2.489   0.885   1.487  0.1454  0.7322  1.2295
   61c3c     H9  336   2.023   0.749   1.608  0.1838 -0.3786 -1.4233
   61c3c    H10  337   2.125   0.654   1.695 -0.1634  1.6057  2.0028
   61c3c    H11  338   2.150   0.829   1.687  0.5429  1.1842 -0.4246
   61c3c    H12  339   2.158   0.522   1.513  0.0283  0.1909 -0.3101
   61c3c    H13  340   2.057   0.627   1.402 -0.7315  0.1184  0.1619
   61c3c     C7  341   2.235   0.550   1.317 -0.1457 -0.6683 -0.5323
   61c3c    H14  342   2.333   0.506   1.334  0.2933 -0.3316 -2.0897
   61c3c    H15  343   2.262   0.621   1.238 -1.8590  1.7219  0.9778
   61c3c     C8  344   2.153   0.453   1.238  0.5281  0.2378 -0.2623
   61c3c    H16  345   2.124   0.372   1.305 -1.4412 -0.0680 -1.4319
   61c3c    H17  346   2.212   0.405   1.160  0.5035  0.9011 -0.6866
   61c3c    H18  347   2.065   0.495   1.189  0.5471 -0.8791 -1.2745
   62c3c      N  348   2.694   1.295   1.699 -0.2672  0.1211 -0.7209
   62c3c     C1  349   2.614   1.264   1.818 -0.2463  1.0345  0.0339
   62c3c     C2  350   2.782   1.184   1.673  0.7664  0.4273 -1.2135
   62c3c     C3  351   2.580   1.119   1.805  0.2855 -0.0369 -0.1463
   62c3c     C4  352   2.696   1.068   1.715  0.5002 -0.9379  0.5571
   62c3c     C5  353   2.603   1.316   1.584 -0.2627  0.3089 -0.6950
   62c3c     C6  354   2.769   1.425   1.714 -0.0144 -0.9296  0.5156
   62c3c     H1  355   2.538   1.338   1.845 -1.6198 -0.8107  1.3715
   62c3c     H2  356   2.682   1.258   1.903  1.6940  1.4892 -1.4498
   62c3c     H3  357   2.808   1.183   1.567 -0.8833  1.3788 -1.6537
   62c3c     H4  358   2.869   1.174   1.737  0.2498 -5.4847 -1.1572
   62c3c     H5  359   2.480   1.100   1.767  0.8500  0.4384 -1.9030
   62c3c     H6  360   2.587   1.068   1.901  0.1847 -0.2155 -0.2324
   62c3c     H7  361   2.655   1.023   1.625 -0.4047  0.0235  0.4878
   62c3c     H8  362   2.752   0.987   1.762  0.1496 -1.2868  0.3687
   62c3c     H9  363   2.526   1.389   1.611 -0.9603 -1.1611  1.4413
   62c3c    H10  364   2.661   1.347   1.497  0.0825  0.2278 -0.4929
   62c3c    H11  365   2.544   1.227   1.559 -1.4576  1.5498 -2.4772
   62c3c    H12  366   2.835   1.428   1.627  1.0466 -0.2598  1.3276
   62c3c    H13  367   2.711   1.516   1.696  1.3913 -0.3067 -1.0380
   62c3c     C7  368   2.841   1.445   1.854  0.5166  0.1059 -0.2099
   62c3c    H14  369   2.894   1.353   1.878 -2.4506 -1.0029  2.5289
   62c3c    H15  370   2.765   1.444   1.932  1.3318  0.6434  0.5916
   62c3c     C8  371   2.940   1.558   1.850  0.7154 -0.4877  0.1284
   62c3c    H16  372   2.908   1.647   1.796  0.4899  0.1084  1.2302
   62c3c    H17  373   3.029   1.530   1.795  1.5764  2.6880 -0.1990
   62c3c    H18  374   2.955   1.587   1.954 -3.1751  0.3836  0.5277
   63c3c      N  375   1.920   1.961   1.953  0.4875  0.4523 -0.3591
   63c3c     C1  376   1.997   2.080   1.914  1.1810  0.2471 -0.3179
   63c3c     C2  377   1.830   2.006   2.060  0.2987 -0.6867 -0.2009
   63c3c     C3  378   1.925   2.202   1.964 -0.0651 -0.6782 -0.2677
   63c3c     C4  379   1.797   2.151   2.018  0.2580 -0.0104 -0.0978
   63c3c     C5  380   1.841   1.912   1.842 -0.0019 -0.3595  0.0794
   63c3c     C6  381   2.009   1.853   1.993  0.2443 -0.1567  0.9154
   63c3c     H1  382   2.033   2.086   1.811 -2.5676 -2.1467 -1.8728
   63c3c     H2  383   2.095   2.082   1.962  1.1035  0.2679 -0.1625
   63c3c     H3  384   1.745   1.943   2.086 -0.3906 -0.0783 -0.9592
   63c3c     H4  385   1.890   2.009   2.152 -0.0765  0.0783  0.0234
   63c3c     H5  386   1.900   2.276   1.889  0.1471 -1.6374 -1.2976
   63c3c     H6  387   1.977   2.256   2.043 -2.5842  0.8029  0.4444
   63c3c     H7  388   1.723   2.137   1.939  1.4838  0.0842 -1.2728
   63c3c     H8  389   1.751   2.208   2.099  2.0829  0.9361  0.2800
   63c3c     H9  390   1.898   1.849   1.774  0.6425 -0.6644  0.8926
   63c3c    H10  391   1.752   1.856   1.873 -0.5101 -1.4705 -3.2410
   63c3c    H11  392   1.812   1.994   1.776 -0.2769 -0.6140 -0.1190
   63c3c    H12  393   1.951   1.761   2.001  1.2970 -0.9979 -0.8439
   63c3c    H13  394   2.080   1.825   1.916  0.8260  3.4685  0.0437
   63c3c     C7  395   2.101   1.865   2.119  0.3451 -0.8775  0.6559
   63c3c    H14  396   2.043   1.879   2.211 -1.2224 -2.1442 -0.1074
   63c3c    H15  397   2.170   1.947   2.100  0.4459 -0.2098  3.6639
   63c3c     C8  398   2.194   1.747   2.130 -0.7399  0.0471  0.2295
   63c3c    H16  399   2.236   1.718   2.034 -0.6068 -2.1203  0.9161
   63c3c    H17  400   2.142   1.655   2.160  1.2888 -0.7342  1.4890
   63c3c    H18  401   2.275   1.767   2.200  0.1461 -0.1600 -0.7366
   64c3c      N  402   2.381   2.382   1.404 -0.1901  0.1048 -0.8933
   64c3c     C1  403   2.455   2.506   1.443 -0.1340  1.1252  0.2930
   64c3c     C2  404   2.308   2.423   1.280 -0.6431 -0.0046  0.0085
   64c3c     C3  405   2.506   2.565   1.316  0.5455 -0.0079  0.2038
   64c3c     C4  406   2.413   2.504   1.206 -0.2411 -0.1294  0.0317
   64c3c     C5  407   2.485   2.281   1.380  0.1533  0.7415 -0.7606
   64c3c     C6  408   2.287   2.334   1.506  0.5953  0.3758  0.1111
   64c3c     H1  409   2.527   2.472   1.518 -2.2229  0.5009  2.0850
   64c3c     H2  410   2.386   2.570   1.499  0.0433  2.2534 -0.7535
   64c3c     H3  411   2.279   2.335   1.222 -1.5992  1.3965 -1.6697
   64c3c     H4  412   2.218   2.479   1.306 -1.1992 -0.6425 -0.5383
   64c3c     H5  413   2.610   2.543   1.292 -0.2209 -3.9164  0.0135
   64c3c     H6  414   2.488   2.672   1.323 -2.9292 -0.5139  0.0793
   64c3c     H7  415   2.468   2.432   1.145 -1.0289 -1.0176  0.3625
   64c3c     H8  416   2.370   2.580   1.141 -1.2139 -0.5221  0.2049
   64c3c     H9  417   2.569   2.316   1.321  1.0938 -1.8825 -1.0355
   64c3c    H10  418   2.520   2.242   1.476  1.1828 -0.5001 -1.6236
   64c3c    H11  419   2.446   2.190   1.335 -0.1828 -0.5026  1.9335
   64c3c    H12  420   2.257   2.231   1.486  2.1178 -0.0116 -0.2326
   64c3c    H13  421   2.344   2.313   1.597  0.2827 -2.7789 -0.3749
   64c3c     C7  422   2.165   2.426   1.546  0.0409  1.2609 -0.0260
   64c3c    H14  423   2.095   2.428   1.462  0.0398 -0.5044 -0.0844
   64c3c    H15  424   2.192   2.529   1.571 -0.8516  2.0173 -2.0825
   64c3c     C8  425   2.087   2.384   1.667 -0.6483  0.4692  0.6964
   64c3c    H16  426   2.054   2.282   1.644  0.6526 -0.1746  1.5605
   64c3c    H17  427   1.998   2.447   1.675 -0.8148  0.2911  0.2581
   64c3c    H18  428   2.142   2.384   1.761 -1.0846 -2.2367  1.0135
   65c3c      N  429   0.065   2.058   1.477 -0.8997  0.2817  0.5658
   65c3c     C1  430  -0.028   2.167   1.496 -0.1239  0.5905  0.2508
   65c3c     C2  431   0.106   2.079   1.336  0.3211  0.2824  0.3788
   65c3c     C3  432   0.042   2.286   1.430  0.1378 -0.4751  0.5728
   65c3c     C4  433   0.130   2.226   1.326  1.1908  0.4541  0.0744
   65c3c     C5  434   0.169   2.068   1.583 -0.4558 -0.0415  0.0036
   65c3c     C6  435   0.011   1.923   1.510  0.3469 -0.4159 -0.3147
   65c3c     H1  436  -0.055   2.180   1.601 -1.2363 -0.8618  0.1678
   65c3c     H2  437  -0.115   2.142   1.437  0.6634 -1.9292  0.0692
   65c3c     H3  438   0.197   2.031   1.300  0.5936  0.9361  0.1868
   65c3c     H4  439   0.018   2.052   1.279  0.6430 -2.4322  1.1118
   65c3c     H5  440   0.101   2.343   1.502 -2.1544 -0.3887  2.4603
   65c3c     H6  441  -0.018   2.361   1.380  0.8332 -0.8925 -0.9077
   65c3c     H7  442   0.236   2.241   1.346  1.2599 -2.2038  1.9494
   65c3c     H8  443   0.106   2.270   1.230  1.7026  1.5945  0.4601
   65c3c     H9  444   0.131   2.070   1.685 -2.2857 -0.4185 -0.6468
   65c3c    H10  445   0.238   1.985   1.598  0.6647  0.9885  0.5787
   65c3c    H11  446   0.234   2.153   1.563  1.5146 -1.6715 -0.7474
   65c3c    H12  447   0.092   1.851   1.504  0.3749 -0.3981 -0.1462
   65c3c    H13  448  -0.024   1.921   1.613 -0.4598  0.8855 -0.5499
   65c3c     C7  449  -0.093   1.868   1.416 -0.2602  0.1148  0.1580
   65c3c    H14  450  -0.051   1.853   1.317 -0.3057 -1.4170  0.3541
   65c3c    H15  451  -0.176   1.936   1.393 -1.0048 -1.2564 -1.2826
   65c3c     C8  452  -0.152   1.734   1.467  0.1527 -0.0215  0.6577
   65c3c    H16  453  -0.076   1.656   1.478 -0.9854 -1.2524 -0.1039
   65c3c    H17  454  -0.229   1.685   1.408 -2.2023  1.8920  2.0430
   65c3c    H18  455  -0.196   1.759   1.564 -0.6446  1.1822 -0.0065
   66c3c      N  456   1.444   2.703   2.954 -0.4666 -0.1587 -0.2750
   66c3c     C1  457   1.516   2.698   3.079 -0.3983 -0.1925  0.6216
   66c3c     C2  458   1.305   2.679   2.991 -0.5790 -0.7265  0.2936
   66c3c     C3  459   1.438   2.773   3.183 -0.5412  0.7049 -0.1313
   66c3c     C4  460   1.292   2.751   3.126  0.2832  0.8031  0.3530
   66c3c     C5  461   1.457   2.832   2.884 -0.4011  0.2641 -0.2132
   66c3c     C6  462   1.499   2.596   2.869 -0.2808  0.0797 -0.0143
   66c3c     H1  463   1.612   2.749   3.081 -0.2314 -0.2937 -2.2545
   66c3c     H2  464   1.547   2.602   3.122  2.1936 -0.0927 -0.9607
   66c3c     H3  465   1.236   2.710   2.912 -0.4730 -0.9857  0.0989
   66c3c     H4  466   1.279   2.574   3.003 -1.5744 -0.5353 -0.1792
   66c3c     H5  467   1.468   2.878   3.187  1.9046 -0.0009  0.7809
   66c3c     H6  468   1.453   2.717   3.275 -1.6644 -0.4379 -0.6297
   66c3c     H7  469   1.245   2.847   3.104  0.3913  0.8686  0.4078
   66c3c     H8  470   1.224   2.698   3.192  0.1155 -1.5655 -1.6448
   66c3c     H9  471   1.421   2.915   2.946 -0.1649 -1.0864  1.7509
   66c3c    H10  472   1.559   2.864   2.865  0.1482 -0.6067  1.1900
   66c3c    H11  473   1.405   2.847   2.790  0.4509  1.9664 -0.4347
   66c3c    H12  474   1.442   2.600   2.776 -0.9309  1.3950  0.4302
   66c3c    H13  475   1.593   2.636   2.830 -0.9873  0.4321 -1.4065
   66c3c     C7  476   1.523   2.446   2.916 -0.1256  0.2472 -0.4485
   66c3c    H14  477   1.435   2.427   2.978  1.0192  2.4920  1.9430
   66c3c    H15  478   1.607   2.423   2.981 -0.9015  0.4186  0.6377
   66c3c     C8  479   1.516   2.346   2.799  0.2451 -0.2638 -0.0070
   66c3c    H16  480   1.548   2.247   2.833 -2.4194 -0.2035  2.8797
   66c3c    H17  481   1.584   2.371   2.718  0.8425 -0.2122  0.5089
   66c3c    H18  482   1.414   2.331   2.764 -0.0001  0.1542  0.5300
   67c3c      N  483   0.793   0.370   2.479 -0.4333 -0.1152 -0.2613
   67c3c     C1  484   0.756   0.475   2.573  0.5585  0.1493 -0.0795
   67c3c     C2  485   0.872   0.457   2.389  0.0624 -0.4107  0.1450
   67c3c     C3  486   0.712   0.594   2.495 -0.0896  0.1677 -0.8633
   67c3c     C4  487   0.799   0.588   2.368  0.4380  0.6941 -0.1863
   67c3c     C5  488   0.879   0.273   2.555 -0.1505  0.4665  0.5238
   67c3c     C6  489   0.681   0.299   2.413 -0.5167 -0.2570 -0.7269
   67c3c     H1  490   0.840   0.508   2.634 -0.4168 -0.9594  1.9084
   67c3c     H2  491   0.684   0.450   2.651  0.3330 -1.5577 -0.8128
   67c3c     H3  492   0.969   0.479   2.435 -0.1203 -0.5209  0.5791
   67c3c     H4  493   0.902   0.402   2.299  2.0622  1.2784 -0.2522
   67c3c     H5  494   0.708   0.682   2.560 -1.8580 -1.8245  1.8368
   67c3c     H6  495   0.610   0.568   2.469 -0.6252  0.8036  0.5497
   67c3c     H7  496   0.866   0.673   2.358  2.5834 -0.9714 -0.2132
   67c3c     H8  497   0.718   0.585   2.295  0.7859  0.1691 -0.5585
   67c3c     H9  498   0.832   0.244   2.649 -1.1951  0.6970  0.0885
   67c3c    H10  499   0.889   0.173   2.511 -0.8806  0.9383 -0.7630
   67c3c    H11  500   0.981   0.306   2.569  0.1138  0.0887 -0.4492
   67c3c    H12  501   0.619   0.366   2.355  2.2786  1.9894 -1.1995
   67c3c    H13  502   0.715   0.223   2.343  1.2270  0.1269 -0.3110
   67c3c     C7  503   0.591   0.223   2.512 -0.9593 -0.2614 -0.3338
   67c3c    H14  504   0.543   0.287   2.585 -2.0823  0.3048 -1.5508
   67c3c    H15  505   0.643   0.142   2.564 -2.2094 -0.6034  0.4096
   67c3c     C8  506   0.478   0.136   2.460  0.5006  0.1841 -0.3084
   67c3c    H16  507   0.416   0.194   2.391 -1.3339 -0.3495  0.8385
   67c3c    H17  508   0.416   0.097   2.541  0.8113 -2.3008 -1.2387
   67c3c    H18  509   0.521   0.051   2.408 -1.0585  0.3099 -1.8504
   68c3c      N  510   0.516   0.248   1.160 -0.2522 -0.7551 -0.3451
   68c3c     C1  511   0.524   0.365   1.070 -0.2325 -0.7086  0.9550
   68c3c     C2  512   0.408   0.167   1.103 -0.4371  0.2912  0.0892
   68c3c     C3  513   0.496   0.304   0.930 -0.0773 -0.0475  0.0741
   68c3c     C4  514   0.439   0.171   0.956 -0.1136 -0.4082  0.2845
   68c3c     C5  515   0.644   0.175   1.152  0.2150 -0.2882 -0.3917
   68c3c     C6  516   0.501   0.292   1.300 -0.7530  0.6512 -1.0101
   68c3c     H1  517   0.622   0.412   1.079  0.1520 -1.0462 -1.1486
   68c3c     H2  518   0.445   0.435   1.097  0.3791  0.6063 -0.6048
   68c3c     H3  519   0.402   0.065   1.141 -0.7812  0.3677  0.2394
   68c3c     H4  520   0.309   0.211   1.115  0.0966  1.1214  1.6884
   68c3c     H5  521   0.591   0.293   0.879  0.7226  1.9844  1.0707
   68c3c     H6  522   0.432   0.365   0.867  0.5102 -0.9164 -1.3921
   68c3c     H7  523   0.503   0.083   0.948  0.9598  0.3118  0.7435
   68c3c     H8  524   0.344   0.153   0.906 -0.2786 -1.2451  0.8954
   68c3c     H9  525   0.726   0.220   1.208 -1.8312  1.5544  1.1978
   68c3c    H10  526   0.632   0.074   1.191 -1.8372 -0.0224 -0.2645
   68c3c    H11  527   0.677   0.146   1.052  1.3684 -2.0330  0.4703
   68c3c    H12  528   0.495   0.205   1.366 -0.0224  1.0074 -0.4757
   68c3c    H13  529   0.593   0.339   1.334 -0.0561 -1.9787  0.9469
   68c3c     C7  530   0.381   0.378   1.336 -0.3799  0.5201 -0.0565
   68c3c    H14  531   0.287   0.344   1.293 -1.6956  4.7883 -0.8144
   68c3c    H15  532   0.387   0.481   1.301  0.0057  1.3972  2.4983
   68c3c     C8  533   0.363   0.404   1.492  0.0541  0.7943  0.5084
   68c3c    H16  534   0.320   0.504   1.505 -0.4760  0.6687 -0.2568
   68c3c    H17  535   0.461   0.412   1.539  1.4063 -0.6064 -1.9585
   68c3c    H18  536   0.318   0.321   1.546 -1.4355  2.3959  1.7962
   69c3c      N  537   2.564   2.137   0.656 -0.2851  0.3656  0.7229
   69c3c     C1  538   2.430   2.108   0.604  0.0878  0.1057  0.6336
   69c3c     C2  539   2.645   2.019   0.624 -0.1365  0.2913  0.4486
   69c3c     C3  540   2.450   2.020   0.481  0.3199 -0.4602 -0.7588
   69c3c     C4  541   2.582   1.953   0.503 -0.3342 -0.1181 -0.7737
   69c3c     C5  542   2.617   2.254   0.579  0.3293  0.3607  0.5900
   69c3c     C6  543   2.570   2.169   0.797  0.0571  0.2875  1.2335
   69c3c     H1  544   2.369   2.196   0.582  0.2653 -0.5423 -2.7028
   69c3c     H2  545   2.381   2.038   0.673 -1.0591  2.0610  1.8682
   69c3c     H3  546   2.746   2.040   0.590  0.0256 -1.1294  0.0192
   69c3c     H4  547   2.651   1.937   0.696  0.7948 -1.0839 -1.1560
   69c3c     H5  548   2.446   2.079   0.390 -4.9097  0.9844  0.2581
   69c3c     H6  549   2.370   1.947   0.476 -1.7635  1.7088  0.0993
   69c3c     H7  550   2.644   1.970   0.414  1.1864  1.9153  0.6313
   69c3c     H8  551   2.589   1.845   0.499 -1.1911 -0.1728 -0.9020
   69c3c     H9  552   2.568   2.343   0.618 -0.8408 -0.2084  0.4526
   69c3c    H10  553   2.722   2.273   0.602  0.3081  0.4643  0.6027
   69c3c    H11  554   2.589   2.243   0.474  0.1243  1.2360  0.5517
   69c3c    H12  555   2.673   2.194   0.820 -0.7730  2.0827  3.1565
   69c3c    H13  556   2.511   2.258   0.818 -1.0135  0.2188 -1.3216
   69c3c     C7  557   2.544   2.051   0.894  0.8561 -0.0053  0.5436
   69c3c    H14  558   2.622   1.976   0.882  0.4455 -0.1177 -1.5088
   69c3c    H15  559   2.448   2.009   0.864  2.1282 -1.3803 -1.7421
   69c3c     C8  560   2.527   2.101   1.044 -0.7246  0.2550 -0.2602
   69c3c    H16  561   2.466   2.028   1.096  0.7199 -1.4163 -0.8686
   69c3c    H17  562   2.476   2.197   1.040  0.1122  0.7235  0.1086
   69c3c    H18  563   2.624   2.099   1.094 -0.2009  0.0940 -1.2582
   70c3c      N  564   0.493   2.487   1.868 -0.5239 -0.7858  0.1038
   70c3c     C1  565   0.397   2.521   1.964  0.2348 -0.3743 -0.0823
   70c3c     C2  566   0.411   2.446   1.751 -0.1536  0.5554 -1.0239
   70c3c     C3  567   0.279   2.585   1.885 -0.2887 -0.2014 -0.9452
   70c3c     C4  568   0.297   2.543   1.741  0.5154  0.1977 -0.7612
   70c3c     C5  569   0.570   2.602   1.831  0.9454  0.2588 -0.5392
   70c3c     C6  570   0.591   2.381   1.913 -0.1061 -0.3225 -0.1947
   70c3c     H1  571   0.432   2.585   2.045 -0.2808  0.8739 -0.8208
   70c3c     H2  572   0.348   2.432   2.004  1.1273 -1.5074 -1.4387
   70c3c     H3  573   0.468   2.443   1.658 -0.4631 -0.8447 -1.1837
   70c3c     H4  574   0.364   2.351   1.776 -2.2180  1.4572 -1.3975
   70c3c     H5  575   0.290   2.693   1.894  0.4784 -0.2993 -0.7149
   70c3c     H6  576   0.182   2.554   1.925  0.0914 -3.0157 -2.0604
   70c3c     H7  577   0.329   2.627   1.679  1.5012 -0.6275 -1.3799
   70c3c     H8  578   0.204   2.504   1.700 -0.1477  1.8137 -0.8639
   70c3c     H9  579   0.630   2.636   1.916  0.6234  1.1077 -0.6429
   70c3c    H10  580   0.643   2.569   1.757  2.8978  2.0460  0.5271
   70c3c    H11  581   0.521   2.686   1.783  0.0609 -0.2242 -0.4850
   70c3c    H12  582   0.663   2.369   1.831  0.4668  0.2450  0.2247
   70c3c    H13  583   0.647   2.416   1.999  1.4278 -0.0718 -1.2641
   70c3c     C7  584   0.525   2.240   1.931  0.3925 -0.5460 -0.6449
   70c3c    H14  585   0.522   2.190   1.834 -2.2606  2.2352 -2.0678
   70c3c    H15  586   0.422   2.244   1.965  0.0038 -1.4269 -1.6963
   70c3c     C8  587   0.596   2.142   2.025 -0.8633 -0.3450 -1.0067
   70c3c    H16  588   0.690   2.105   1.986  0.8907  0.2105  2.5286
   70c3c    H17  589   0.526   2.066   2.059 -1.8593  1.9833  2.5300
   70c3c    H18  590   0.623   2.182   2.123  0.4176  0.4560 -1.6818
   71c3c      N  591   1.208   0.155   0.944  0.0704 -0.1713  0.2965
   71c3c     C1  592   1.208   0.028   0.871 -0.2738  1.2467 -0.5148
   71c3c     C2  593   1.340   0.163   1.003 -0.1887 -0.7034 -0.5795
   71c3c     C3  594   1.344   0.019   0.812  0.0038  0.1291 -0.0924
   71c3c     C4  595   1.433   0.097   0.904  0.2681  0.2954  0.1445
   71c3c     C5  596   1.180   0.262   0.853  0.1803  0.0609  0.0067
   71c3c     C6  597   1.101   0.166   1.048 -0.7516  0.6484 -0.4723
   71c3c     H1  598   1.124   0.013   0.803 -1.5677 -0.0607  1.3272
   71c3c     H2  599   1.204  -0.041   0.955  0.4354  1.5175 -0.2528
   71c3c     H3  600   1.370   0.264   1.029 -0.7370 -0.9326  1.0100
   71c3c     H4  601   1.355   0.105   1.094  0.3891 -1.7576 -1.3324
   71c3c     H5  602   1.347   0.054   0.709 -3.2595  0.8331  0.0234
   71c3c     H6  603   1.374  -0.086   0.814 -3.3549 -0.9234 -2.3229
   71c3c     H7  604   1.489   0.172   0.849  1.0676 -1.3096 -1.2640
   71c3c     H8  605   1.503   0.028   0.952 -0.6274 -0.4741  0.3590
   71c3c     H9  606   1.074   0.264   0.829 -0.3539 -0.0376  2.3359
   71c3c    H10  607   1.192   0.357   0.904 -2.1115  0.2737  0.1873
   71c3c    H11  608   1.244   0.267   0.764  1.3034 -0.6287  0.7587
   71c3c    H12  609   1.100   0.271   1.080  2.5794  1.2005 -1.9376
   71c3c    H13  610   1.010   0.154   0.990 -0.7139  3.0644 -1.1208
   71c3c     C7  611   1.099   0.066   1.164  0.0952 -0.7050  0.6046
   71c3c    H14  612   1.186   0.076   1.229  2.3411  1.7835 -2.6540
   71c3c    H15  613   1.096  -0.037   1.128  2.7777 -1.0782  1.3579
   71c3c     C8  614   0.983   0.091   1.256 -0.1805 -0.2716  0.2675
   71c3c    H16  615   0.894   0.056   1.204 -1.2308 -0.5457  2.2180
   71c3c    H17  616   0.972   0.193   1.293  1.9407 -0.4902  1.5474
   71c3c    H18  617   0.991   0.035   1.349 -2.1086 -3.4806 -1.4152
   72c3c      N  618   1.140   0.682   0.236  0.3308  0.7433  0.3533
   72c3c     C1  619   1.206   0.774   0.331  0.7951 -0.1124  0.0781
   72c3c     C2  620   1.143   0.751   0.105 -0.0541  0.5170  0.8277
   72c3c     C3  621   1.310   0.846   0.251 -0.0685 -0.2068  0.7769
   72c3c     C4  622   1.272   0.835   0.103 -0.3428  0.4137 -0.5017
   72c3c     C5  623   1.232   0.571   0.237 -0.1384  0.2038  0.6685
   72c3c     C6  624   1.009   0.634   0.274  0.0595 -0.4323 -0.4757
   72c3c     H1  625   1.237   0.733   0.427 -2.6513 -0.3888  1.1552
   72c3c     H2  626   1.144   0.858   0.363  0.5428 -1.1350  2.3699
   72c3c     H3  627   1.140   0.679   0.023 -1.9469  1.9644 -0.3835
   72c3c     H4  628   1.061   0.821   0.090  0.8943  1.4552 -0.0723
   72c3c     H5  629   1.412   0.815   0.275  0.7299  1.5251 -0.2173
   72c3c     H6  630   1.307   0.953   0.273  1.7021  0.5063 -2.0101
   72c3c     H7  631   1.343   0.791   0.033  2.9023 -1.3610  3.6831
   72c3c     H8  632   1.247   0.938   0.075 -1.0400  0.3138 -0.2513
   72c3c     H9  633   1.336   0.594   0.214 -1.0094  1.4208 -2.3396
   72c3c    H10  634   1.233   0.525   0.335 -1.4533 -1.2257  0.0277
   72c3c    H11  635   1.210   0.502   0.156 -0.5441  1.9076 -0.7014
   72c3c    H12  636   0.967   0.578   0.190  0.2155 -1.2754 -0.0009
   72c3c    H13  637   1.011   0.570   0.362  3.5368 -0.5727 -0.5677
   72c3c     C7  638   0.908   0.742   0.312  0.1282 -0.1973 -0.0802
   72c3c    H14  639   0.907   0.821   0.237  2.6567  0.1618  0.2269
   72c3c    H15  640   0.926   0.789   0.409 -0.2513  0.9347 -0.5523
   72c3c     C8  641   0.772   0.675   0.304 -0.3549  0.6544 -0.0053
   72c3c    H16  642   0.751   0.642   0.202  2.5353  1.0562 -0.7545
   72c3c    H17  643   0.700   0.747   0.343 -0.8826  0.6093 -0.8835
   72c3c    H18  644   0.759   0.592   0.374 -0.5906 -0.1277 -0.9657
   73c3c      N  645   2.782   2.445   2.391  0.1168  0.2851  0.0421
   73c3c     C1  646   2.689   2.342   2.444  0.0425 -0.5393 -0.4679
   73c3c     C2  647   2.756   2.445   2.248 -0.2591 -0.0283  0.2096
   73c3c     C3  648   2.562   2.362   2.362 -0.5067 -0.3283  0.2186
   73c3c     C4  649   2.604   2.419   2.238  0.0115  0.5724 -0.2713
   73c3c     C5  650   2.742   2.580   2.450  0.1176  0.5274  0.1981
   73c3c     C6  651   2.923   2.413   2.415  0.6183 -0.0276 -0.2157
   73c3c     H1  652   2.667   2.342   2.551 -1.6972  0.2252 -0.8082
   73c3c     H2  653   2.712   2.237   2.426  0.0887 -0.6612  0.3163
   73c3c     H3  654   2.790   2.540   2.208 -1.7413  0.3580 -0.1495
   73c3c     H4  655   2.807   2.361   2.201 -2.7186 -0.8799 -0.9787
   73c3c     H5  656   2.493   2.436   2.403 -0.4015  0.1457 -0.4630
   73c3c     H6  657   2.511   2.270   2.334  0.8930 -0.8477 -0.6682
   73c3c     H7  658   2.563   2.518   2.216 -0.2831  0.2362 -1.2646
   73c3c     H8  659   2.574   2.353   2.156 -0.3048 -1.4343  1.4121
   73c3c     H9  660   2.777   2.598   2.552 -0.8510  1.9130  0.3017
   73c3c    H10  661   2.791   2.667   2.405  1.2583  0.3921  1.1406
   73c3c    H11  662   2.636   2.605   2.449 -0.1905 -0.6781  1.4274
   73c3c    H12  663   2.989   2.471   2.350  0.2595  0.4197 -0.1795
   73c3c    H13  664   2.950   2.442   2.516  2.9930  0.8843 -1.0768
   73c3c     C7  665   2.976   2.269   2.405 -0.5342 -0.4329  0.5124
   73c3c    H14  666   2.973   2.220   2.307 -1.0489  1.2409 -0.3240
   73c3c    H15  667   2.924   2.207   2.478  1.3734 -2.2003  0.4112
   73c3c     C8  668   3.119   2.254   2.461  0.4644 -0.0445 -0.1658
   73c3c    H16  669   3.116   2.281   2.567  1.6641 -0.5018 -0.0098
   73c3c    H17  670   3.187   2.329   2.419  0.7632  0.2155  0.7466
   73c3c    H18  671   3.157   2.152   2.460 -0.2374 -0.2990 -1.2034
   74c3c      N  672   0.369   1.339   2.150 -0.0585  0.6766  0.4000
   74c3c     C1  673   0.300   1.270   2.262 -0.1150 -0.1848 -0.7805
   74c3c     C2  674   0.337   1.479   2.178 -0.4410  0.4692  0.1483
   74c3c     C3  675   0.311   1.363   2.388 -0.6172  0.3175  0.3275
   74c3c     C4  676   0.348   1.501   2.331  0.1717  0.8782  0.8423
   74c3c     C5  677   0.515   1.322   2.170  0.8222 -0.3418 -0.5072
   74c3c     C6  678   0.335   1.302   2.014  0.6140  0.6367 -0.0044
   74c3c     H1  679   0.351   1.174   2.277  1.2478  0.2750 -2.3007
   74c3c     H2  680   0.195   1.257   2.237  0.0755  0.6234 -2.0389
   74c3c     H3  681   0.400   1.546   2.119  0.2427  1.3228  1.8342
   74c3c     H4  682   0.235   1.501   2.145  0.2801  1.2780 -1.6062
   74c3c     H5  683   0.388   1.325   2.455 -0.0669  0.8147 -0.0088
   74c3c     H6  684   0.212   1.367   2.433 -1.2499 -2.4722 -0.7218
   74c3c     H7  685   0.448   1.541   2.351 -0.2916  1.7443  1.4476
   74c3c     H8  686   0.275   1.576   2.362  0.8295  1.7586  0.2722
   74c3c     H9  687   0.547   1.221   2.146  3.3630  0.5376 -1.0092
   74c3c    H10  688   0.561   1.390   2.097 -0.1757 -0.4412 -1.2393
   74c3c    H11  689   0.544   1.355   2.269  2.0501 -0.0410 -0.9530
   74c3c    H12  690   0.402   1.347   1.940  2.5077  0.6384  1.6676
   74c3c    H13  691   0.355   1.195   2.004  0.0079  0.6558 -1.5826
   74c3c     C7  692   0.186   1.302   1.955 -0.0214 -0.5147  0.4351
   74c3c    H14  693   0.150   1.402   1.976 -0.0098 -0.7625  1.6679
   74c3c    H15  694   0.123   1.229   2.005 -3.0162  2.0985  0.6316
   74c3c     C8  695   0.179   1.270   1.804 -0.2019  0.3848  0.3826
   74c3c    H16  696   0.092   1.324   1.766  0.1679 -0.1102 -1.2081
   74c3c    H17  697   0.162   1.164   1.789 -0.6384  0.4618  0.3192
   74c3c    H18  698   0.262   1.304   1.742  0.0462  0.0277  0.5197
   75c3c      N  699   2.240   0.455   2.397 -0.0978  0.2262  0.2814
   75c3c     C1  700   2.226   0.468   2.252 -0.2962 -0.2183  1.0293
   75c3c     C2  701   2.282   0.318   2.409 -0.7502 -0.2319 -0.2446
   75c3c     C3  702   2.342   0.400   2.191 -0.2578 -0.5826  0.2805
   75c3c     C4  703   2.389   0.314   2.304 -0.3422 -1.2319 -0.2947
   75c3c     C5  704   2.339   0.554   2.447 -0.4765  0.1464 -0.2322
   75c3c     C6  705   2.112   0.472   2.465 -0.3130  0.9564  0.0864
   75c3c     H1  706   2.229   0.570   2.214  2.1131 -0.4056  0.6877
   75c3c     H2  707   2.138   0.429   2.201  0.5335 -0.3167 -0.3492
   75c3c     H3  708   2.319   0.277   2.503 -3.2383 -0.2614  0.7450
   75c3c     H4  709   2.201   0.250   2.386 -1.5842  0.3429  0.9730
   75c3c     H5  710   2.416   0.472   2.155 -1.8796  1.1532  0.3277
   75c3c     H6  711   2.308   0.345   2.104 -2.9976  0.6913  0.5062
   75c3c     H7  712   2.486   0.341   2.344 -2.0147  1.2645  2.2522
   75c3c     H8  713   2.406   0.208   2.282 -1.9111 -1.3365 -1.1615
   75c3c     H9  714   2.288   0.651   2.448 -2.9317 -1.1018 -0.3728
   75c3c    H10  715   2.360   0.541   2.553 -0.7569 -1.1527 -0.3223
   75c3c    H11  716   2.438   0.551   2.402  0.1035 -1.4952  1.1436
   75c3c    H12  717   2.129   0.446   2.570  0.1360 -1.4888 -0.5657
   75c3c    H13  718   2.084   0.577   2.462  1.5718  1.5453  1.6457
   75c3c     C7  719   1.989   0.403   2.420 -0.4507 -0.5658  0.3853
   75c3c    H14  720   2.007   0.296   2.422  0.1815 -0.4725 -0.3654
   75c3c    H15  721   1.950   0.446   2.328  0.7669 -0.7088 -0.2068
   75c3c     C8  722   1.872   0.428   2.518  0.1364  0.3230  0.6502
   75c3c    H16  723   1.773   0.408   2.479  0.1873  1.7000 -0.2015
   75c3c    H17  724   1.872   0.530   2.558 -1.8536 -0.0432  1.6832
   75c3c    H18  725   1.877   0.367   2.608  0.1379 -0.8127 -0.1118
   76c3c      N  726   2.266   2.923   1.879  0.1996 -0.3475  0.2269
   76c3c     C1  727   2.131   2.899   1.925  0.4209 -0.1315  0.0747
   76c3c     C2  728   2.251   2.957   1.734 -0.0537 -0.6651  0.1948
   76c3c     C3  729   2.045   3.000   1.846  0.2854  0.2913  0.3630
   76c3c     C4  730   2.135   3.063   1.740  0.1351 -0.3226 -0.2240
   76c3c     C5  731   2.321   3.032   1.963  0.6060  0.4773  0.2137
   76c3c     C6  732   2.352   2.800   1.896  0.2722 -0.4281 -0.0159
   76c3c     H1  733   2.115   2.903   2.032  0.2164  0.6463  0.0187
   76c3c     H2  734   2.096   2.800   1.898 -1.4808  0.2279  1.1469
   76c3c     H3  735   2.350   2.990   1.705 -0.4455 -0.1528 -0.5808
   76c3c     H4  736   2.215   2.882   1.664  0.2899 -0.0369 -0.6541
   76c3c     H5  737   2.001   3.072   1.915 -2.8540 -1.7983  0.6982
   76c3c     H6  738   1.954   2.964   1.797  1.9142  1.0312 -3.3050
   76c3c     H7  739   2.168   3.164   1.767 -2.9092  0.8375 -0.6376
   76c3c     H8  740   2.079   3.079   1.648 -0.3536 -0.6403  0.0227
   76c3c     H9  741   2.341   3.010   2.068  0.4016  0.6111  0.2813
   76c3c    H10  742   2.415   3.059   1.916  1.3446  1.8672  2.4016
   76c3c    H11  743   2.263   3.125   1.964  0.5315  0.4299  0.5011
   76c3c    H12  744   2.456   2.830   1.892 -0.5543  2.5065 -0.8384
   76c3c    H13  745   2.341   2.770   2.001 -0.1154 -1.4279 -0.3307
   76c3c     C7  746   2.324   2.677   1.804  0.9629  0.0340 -0.0717
   76c3c    H14  747   2.343   2.708   1.702 -1.7925  1.0641 -0.3148
   76c3c    H15  748   2.225   2.634   1.814  0.8373  0.7883  2.5601
   76c3c     C8  749   2.423   2.564   1.846  0.1374  0.2760 -0.2965
   76c3c    H16  750   2.395   2.492   1.769 -1.6624 -0.6299  1.1714
   76c3c    H17  751   2.397   2.535   1.947 -0.1442  2.3964  0.2626
   76c3c    H18  752   2.530   2.579   1.830  0.2419 -0.3397 -0.1883
   77c3c      N  753   0.480   2.528   0.046  0.1421 -0.1390  0.1363
   77c3c     C1  754   0.561   2.430   0.117  0.0628 -0.2653 -0.1863
   77c3c     C2  755   0.410   2.600   0.156  0.5496 -0.2446 -0.4240
   77c3c     C3  756   0.553   2.459   0.263 -1.0619 -0.0748  0.5468
   77c3c     C4  757   0.502   2.600   0.283  0.2747 -0.0517  0.1030
   77c3c     C5  758   0.565   2.620  -0.022  0.0684  0.2731 -0.6607
   77c3c     C6  759   0.398   2.448  -0.051 -0.2041  0.4430 -0.6676
   77c3c     H1  760   0.668   2.418   0.099 -0.8624 -4.6221 -3.6805
   77c3c     H2  761   0.527   2.327   0.102 -2.0882  0.5174 -0.8246
   77c3c     H3  762   0.383   2.704   0.137  0.9938 -0.0243  0.1430
   77c3c     H4  763   0.316   2.548   0.174  0.7230 -0.1570  0.7797
   77c3c     H5  764   0.651   2.447   0.308 -1.5220  1.6884  2.0492
   77c3c     H6  765   0.490   2.381   0.306 -2.2252  0.0382 -0.8863
   77c3c     H7  766   0.581   2.675   0.278 -0.1799  0.6777  2.9478
   77c3c     H8  767   0.439   2.627   0.367  0.8950  2.7133 -0.2614
   77c3c     H9  768   0.509   2.700  -0.070 -1.5977 -1.2688 -1.3485
   77c3c    H10  769   0.626   2.683   0.043 -0.6594 -1.2297  1.5702
   77c3c    H11  770   0.628   2.569  -0.095  0.0884  0.2202 -0.6066
   77c3c    H12  771   0.354   2.516  -0.123 -0.1807 -0.3750 -1.4650
   77c3c    H13  772   0.467   2.391  -0.113  0.7373  0.6899  0.1469
   77c3c     C7  773   0.286   2.356  -0.002  0.2266 -0.0137  0.4521
   77c3c    H14  774   0.195   2.412   0.019 -0.2936 -0.2457 -1.1613
   77c3c    H15  775   0.317   2.297   0.085  0.6606  1.8734  1.5982
   77c3c     C8  776   0.257   2.247  -0.108 -0.6796 -0.2506  0.0210
   77c3c    H16  777   0.209   2.280  -0.200 -1.4868 -0.9121  0.1943
   77c3c    H17  778   0.183   2.178  -0.068 -0.1819 -0.2149  1.0095
   77c3c    H18  779   0.335   2.178  -0.138  0.7289  1.1810  0.3540
   78c3c      N  780   2.276   1.989   2.641  0.1420 -0.1873  0.2634
   78c3c     C1  781   2.186   1.916   2.732 -0.1200  0.5014  0.0583
   78c3c     C2  782   2.280   1.918   2.513  0.2440  0.0973  0.0097
   78c3c     C3  783   2.081   1.864   2.639  0.1194  0.1943 -0.2693
   78c3c     C4  784   2.152   1.834   2.507  0.3972 -0.5061 -0.2996
   78c3c     C5  785   2.218   2.120   2.610 -0.3577  0.0498  0.2085
   78c3c     C6  786   2.410   2.009   2.696  0.1049 -0.4087  0.7041
   78c3c     H1  787   2.153   1.977   2.816 -0.3816  0.2258  0.1556
   78c3c     H2  788   2.229   1.825   2.773 -1.3142  0.5026  1.3504
   78c3c     H3  789   2.286   1.977   2.421 -0.1305  0.8579  0.4709
   78c3c     H4  790   2.366   1.851   2.504 -0.1106 -0.3568 -0.0343
   78c3c     H5  791   2.010   1.944   2.619  0.1814  0.5041  0.7014
   78c3c     H6  792   2.023   1.787   2.688  1.8390  0.0872  1.7019
   78c3c     H7  793   2.089   1.874   2.427  0.4738 -2.3261 -1.3040
   78c3c     H8  794   2.178   1.730   2.489 -0.6815 -0.5183 -1.9245
   78c3c     H9  795   2.208   2.187   2.696 -2.0788  1.7581 -1.2809
   78c3c    H10  796   2.284   2.161   2.534  0.7923  0.9427  1.6423
   78c3c    H11  797   2.119   2.121   2.565 -0.5676  1.3017  0.6540
   78c3c    H12  798   2.467   2.069   2.625 -0.4201  0.3221  0.8922
   78c3c    H13  799   2.401   2.084   2.775  1.0767  1.3960 -0.8588
   78c3c     C7  800   2.490   1.879   2.731  0.8474  0.6216 -0.1469
   78c3c    H14  801   2.515   1.814   2.647 -2.0251  0.2812 -0.7754
   78c3c    H15  802   2.441   1.808   2.797  3.0942 -0.6306  0.2190
   78c3c     C8  803   2.629   1.896   2.790 -0.1096  0.0644  0.0621
   78c3c    H16  804   2.616   1.961   2.877  0.3153  2.0542 -1.3192
   78c3c    H17  805   2.698   1.950   2.726 -1.4943  0.7085 -0.9385
   78c3c    H18  806   2.675   1.800   2.811  2.1499  0.9403 -0.7400
   79c3c      N  807   2.527   1.369   0.176 -0.3763  0.3838  0.2454
   79c3c     C1  808   2.462   1.306   0.058  0.5891 -0.3997 -0.4240
   79c3c     C2  809   2.644   1.428   0.121  0.0129 -0.2809  0.0569
   79c3c     C3  810   2.500   1.396  -0.061  0.3403 -0.1176 -0.4640
   79c3c     C4  811   2.613   1.484  -0.022 -1.0810  0.4581 -0.1239
   79c3c     C5  812   2.433   1.469   0.226 -0.8266  0.1795 -0.4729
   79c3c     C6  813   2.555   1.278   0.287 -0.5937  0.4841  0.2329
   79c3c     H1  814   2.354   1.289   0.061  0.9594 -2.7725  0.4580
   79c3c     H2  815   2.505   1.209   0.035  1.3945 -0.4875  1.4102
   79c3c     H3  816   2.674   1.510   0.186  2.8029 -2.8126  2.0924
   79c3c     H4  817   2.724   1.354   0.112  0.4312  0.2164 -0.3564
   79c3c     H5  818   2.413   1.460  -0.079 -1.3604 -1.6020  2.1003
   79c3c     H6  819   2.515   1.353  -0.160 -1.4568 -1.0904 -0.3520
   79c3c     H7  820   2.585   1.589  -0.032 -0.9000  0.5446  0.2604
   79c3c     H8  821   2.710   1.471  -0.071 -2.0747 -0.5226 -1.8396
   79c3c     H9  822   2.416   1.549   0.154  2.2341  0.9797 -0.3537
   79c3c    H10  823   2.335   1.426   0.247 -0.3013 -0.1767  1.4180
   79c3c    H11  824   2.478   1.514   0.314 -1.5173 -0.2950  0.1342
   79c3c    H12  825   2.593   1.340   0.369 -2.3342  0.9224  0.7337
   79c3c    H13  826   2.462   1.231   0.319 -0.1760  0.1744  1.0290
   79c3c     C7  827   2.658   1.162   0.261  0.3078  0.1391 -0.2464
   79c3c    H14  828   2.759   1.197   0.239 -0.0800 -0.8478 -3.8805
   79c3c    H15  829   2.636   1.108   0.169  1.9061 -0.0118 -0.5653
   79c3c     C8  830   2.650   1.068   0.379 -0.1999  0.3957 -0.2230
   79c3c    H16  831   2.551   1.026   0.391 -0.1877  0.5716  0.5170
   79c3c    H17  832   2.674   1.117   0.473 -1.3464  0.7509 -0.1217
   79c3c    H18  833   2.716   0.980   0.379  1.5154  1.6478  0.2118
   80c3c      N  834   1.538   0.956   1.806  0.1269  0.2715  0.4157
   80c3c     C1  835   1.529   0.824   1.869  0.0726 -0.6295  0.4042
   80c3c     C2  836   1.680   0.966   1.790 -0.1782 -1.0020  0.1009
   80c3c     C3  837   1.641   0.734   1.815  0.9517  0.3442  0.3249
   80c3c     C4  838   1.744   0.833   1.770  0.3879 -0.4490 -0.4947
   80c3c     C5  839   1.470   0.936   1.676  0.2325 -0.3882 -0.0270
   80c3c     C6  840   1.475   1.070   1.869 -0.1320  0.7425 -0.4234
   80c3c     H1  841   1.429   0.781   1.869 -0.5224  0.7152  0.6601
   80c3c     H2  842   1.546   0.837   1.976  1.6222 -1.3578  0.2665
   80c3c     H3  843   1.705   1.039   1.713  1.7086  1.1803  2.6783
   80c3c     H4  844   1.719   1.005   1.884  1.1525 -2.5275  0.2110
   80c3c     H5  845   1.618   0.675   1.726  0.1203  0.4611  0.4621
   80c3c     H6  846   1.678   0.671   1.895 -0.4432  0.0115  0.7168
   80c3c     H7  847   1.765   0.829   1.663  1.3366  1.2392 -0.3967
   80c3c     H8  848   1.838   0.813   1.822  0.4201  1.2768  0.1403
   80c3c     H9  849   1.365   0.908   1.686  0.2327 -0.9726 -1.5778
   80c3c    H10  850   1.474   1.022   1.609 -1.1348 -1.3214 -1.3229
   80c3c    H11  851   1.507   0.845   1.629 -0.3577 -1.4736  1.5712
   80c3c    H12  852   1.486   1.154   1.802 -1.1692  1.4539  0.2872
   80c3c    H13  853   1.370   1.044   1.880  0.0919 -1.4292 -3.0211
   80c3c     C7  854   1.525   1.101   2.011 -0.3751  0.4610  1.0077
   80c3c    H14  855   1.619   1.148   1.982 -1.7439  0.7556 -3.3003
   80c3c    H15  856   1.531   1.023   2.088 -1.7451 -1.4187 -0.7190
   80c3c     C8  857   1.455   1.219   2.075  0.0041 -0.6452  0.0394
   80c3c    H16  858   1.355   1.186   2.103 -0.3144  0.2150 -0.0743
   80c3c    H17  859   1.454   1.307   2.010 -0.3014 -0.4205  0.3471
   80c3c    H18  860   1.505   1.260   2.163 -1.8883  1.2144  0.2949
   81c3c      N  861   0.454   0.802   0.620 -0.2271  0.6450 -0.6432
   81c3c     C1  862   0.331   0.855   0.554  0.2324  0.0659 -0.0691
   81c3c     C2  863   0.419   0.775   0.761 -0.5274  0.1558  0.2569
   81c3c     C3  864   0.214   0.783   0.626  0.9566 -0.3928  0.0136
   81c3c     C4  865   0.275   0.721   0.748  0.4253  0.8860 -0.6223
   81c3c     C5  866   0.486   0.679   0.549 -0.5504  0.2524 -0.2063
   81c3c     C6  867   0.568   0.889   0.595 -0.1019 -0.3791 -0.2138
   81c3c     H1  868   0.339   0.839   0.446 -0.2841  0.9189 -0.2368
   81c3c     H2  869   0.323   0.962   0.575  0.9107 -0.1770  1.4596
   81c3c     H3  870   0.480   0.696   0.805 -0.6540  0.0234  0.1942
   81c3c     H4  871   0.416   0.867   0.818  0.4678  0.6545 -0.4789
   81c3c     H5  872   0.161   0.714   0.560  0.7458 -0.6940  0.4973
   81c3c     H6  873   0.136   0.852   0.656  1.4955  0.5113 -0.6516
   81c3c     H7  874   0.269   0.613   0.737 -2.7167  0.9504 -0.1044
   81c3c     H8  875   0.223   0.749   0.840 -0.4813  1.0913 -1.1943
   81c3c     H9  876   0.523   0.702   0.449 -0.7417  0.4495 -0.2317
   81c3c    H10  877   0.548   0.613   0.610 -3.1231 -3.3145 -1.2314
   81c3c    H11  878   0.396   0.618   0.544 -0.4022 -0.2742  2.6229
   81c3c    H12  879   0.659   0.835   0.623  0.9674  0.7625 -1.4062
   81c3c    H13  880   0.566   0.916   0.489  0.3980  0.9536  0.1080
   81c3c     C7  881   0.572   1.024   0.664 -0.5070  0.0262  0.4047
   81c3c    H14  882   0.563   1.001   0.770  0.3554 -0.9265  0.2820
   81c3c    H15  883   0.499   1.096   0.627 -1.6198 -1.3886 -0.1589
   81c3c     C8  884   0.710   1.090   0.633 -0.3706 -0.5853 -0.0805
   81c3c    H16  885   0.716   1.182   0.691 -0.5859  1.7477 -3.5707
   81c3c    H17  886   0.716   1.104   0.525  3.0239 -0.6448  0.0545
   81c3c    H18  887   0.801   1.034   0.651  0.8398  1.9285  1.9820
   82c3c      N  888   1.478   0.901   2.542  0.3262  0.9208  0.7843
   82c3c     C1  889   1.521   0.762   2.513 -0.2528  0.7731  0.2333
   82c3c     C2  890   1.544   0.925   2.668 -0.2300  0.0888  1.0465
   82c3c     C3  891   1.653   0.730   2.588 -0.0899 -0.3965  0.0380
   82c3c     C4  892   1.684   0.863   2.667 -0.3917 -0.0351  0.0211
   82c3c     C5  893   1.516   0.989   2.437 -0.1115  0.5424  0.3768
   82c3c     C6  894   1.332   0.917   2.565  0.8064  0.0993  0.2719
   82c3c     H1  895   1.535   0.758   2.405 -1.6517 -1.1157  0.0878
   82c3c     H2  896   1.456   0.681   2.545 -0.7363  1.3273  0.6755
   82c3c     H3  897   1.542   1.032   2.689  0.8612  0.7489 -1.8545
   82c3c     H4  898   1.500   0.873   2.753 -0.2751 -0.4458  0.7034
   82c3c     H5  899   1.737   0.706   2.522  0.7681 -1.7549  1.5928
   82c3c     H6  900   1.638   0.643   2.651 -2.0490 -0.4267 -0.4303
   82c3c     H7  901   1.759   0.916   2.608 -0.6865  1.6035  1.1029
   82c3c     H8  902   1.717   0.843   2.769 -1.3319 -2.7783 -0.1616
   82c3c     H9  903   1.624   0.991   2.420 -0.4504  0.5054 -1.9410
   82c3c    H10  904   1.459   0.956   2.350  1.4426 -0.3896 -0.3025
   82c3c    H11  905   1.484   1.089   2.465 -0.8134  0.2427  0.6674
   82c3c    H12  906   1.303   1.019   2.590  1.5386  0.3119  0.2735
   82c3c    H13  907   1.287   0.897   2.467  0.7824 -1.6506  0.6262
   82c3c     C7  908   1.255   0.829   2.667  0.4861 -0.3362 -0.0895
   82c3c    H14  909   1.295   0.853   2.765  2.4914  1.3415 -1.2871
   82c3c    H15  910   1.279   0.723   2.655  1.4123 -0.1443  0.0566
   82c3c     C8  911   1.105   0.842   2.661  0.7672 -0.1314 -1.1104
   82c3c    H16  912   1.077   0.943   2.688 -0.0674 -0.4473 -0.7858
   82c3c    H17  913   1.052   0.775   2.729  4.1520 -0.1917  1.5961
   82c3c    H18  914   1.071   0.824   2.559 -1.6095 -1.7570 -0.0770
   83c3c      N  915   2.937   0.364   0.527  0.3755 -0.1081  0.4090
   83c3c     C1  916   2.979   0.351   0.664 -0.3492  0.3344 -0.1299
   83c3c     C2  917   3.065   0.383   0.450 -0.0710  0.3372 -0.4027
   83c3c     C3  918   3.114   0.278   0.673 -0.3035  0.4864  0.8620
   83c3c     C4  919   3.173   0.306   0.534  1.0300 -0.1025  0.0236
   83c3c     C5  920   2.873   0.233   0.493 -0.2280 -0.0178  0.4086
   83c3c     C6  921   2.826   0.463   0.507  0.2110  0.0092  0.1050
   83c3c     H1  922   2.907   0.324   0.742 -0.5518  2.0824  0.3135
   83c3c     H2  923   2.994   0.455   0.693 -0.4314  0.1512  0.5799
   83c3c     H3  924   3.059   0.354   0.345  0.7256 -1.0927 -0.0725
   83c3c     H4  925   3.092   0.486   0.470  0.8684  0.0115  0.0602
   83c3c     H5  926   3.100   0.170   0.683  1.1315  0.3043  1.0329
   83c3c     H6  927   3.166   0.310   0.764 -0.1224  2.2902  0.1447
   83c3c     H7  928   3.191   0.210   0.486  0.7515 -0.7690  1.2514
   83c3c     H8  929   3.266   0.363   0.522  2.6420 -2.5394  0.5398
   83c3c     H9  930   2.851   0.176   0.584  2.3580  0.6644  1.5090
   83c3c    H10  931   2.780   0.247   0.438 -0.0213  0.5143  0.1920
   83c3c    H11  932   2.943   0.175   0.432  2.7903  2.3261  1.5179
   83c3c    H12  933   2.814   0.467   0.399  1.2607  3.4785  0.0608
   83c3c    H13  934   2.737   0.422   0.555 -1.3299  0.0140 -2.6382
   83c3c     C7  935   2.844   0.611   0.544 -0.3712 -0.5775 -0.5234
   83c3c    H14  936   2.942   0.642   0.509 -0.0573 -0.2401  0.6385
   83c3c    H15  937   2.854   0.619   0.652 -0.9204 -1.0774 -0.4349
   83c3c     C8  938   2.735   0.697   0.489 -1.0854 -0.1213  0.4011
   83c3c    H16  939   2.725   0.667   0.385 -3.3795 -0.9488  0.8226
   83c3c    H17  940   2.744   0.805   0.505 -0.0960  0.1330 -1.7253
   83c3c    H18  941   2.643   0.663   0.537 -1.2651  0.7708  0.6981
   84c3c      N  942   1.235   1.988   2.916 -0.7635  0.5066  0.0869
   84c3c     C1  943   1.381   1.986   2.930 -0.1692  0.9910 -0.1299
   84c3c     C2  944   1.179   1.980   3.053 -0.4630  0.5768 -0.1756
   84c3c     C3  945   1.413   2.043   3.065  0.0898  0.3030 -0.1859
   84c3c     C4  946   1.277   2.058   3.132  0.4013  0.7166 -0.5372
   84c3c     C5  947   1.190   2.121   2.867 -0.4644 -0.2219  0.3773
   84c3c     C6  948   1.186   1.889   2.826  0.0958  0.5108  0.2905
   84c3c     H1  949   1.435   2.036   2.849  1.7163  1.9664  1.6745
   84c3c     H2  950   1.420   1.885   2.942  2.1038  1.5526 -2.2621
   84c3c     H3  951   1.078   2.019   3.054 -0.4253  0.6589  0.9439
   84c3c     H4  952   1.189   1.879   3.094 -0.4847  0.2899 -0.8566
   84c3c     H5  953   1.468   2.137   3.055  0.9224 -0.1102  0.3863
   84c3c     H6  954   1.473   1.973   3.125 -1.2768  0.3133  1.2226
   84c3c     H7  955   1.251   2.164   3.125 -0.1399  0.5524 -1.0856
   84c3c     H8  956   1.276   2.035   3.238  0.0200  0.4421 -0.5987
   84c3c     H9  957   1.226   2.134   2.765  0.6422  2.3100  1.0426
   84c3c    H10  958   1.081   2.132   2.866 -0.4738 -0.4257 -0.9266
   84c3c    H11  959   1.242   2.202   2.918  0.6086  0.4647 -1.7573
   84c3c    H12  960   1.079   1.907   2.813  0.0150 -1.0038 -1.2548
   84c3c    H13  961   1.233   1.910   2.730  1.3974 -1.6763  0.4253
   84c3c     C7  962   1.219   1.742   2.858 -0.1006 -0.5231  0.2838
   84c3c    H14  963   1.190   1.705   2.957 -1.2678  2.0523  0.9514
   84c3c    H15  964   1.327   1.727   2.850 -0.0159 -0.2685  0.8646
   84c3c     C8  965   1.162   1.650   2.756  0.4849 -0.0947 -0.0323
   84c3c    H16  966   1.053   1.660   2.760  0.5297 -0.1505  1.8625
   84c3c    H17  967   1.192   1.546   2.768  1.7179  0.2917  0.3269
   84c3c    H18  968   1.201   1.669   2.656 -0.5752  1.1655 -0.2202
   85c3c      N  969   0.014   0.060   2.221  0.5800 -0.1982 -0.1733
   85c3c     C1  970  -0.059   0.070   2.350 -0.1123 -0.7710  0.5478
   85c3c     C2  971  -0.092   0.080   2.118  0.3822  0.2666  0.2614
   85c3c     C3  972  -0.140   0.198   2.328  0.4251  0.3112 -0.3890
   85c3c     C4  973  -0.182   0.187   2.181 -0.2840 -0.1832 -0.0409
   85c3c     C5  974   0.122   0.159   2.208  0.4174  0.0510 -0.0211
   85c3c     C6  975   0.081  -0.072   2.207 -0.4488 -0.2702  0.5510
   85c3c     H1  976   0.001   0.094   2.438 -0.3045 -0.1320  0.5051
   85c3c     H2  977  -0.135  -0.008   2.360  0.4590 -0.9336  4.7413
   85c3c     H3  978  -0.051   0.119   2.025  1.4256 -1.1908  0.1045
   85c3c     H4  979  -0.154  -0.007   2.096 -2.7555  2.2581  0.8138
   85c3c     H5  980  -0.085   0.291   2.344 -0.1223  0.3620  1.2651
   85c3c     H6  981  -0.223   0.211   2.398  2.5199 -2.4316  2.7701
   85c3c     H7  982  -0.160   0.276   2.121 -2.7373  0.4012 -0.1345
   85c3c     H8  983  -0.288   0.167   2.168 -0.8849  2.3498  0.5072
   85c3c     H9  984   0.084   0.259   2.185 -0.6262 -0.3908 -0.2546
   85c3c    H10  985   0.178   0.144   2.300 -1.4696 -1.2938  0.9324
   85c3c    H11  986   0.183   0.150   2.118 -0.8377  0.1116 -0.9034
   85c3c    H12  987   0.112  -0.084   2.103 -1.7743 -1.1227  0.2457
   85c3c    H13  988   0.168  -0.079   2.272  0.2393  1.0157 -0.2201
   85c3c     C7  989   0.000  -0.208   2.213 -1.4830 -0.0433 -0.3355
   85c3c    H14  990  -0.066  -0.212   2.126 -0.3921 -3.0768 -1.1040
   85c3c    H15  991  -0.074  -0.207   2.293  1.0490 -0.1860  2.0888
   85c3c     C8  992   0.092  -0.332   2.210 -0.6700  0.4603 -0.1344
   85c3c    H16  993   0.157  -0.317   2.124 -0.0934 -0.2550  0.1747
   85c3c    H17  994   0.046  -0.429   2.191 -1.3042  0.7189  0.0360
   85c3c    H18  995   0.154  -0.346   2.298  1.8223  1.0693 -1.7335
   86c3c      N  996   0.815   1.319   2.742  0.2606  0.3428 -0.2148
   86c3c     C1  997   0.740   1.396   2.844 -0.4738  0.7602 -0.1398
   86c3c     C2  998   0.726   1.310   2.626 -0.0168 -0.2304  0.7844
   86c3c     C3  999   0.652   1.494   2.758  0.6389  0.1404 -0.4420
   86c3c     C4 1000   0.646   1.442   2.619 -0.2290  0.3836  0.0478
   86c3c     C5 1001   0.933   1.405   2.706  0.1953  0.1702 -0.4785
   86c3c     C6 1002   0.854   1.182   2.780  0.4833 -0.6934 -0.6255
   86c3c     H1 1003   0.795   1.439   2.928 -0.5194  0.5234  0.0125
   86c3c     H2 1004   0.665   1.333   2.890 -0.1059 -0.5077 -1.2659
   86c3c     H3 1005   0.785   1.310   2.534 -0.2120 -2.4524  0.6113
   86c3c     H4 1006   0.654   1.228   2.635 -0.1663 -0.3637 -1.2215
   86c3c     H5 1007   0.691   1.596   2.754 -0.0289  0.4290  0.1337
   86c3c     H6 1008   0.553   1.502   2.804  0.6952  2.0333 -0.6059
   86c3c     H7 1009   0.681   1.521   2.552  3.7335 -1.5487 -0.2760
   86c3c     H8 1010   0.543   1.436   2.584 -0.6021  3.4194  0.4425
   86c3c     H9 1011   0.983   1.353   2.624  2.0469  1.3593 -0.1210
   86c3c    H10 1012   0.903   1.504   2.673  0.8680  0.5356 -0.0068
   86c3c    H11 1013   1.011   1.420   2.780  0.9471 -1.5510 -0.8830
   86c3c    H12 1014   0.765   1.124   2.806 -0.2947  0.5836 -0.4341
   86c3c    H13 1015   0.907   1.134   2.698  2.9416  2.2412 -0.8385
   86c3c     C7 1016   0.932   1.177   2.918  0.1750  0.3288  0.8493
   86c3c    H14 1017   0.887   1.227   3.003  0.4872 -1.4400  2.0868
   86c3c    H15 1018   1.029   1.226   2.910  1.0987 -1.5713 -0.0976
   86c3c     C8 1019   0.943   1.030   2.975 -0.4927 -0.1159  0.0802
   86c3c    H16 1020   0.971   0.962   2.895  3.9310  0.9247  0.6556
   86c3c    H17 1021   0.850   1.018   3.032 -0.0373  1.4242  1.1797
   86c3c    H18 1022   1.023   1.026   3.048 -1.4511  1.0039  1.2246
   87c3c      N 1023   0.724   0.218   1.796  0.6902  0.1221 -0.3222
   87c3c     C1 1024   0.832   0.319   1.764  0.4229  0.1643  0.1941
   87c3c     C2 1025   0.651   0.198   1.666  0.3817  0.4169  0.4195
   87c3c     C3 1026   0.866   0.277   1.624  0.5871 -0.0490  0.1357
   87c3c     C4 1027   0.754   0.199   1.559  0.6898  0.4474  0.2202
   87c3c     C5 1028   0.794   0.093   1.844  0.0059 -0.3649 -0.2468
   87c3c     C6 1029   0.630   0.257   1.907 -0.1172  0.2791  0.5270
   87c3c     H1 1030   0.913   0.325   1.837  0.3735 -0.1203  0.2746
   87c3c     H2 1031   0.798   0.422   1.754 -1.9147 -0.5229  0.8860
   87c3c     H3 1032   0.581   0.116   1.648 -0.8548  1.4735  0.3598
   87c3c     H4 1033   0.594   0.288   1.647  0.7615  0.5371 -0.1897
   87c3c     H5 1034   0.953   0.212   1.613  0.7792  0.2140  0.0885
   87c3c     H6 1035   0.895   0.358   1.557  0.6355 -1.4620 -1.6075
   87c3c     H7 1036   0.798   0.108   1.520 -0.4453 -1.2273  2.7559
   87c3c     H8 1037   0.728   0.260   1.472  3.4013 -0.6857 -1.4315
   87c3c     H9 1038   0.833   0.099   1.946  1.0784 -0.3706 -0.6589
   87c3c    H10 1039   0.736   0.004   1.823  0.3625 -0.7356  0.3272
   87c3c    H11 1040   0.885   0.075   1.788  0.0402 -0.3226 -0.2054
   87c3c    H12 1041   0.574   0.165   1.926  0.4575 -0.0078  0.8459
   87c3c    H13 1042   0.682   0.277   2.001  1.9048  2.4601 -0.9936
   87c3c     C7 1043   0.544   0.377   1.887  0.2228  0.1798  0.0328
   87c3c    H14 1044   0.458   0.352   1.825 -0.0282  0.1321  0.3957
   87c3c    H15 1045   0.596   0.449   1.824 -1.3931  2.6390  1.3917
   87c3c     C8 1046   0.488   0.430   2.020  0.3356  0.4467  0.7433
   87c3c    H16 1047   0.440   0.355   2.083 -3.9312  1.0160 -1.6529
   87c3c    H17 1048   0.410   0.502   1.995  1.4858  1.5199  0.1689
   87c3c    H18 1049   0.570   0.475   2.076  0.2908  3.5371 -1.5239
   88c3c      N 1050   1.800   1.186   1.040  0.5162 -0.1881  0.8335
   88c3c     C1 1051   1.882   1.174   0.908 -0.5723 -0.3975 -0.0452
   88c3c     C2 1052   1.875   1.280   1.127  0.0866 -0.8630 -0.4660
   88c3c     C3 1053   1.952   1.302   0.889 -0.1857 -0.7812  0.6813
   88c3c     C4 1054   1.938   1.373   1.018 -0.5367 -0.1319  0.1038
   88c3c     C5 1055   1.676   1.255   1.014  0.4819  0.3757 -0.3812
   88c3c     C6 1056   1.767   1.052   1.097 -0.2772 -0.4451  0.0440
   88c3c     H1 1057   1.826   1.137   0.821 -1.7220 -2.0433  1.3591
   88c3c     H2 1058   1.962   1.102   0.923  0.3531  0.7176  0.4191
   88c3c     H3 1059   1.821   1.322   1.213  2.2960 -1.4779  1.2698
   88c3c     H4 1060   1.960   1.226   1.168  1.1631  0.9576 -0.2163
   88c3c     H5 1061   1.901   1.357   0.810  0.3740 -1.8701 -0.4564
   88c3c     H6 1062   2.057   1.300   0.859 -0.6824  1.2995 -1.3420
   88c3c     H7 1063   1.861   1.448   0.996 -0.7249 -0.6447 -1.0147
   88c3c     H8 1064   2.022   1.434   1.051 -0.8292 -0.7007  1.9436
   88c3c     H9 1065   1.607   1.196   0.954  0.7785 -1.0965  0.6784
   88c3c    H10 1066   1.616   1.269   1.104  0.1119  1.0800 -0.7380
   88c3c    H11 1067   1.679   1.357   0.976  0.6328  0.0188 -1.3393
   88c3c    H12 1068   1.684   1.071   1.165  0.9723 -0.3205  1.5391
   88c3c    H13 1069   1.713   0.995   1.021 -1.2958  2.9262 -1.9173
   88c3c     C7 1070   1.883   0.973   1.168  0.0888 -0.3487  0.4983
   88c3c    H14 1071   1.912   1.032   1.255  2.6145  0.0282 -0.5529
   88c3c    H15 1072   1.975   0.961   1.110  0.1529 -0.5439  0.6403
   88c3c     C8 1073   1.830   0.835   1.216 -0.4453  0.0142  0.9330
   88c3c    H16 1074   1.777   0.777   1.140  0.0659 -0.5152  0.9826
   88c3c    H17 1075   1.766   0.839   1.305 -1.0153  0.9978  0.4960
   88c3c    H18 1076   1.907   0.764   1.245 -0.3373  0.1741  1.0394
   89c3c      N 1077   2.481   2.657   0.330  0.3040 -0.1118  0.1705
   89c3c     C1 1078   2.607   2.621   0.396  0.1544  0.0169  0.4793
   89c3c     C2 1079   2.416   2.707   0.446 -0.0985  0.2428 -0.0515
   89c3c     C3 1080   2.641   2.731   0.509 -0.1179  0.3186 -0.2392
   89c3c     C4 1081   2.508   2.794   0.530 -0.3333  0.2752 -0.9439
   89c3c     C5 1082   2.499   2.768   0.232 -0.0636  0.0092  0.2257
   89c3c     C6 1083   2.425   2.537   0.265 -0.8032  0.7926 -0.0281
   89c3c     H1 1084   2.683   2.601   0.320 -0.0552 -0.1542  0.3114
   89c3c     H2 1085   2.598   2.527   0.450  0.4547  0.6685  1.6872
   89c3c     H3 1086   2.321   2.754   0.420 -0.3440  0.1235  0.6100
   89c3c     H4 1087   2.379   2.627   0.510 -1.7643  0.4614 -0.7080
   89c3c     H5 1088   2.705   2.816   0.484  0.1276  0.0322 -0.6007
   89c3c     H6 1089   2.683   2.685   0.598  1.8718 -1.5223 -2.0487
   89c3c     H7 1090   2.506   2.901   0.511  0.2231  0.6495  0.9878
   89c3c     H8 1091   2.474   2.786   0.633  1.1060 -1.3542 -0.5727
   89c3c     H9 1092   2.582   2.756   0.161  1.1086 -0.6702  1.6865
   89c3c    H10 1093   2.416   2.791   0.165 -0.0574  0.5272  0.3968
   89c3c    H11 1094   2.511   2.861   0.287 -1.4662 -1.2249  2.7258
   89c3c    H12 1095   2.360   2.562   0.181 -0.9731  0.2444 -0.0633
   89c3c    H13 1096   2.504   2.497   0.201 -0.7882 -0.7145  0.9017
   89c3c     C7 1097   2.360   2.419   0.340 -0.0057  0.0503 -0.0803
   89c3c    H14 1098   2.257   2.441   0.369 -0.3762 -1.2484 -0.3483
   89c3c    H15 1099   2.410   2.395   0.434 -0.3054 -1.0725 -0.1950
   89c3c     C8 1100   2.340   2.297   0.254 -0.0102  0.1406 -0.9137
   89c3c    H16 1101   2.284   2.216   0.302  0.1439  0.2578 -0.5320
   89c3c    H17 1102   2.430   2.255   0.211  0.7855  1.2539 -0.3556
   89c3c    H18 1103   2.275   2.323   0.171 -0.9711 -2.9561 -1.2037
   90c3c      N 1104   1.201   2.568   1.818  0.1054  0.1209 -0.0946
   90c3c     C1 1105   1.059   2.532   1.845  0.2790 -0.1354 -0.5117
   90c3c     C2 1106   1.192   2.702   1.774 -0.6830 -0.7515 -0.2088
   90c3c     C3 1107   1.002   2.654   1.912  0.2555 -0.2355 -0.0034
   90c3c     C4 1108   1.080   2.772   1.855  0.2594 -0.2938  0.0067
   90c3c     C5 1109   1.275   2.566   1.945  0.2616 -0.5560  0.0690
   90c3c     C6 1110   1.270   2.473   1.725  0.6133  0.1176  0.2605
   90c3c     H1 1111   1.040   2.451   1.914 -0.0580 -0.1389 -0.6115
   90c3c     H2 1112   0.995   2.523   1.757  1.4004 -2.0662 -1.1652
   90c3c     H3 1113   1.284   2.759   1.778  0.2557 -2.2129 -0.4040
   90c3c     H4 1114   1.154   2.703   1.671 -0.7381  1.0108 -0.1888
   90c3c     H5 1115   1.013   2.652   2.020 -1.0356  0.9838  0.1609
   90c3c     H6 1116   0.898   2.668   1.884  0.7869  3.5862 -0.4184
   90c3c     H7 1117   1.115   2.837   1.935  0.7924 -1.2945  0.6020
   90c3c     H8 1118   1.019   2.834   1.789  0.0405  0.8858  1.3002
   90c3c     H9 1119   1.261   2.472   1.998 -1.2738  0.3126  1.2830
   90c3c    H10 1120   1.379   2.587   1.924  0.4101 -0.5051  0.8284
   90c3c    H11 1121   1.245   2.641   2.019 -1.5728 -2.4654  1.3346
   90c3c    H12 1122   1.365   2.513   1.692  1.0989 -0.7784  0.5447
   90c3c    H13 1123   1.300   2.377   1.768 -3.6603 -1.5743 -0.2649
   90c3c     C7 1124   1.180   2.434   1.605  0.5057  0.4057  0.3609
   90c3c    H14 1125   1.127   2.518   1.561 -2.1879 -0.5354  1.7057
   90c3c    H15 1126   1.103   2.372   1.650 -1.3595  1.9748 -0.6406
   90c3c     C8 1127   1.261   2.357   1.492 -0.2258  0.0244  0.2517
   90c3c    H16 1128   1.342   2.296   1.531 -0.1481 -0.0319 -0.0002
   90c3c    H17 1129   1.302   2.432   1.424 -0.0563  0.4672  0.8364
   90c3c    H18 1130   1.203   2.293   1.426  1.4255 -0.8008 -0.4089
   91c3c      N 1131   2.393   0.924   2.786 -0.5915  0.2772  0.1121
   91c3c     C1 1132   2.479   1.041   2.759  0.2412 -0.3713 -0.6869
   91c3c     C2 1133   2.363   0.870   2.648  0.0354 -0.2196  0.1869
   91c3c     C3 1134   2.571   0.995   2.646 -0.3926 -0.1984  0.0423
   91c3c     C4 1135   2.498   0.891   2.567  0.1720  0.2168 -0.0269
   91c3c     C5 1136   2.468   0.817   2.854  0.9519  0.5900 -0.5165
   91c3c     C6 1137   2.273   0.957   2.864  0.4401  0.6862  0.0130
   91c3c     H1 1138   2.509   1.093   2.850  1.0745 -2.2770  0.1553
   91c3c     H2 1139   2.420   1.121   2.715 -1.0163 -0.8521  0.1034
   91c3c     H3 1140   2.323   0.769   2.634  0.2746 -0.3889  0.7119
   91c3c     H4 1141   2.296   0.936   2.593  0.0312 -1.6803 -1.6174
   91c3c     H5 1142   2.655   0.950   2.697  0.2968  0.9231 -0.0740
   91c3c     H6 1143   2.607   1.078   2.584 -0.5308  0.8414  1.3259
   91c3c     H7 1144   2.549   0.799   2.539 -0.2994 -0.0728  0.0629
   91c3c     H8 1145   2.474   0.925   2.466 -2.2046 -0.5505  0.2311
   91c3c     H9 1146   2.541   0.763   2.793 -0.0344  1.4904 -2.5241
   91c3c    H10 1147   2.526   0.854   2.938  1.4092  0.2842 -0.6899
   91c3c    H11 1148   2.393   0.751   2.897  0.3740  1.7831  0.3324
   91c3c    H12 1149   2.219   0.865   2.886  0.1709  0.7651 -0.3181
   91c3c    H13 1150   2.314   0.989   2.960  2.2223 -1.7526  0.1311
   91c3c     C7 1151   2.186   1.073   2.814  0.3941 -0.0546 -0.5318
   91c3c    H14 1152   2.189   1.098   2.708 -2.5265  2.0333 -0.1925
   91c3c    H15 1153   2.238   1.151   2.869 -1.4293  1.2238 -0.5812
   91c3c     C8 1154   2.039   1.062   2.865  0.0661  0.3283 -0.7017
   91c3c    H16 1155   1.988   0.979   2.817 -0.8858  0.8264 -0.5600
   91c3c    H17 1156   1.983   1.151   2.836  0.0350  0.2728 -0.8115
   91c3c    H18 1157   2.037   1.054   2.974 -0.4858 -2.6906 -0.8973
   92c3c      N 1158   0.982   1.965   0.620  0.4613  0.0506  0.5525
   92c3c     C1 1159   1.092   1.902   0.693 -0.6953 -0.1771 -0.1366
   92c3c     C2 1160   0.990   1.894   0.488 -0.1511 -0.0054  0.0397
   92c3c     C3 1161   1.198   1.863   0.598  0.1969  0.0441 -0.4243
   92c3c     C4 1162   1.130   1.841   0.464 -0.4054 -0.0698 -0.9104
   92c3c     C5 1163   0.856   1.934   0.683 -0.5301 -0.3757  0.0965
   92c3c     C6 1164   0.992   2.114   0.603 -1.2562 -0.2211  0.8128
   92c3c     H1 1165   1.053   1.813   0.744  0.8022 -1.4163 -1.1172
   92c3c     H2 1166   1.144   1.962   0.769  2.2534 -1.2786 -1.1983
   92c3c     H3 1167   0.916   1.813   0.486 -1.2968  1.0133  0.4709
   92c3c     H4 1168   0.956   1.956   0.406  0.7894 -0.1627 -0.4708
   92c3c     H5 1169   1.259   1.776   0.624  2.1234  1.0649 -1.4726
   92c3c     H6 1170   1.258   1.953   0.586  0.8420 -0.5099 -1.4138
   92c3c     H7 1171   1.130   1.734   0.440 -0.4647  0.1932 -2.1328
   92c3c     H8 1172   1.177   1.904   0.389  1.6797  1.2599  1.4605
   92c3c     H9 1173   0.827   1.828   0.687 -1.5719 -0.2189 -2.0906
   92c3c    H10 1174   0.849   1.973   0.784  2.4336 -1.2415  0.6988
   92c3c    H11 1175   0.772   1.964   0.620 -0.0787 -0.2705 -0.4615
   92c3c    H12 1176   0.914   2.140   0.532  1.2200  0.3939 -1.7681
   92c3c    H13 1177   0.966   2.170   0.693 -0.6941  1.2815  0.0652
   92c3c     C7 1178   1.130   2.182   0.568  0.1788  0.9654  0.0202
   92c3c    H14 1179   1.171   2.124   0.485  0.2643  0.4868  0.3909
   92c3c    H15 1180   1.201   2.164   0.649 -1.6503 -0.4540  1.3595
   92c3c     C8 1181   1.112   2.324   0.520  0.2663 -0.3596 -0.9225
   92c3c    H16 1182   1.040   2.334   0.439  1.0404  0.3759 -1.5223
   92c3c    H17 1183   1.208   2.361   0.485  0.6500 -1.2247 -0.7896
   92c3c    H18 1184   1.065   2.389   0.594  1.0839 -1.5171  0.6432
   93c3c      N 1185   0.171   2.764   0.711  0.0792 -0.4059  1.0944
   93c3c     C1 1186   0.309   2.703   0.716  0.4807 -0.0138  0.3224
   93c3c     C2 1187   0.139   2.767   0.851  0.0983 -0.0569 -0.5264
   93c3c     C3 1188   0.380   2.762   0.838 -0.5056 -0.3914 -0.3736
   93c3c     C4 1189   0.270   2.791   0.933  1.3086 -0.2073  0.5098
   93c3c     C5 1190   0.185   2.907   0.662  0.0604  1.3797 -0.2535
   93c3c     C6 1191   0.065   2.704   0.628 -0.6770  0.0701  0.2235
   93c3c     H1 1192   0.368   2.719   0.625 -0.3621  0.1120 -0.2085
   93c3c     H2 1193   0.295   2.598   0.738 -0.5106 -0.4486 -2.2108
   93c3c     H3 1194   0.061   2.841   0.872 -0.8593 -0.4522 -2.6028
   93c3c     H4 1195   0.087   2.676   0.885  0.5058 -0.0415  0.1544
   93c3c     H5 1196   0.439   2.853   0.827 -0.4038 -0.5457 -1.1293
   93c3c     H6 1197   0.450   2.694   0.887 -0.3447  0.0520  0.0072
   93c3c     H7 1198   0.278   2.892   0.972  2.6044  0.3614 -1.1822
   93c3c     H8 1199   0.267   2.719   1.015 -0.5148  0.3925  0.9843
   93c3c     H9 1200   0.277   2.961   0.685  0.5993  0.3227  0.1090
   93c3c    H10 1201   0.201   2.898   0.555 -0.0289 -0.4586 -0.1253
   93c3c    H11 1202   0.095   2.966   0.680  0.4851  2.5259 -1.8138
   93c3c    H12 1203  -0.025   2.760   0.654 -1.0959 -0.8679  0.8300
   93c3c    H13 1204   0.088   2.716   0.522  1.3177  1.2150  0.7535
   93c3c     C7 1205   0.035   2.552   0.651  0.6419  0.5343  0.6411
   93c3c    H14 1206  -0.008   2.542   0.751  0.2171  1.8666  0.5993
   93c3c    H15 1207   0.125   2.491   0.646  1.2400  1.4329  0.3375
   93c3c     C8 1208  -0.077   2.504   0.556  0.1862  0.2734 -0.5795
   93c3c    H16 1209  -0.153   2.478   0.629  1.6253 -0.4306  0.6958
   93c3c    H17 1210  -0.051   2.407   0.513  0.4322 -0.2919  0.8404
   93c3c    H18 1211  -0.118   2.568   0.478  1.0158  1.3637 -0.1387
   94c3c      N 1212   1.623   0.189   2.008 -1.0586  0.0588  0.1014
   94c3c     C1 1213   1.608   0.191   2.157  0.2691 -0.0130  0.0805
   94c3c     C2 1214   1.633   0.328   1.969 -0.1415 -0.9020 -0.0753
   94c3c     C3 1215   1.689   0.301   2.205  0.2143 -0.5586  0.4563
   94c3c     C4 1216   1.706   0.393   2.086 -0.4423  0.0530 -0.4178
   94c3c     C5 1217   1.752   0.120   1.973  0.3201  0.0976  0.2251
   94c3c     C6 1218   1.516   0.116   1.945 -0.1452  0.4266  0.4272
   94c3c     H1 1219   1.647   0.109   2.218  1.9960  1.8085  1.5073
   94c3c     H2 1220   1.506   0.207   2.193  0.2932  2.5439 -0.8717
   94c3c     H3 1221   1.686   0.346   1.876 -0.7523 -0.7183 -0.3883
   94c3c     H4 1222   1.539   0.382   1.957 -0.9408 -1.6482  2.4219
   94c3c     H5 1223   1.783   0.273   2.253  0.5685 -1.5250 -0.7573
   94c3c     H6 1224   1.631   0.350   2.283 -0.9826 -0.6524 -0.3584
   94c3c     H7 1225   1.815   0.393   2.080 -0.2802 -0.5971  2.0204
   94c3c     H8 1226   1.680   0.495   2.114  2.5932  0.9260 -0.5876
   94c3c     H9 1227   1.755   0.016   2.006 -2.6150 -0.3496 -0.8297
   94c3c    H10 1228   1.774   0.112   1.867  0.2703 -1.5300  0.3267
   94c3c    H11 1229   1.835   0.170   2.024 -0.1156  0.0873  0.9594
   94c3c    H12 1230   1.527   0.130   1.837 -0.8372 -1.0169  0.1636
   94c3c    H13 1231   1.534   0.012   1.970  2.0377  0.5446 -0.5800
   94c3c     C7 1232   1.372   0.155   1.972  0.2136  0.0621  1.0914
   94c3c    H14 1233   1.365   0.259   1.939  1.0732 -0.5397 -1.0668
   94c3c    H15 1234   1.345   0.156   2.078 -1.0893 -1.8329  0.7971
   94c3c     C8 1235   1.270   0.086   1.889  0.8121  0.0307 -0.0499
   94c3c    H16 1236   1.272  -0.017   1.925 -1.0084 -0.5132 -1.4613
   94c3c    H17 1237   1.298   0.087   1.783 -1.2324  0.2408 -0.6046
   94c3c    H18 1238   1.174   0.137   1.886  1.0384  0.4135 -3.9560
   95c3c      N 1239   0.855   1.929   1.534  0.1632 -0.5754 -0.0370
   95c3c     C1 1240   0.940   2.033   1.474 -0.2449 -0.1008 -0.7614
   95c3c     C2 1241   0.950   1.818   1.527  0.3503  0.1749  0.4366
   95c3c     C3 1242   1.082   2.024   1.531 -0.0075  0.7237  0.4894
   95c3c     C4 1243   1.088   1.876   1.563  0.0274 -0.1542 -0.0009
   95c3c     C5 1244   0.814   1.949   1.678  0.1052  0.7980  0.2968
   95c3c     C6 1245   0.717   1.905   1.466 -0.0289 -0.5526 -0.0303
   95c3c     H1 1246   0.897   2.132   1.491 -0.8852 -0.5860  0.5489
   95c3c     H2 1247   0.952   2.029   1.366  1.5454  1.0843 -0.6296
   95c3c     H3 1248   0.920   1.736   1.592 -1.0721  0.2694 -0.0844
   95c3c     H4 1249   0.954   1.781   1.424 -2.6641  1.8159 -0.3312
   95c3c     H5 1250   1.090   2.089   1.618 -2.0358  1.9255 -0.1930
   95c3c     H6 1251   1.160   2.059   1.463  0.8682 -0.2166  0.9942
   95c3c     H7 1252   1.102   1.866   1.671 -2.8812 -0.1043  0.4360
   95c3c     H8 1253   1.173   1.826   1.517  0.0343 -1.4422  1.3782
   95c3c     H9 1254   0.746   2.033   1.687 -0.9675 -0.1820  1.5925
   95c3c    H10 1255   0.771   1.858   1.722  1.8114 -0.1707  0.0156
   95c3c    H11 1256   0.903   1.990   1.726  0.6282  0.9477 -0.7789
   95c3c    H12 1257   0.653   1.835   1.521 -0.2745  0.8027  1.4204
   95c3c    H13 1258   0.661   1.998   1.463 -1.6411 -1.5042  0.1281
   95c3c     C7 1259   0.726   1.842   1.318  0.6366 -0.1001 -0.1925
   95c3c    H14 1260   0.772   1.743   1.313  0.0054 -0.3717 -0.6112
   95c3c    H15 1261   0.783   1.904   1.248  1.2419  0.9354  1.1946
   95c3c     C8 1262   0.598   1.833   1.241 -0.1642 -0.5322  0.1091
   95c3c    H16 1263   0.527   1.915   1.253  0.6791  0.6296 -2.4786
   95c3c    H17 1264   0.550   1.740   1.271 -0.8673 -0.1033  0.3229
   95c3c    H18 1265   0.614   1.821   1.134  1.1273 -0.1075  0.2475
   96c3c      N 1266   0.382   1.371   1.249 -0.0078  0.5947 -0.1419
   96c3c     C1 1267   0.340   1.288   1.364 -0.0367 -0.4000 -0.1999
   96c3c     C2 1268   0.525   1.370   1.264  0.2638  0.3692 -0.0006
   96c3c     C3 1269   0.444   1.172   1.395  0.8792  0.2333 -0.1364
   96c3c     C4 1270   0.563   1.233   1.325 -0.1305  0.4674  0.0854
   96c3c     C5 1271   0.363   1.300   1.121  0.2821  0.1826  0.7869
   96c3c     C6 1272   0.323   1.502   1.240  0.0954 -0.3654  0.0190
   96c3c     H1 1273   0.237   1.254   1.354  0.0782 -0.2850 -1.9113
   96c3c     H2 1274   0.337   1.354   1.450 -0.3870  0.6619 -1.0051
   96c3c     H3 1275   0.579   1.387   1.170 -1.5116 -2.0535 -1.5113
   96c3c     H4 1276   0.570   1.446   1.328 -0.0533 -0.6340  1.4415
   96c3c     H5 1277   0.416   1.083   1.340  0.1248  1.3363 -1.5710
   96c3c     H6 1278   0.460   1.141   1.498  0.7776  1.9954  0.4353
   96c3c     H7 1279   0.589   1.165   1.244 -0.0318 -0.2591  0.7138
   96c3c     H8 1280   0.652   1.254   1.385  0.1754 -0.8131  0.0967
   96c3c     H9 1281   0.258   1.271   1.115  0.3101 -0.3048  2.3187
   96c3c    H10 1282   0.399   1.352   1.032  0.4121 -0.0934  0.6785
   96c3c    H11 1283   0.402   1.199   1.112 -1.0450 -0.3684  1.1323
   96c3c    H12 1284   0.383   1.550   1.162 -1.5076 -1.5040 -1.9563
   96c3c    H13 1285   0.219   1.500   1.209 -0.5241 -1.2100  2.0803
   96c3c     C7 1286   0.349   1.597   1.363  0.0900 -0.7746  0.2944
   96c3c    H14 1287   0.451   1.600   1.402 -0.9665  0.1990  3.1254
   96c3c    H15 1288   0.294   1.545   1.443 -0.6700  0.8437  0.8481
   96c3c     C8 1289   0.281   1.736   1.344  0.2080  0.7342 -0.3764
   96c3c    H16 1290   0.333   1.788   1.264  2.3570 -2.4931 -1.1718
   96c3c    H17 1291   0.288   1.808   1.426  2.4369  1.6447 -1.3485
   96c3c    H18 1292   0.176   1.718   1.320  0.2503 -1.2688  0.8345
   97c3c      N 1293   2.817   1.513   2.520 -0.2995  0.5552  0.0041
   97c3c     C1 1294   2.936   1.439   2.556  0.0071  0.4522  0.2555
   97c3c     C2 1295   2.775   1.470   2.385 -0.2201 -0.3034 -0.0539
   97c3c     C3 1296   2.919   1.301   2.493 -0.3794 -0.2356  0.1758
   97c3c     C4 1297   2.807   1.321   2.383  0.2304 -0.0826  0.7547
   97c3c     C5 1298   2.712   1.478   2.619  0.8462 -0.1354  0.6825
   97c3c     C6 1299   2.824   1.660   2.533 -0.6220 -0.2239 -0.7314
   97c3c     H1 1300   2.954   1.428   2.663  0.6935  0.0742  0.1063
   97c3c     H2 1301   3.027   1.490   2.525  0.7296  0.8435  2.8575
   97c3c     H3 1302   2.669   1.497   2.373 -0.2627 -0.7583 -0.7366
   97c3c     H4 1303   2.834   1.523   2.310  0.8821  0.3678  1.2655
   97c3c     H5 1304   2.874   1.244   2.575 -0.1770 -1.4131 -0.5194
   97c3c     H6 1305   3.008   1.247   2.460 -0.6159 -1.1222  0.9633
   97c3c     H7 1306   2.715   1.267   2.409 -0.3726 -0.4376 -1.9407
   97c3c     H8 1307   2.829   1.307   2.277 -2.0684  1.5544  0.0211
   97c3c     H9 1308   2.751   1.505   2.717 -2.3591  0.1203  1.9419
   97c3c    H10 1309   2.627   1.544   2.603  0.3230 -0.8494  0.5104
   97c3c    H11 1310   2.683   1.373   2.624 -0.2780  0.1703  0.7473
   97c3c    H12 1311   2.729   1.704   2.503  0.1979  0.1089 -2.9425
   97c3c    H13 1312   2.837   1.690   2.636  0.2043 -0.3948 -0.7823
   97c3c     C7 1313   2.931   1.733   2.455  0.3098  0.2918 -0.0697
   97c3c    H14 1314   2.885   1.745   2.356 -1.5170  3.6132  1.0801
   97c3c    H15 1315   3.021   1.672   2.447 -0.1778 -0.3704 -0.4906
   97c3c     C8 1316   2.970   1.872   2.493 -0.2309 -0.4834  0.0516
   97c3c    H16 1317   2.892   1.944   2.467 -2.3679 -2.1421  1.7178
   97c3c    H17 1318   3.059   1.908   2.442 -0.5750 -0.1962 -0.3526
   97c3c    H18 1319   2.987   1.883   2.600  0.8670  0.5795 -0.2212
   98c3c      N 1320   1.255   0.933   0.810 -0.5206 -0.2417 -0.3509
   98c3c     C1 1321   1.131   0.899   0.749 -0.5793  0.3547  0.3947
   98c3c     C2 1322   1.333   0.972   0.689  0.4089 -0.0617 -0.3207
   98c3c     C3 1323   1.098   1.011   0.650  0.7304  0.2044 -0.1129
   98c3c     C4 1324   1.236   1.067   0.610  0.0772 -0.0811 -0.1686
   98c3c     C5 1325   1.239   1.054   0.892 -0.0439 -1.0227 -0.5450
   98c3c     C6 1326   1.330   0.826   0.883  0.0216  0.4369 -0.3428
   98c3c     H1 1327   1.046   0.888   0.817 -0.3156 -0.0622  0.6640
   98c3c     H2 1328   1.135   0.804   0.696  0.6901  0.9145 -0.5201
   98c3c     H3 1329   1.428   1.021   0.712 -0.0667  0.8244 -0.2484
   98c3c     H4 1330   1.350   0.887   0.623 -0.9172 -0.7872  0.2679
   98c3c     H5 1331   1.041   1.094   0.692  2.0867  1.3174 -0.4031
   98c3c     H6 1332   1.036   0.970   0.570 -0.6432  0.5063  0.8003
   98c3c     H7 1333   1.256   1.170   0.637 -0.9813 -0.8493  3.9805
   98c3c     H8 1334   1.257   1.067   0.503 -0.1784  1.4097 -0.2219
   98c3c     H9 1335   1.178   1.050   0.982 -0.5476  0.6089 -0.8020
   98c3c    H10 1336   1.338   1.078   0.931 -0.1328 -2.5663  0.6837
   98c3c    H11 1337   1.198   1.140   0.841  0.0464 -0.9725 -0.5329
   98c3c    H12 1338   1.426   0.865   0.916  0.5996 -1.1781 -0.0878
   98c3c    H13 1339   1.278   0.801   0.976 -1.3318  1.3521 -0.8269
   98c3c     C7 1340   1.353   0.686   0.820 -0.8157 -0.3913 -0.0769
   98c3c    H14 1341   1.380   0.686   0.714  1.2305  1.6090  0.3995
   98c3c    H15 1342   1.258   0.633   0.825 -1.0609 -0.0425 -0.9826
   98c3c     C8 1343   1.444   0.590   0.906  0.3907 -0.1809  0.7847
   98c3c    H16 1344   1.461   0.498   0.849 -2.7579  0.4094 -1.2576
   98c3c    H17 1345   1.386   0.555   0.991  0.0854 -0.3251  0.5180
   98c3c    H18 1346   1.541   0.630   0.934 -0.3030  1.6672  0.5644
   99c3c      N 1347   1.440   1.573   1.384  0.3078 -0.2218  0.4531
   99c3c     C1 1348   1.443   1.695   1.302 -0.0170  0.0634 -0.6682
   99c3c     C2 1349   1.522   1.471   1.308  0.7010 -0.0376  0.7783
   99c3c     C3 1350   1.591   1.698   1.253 -0.0944 -0.5059 -0.2819
   99c3c     C4 1351   1.631   1.553   1.231 -0.8988 -0.4585  0.2589
   99c3c     C5 1352   1.513   1.588   1.511  0.1060  0.1591 -0.1284
   99c3c     C6 1353   1.302   1.517   1.414 -0.0957 -0.2443 -0.2951
   99c3c     H1 1354   1.409   1.779   1.362 -0.6014 -0.5859 -0.0729
   99c3c     H2 1355   1.382   1.689   1.212  2.3989 -1.2867 -2.2748
   99c3c     H3 1356   1.571   1.399   1.373  0.4410 -1.5402 -0.6712
   99c3c     H4 1357   1.465   1.407   1.241  0.8337  0.9278 -0.2605
   99c3c     H5 1358   1.652   1.735   1.335 -1.7313  0.7138  0.4011
   99c3c     H6 1359   1.606   1.756   1.162  1.7627 -1.0191 -0.3228
   99c3c     H7 1360   1.726   1.525   1.276 -0.4446 -0.0715 -0.4442
   99c3c     H8 1361   1.633   1.537   1.123 -2.6790 -1.5651  0.3709
   99c3c     H9 1362   1.622   1.598   1.504  0.3691 -1.9162  0.6957
   99c3c    H10 1363   1.473   1.670   1.570 -2.0875 -0.7129 -0.3770
   99c3c    H11 1364   1.494   1.496   1.567 -0.1924 -0.1665 -0.7563
   99c3c    H12 1365   1.300   1.412   1.442  0.7809  0.0712  0.9921
   99c3c    H13 1366   1.271   1.573   1.502  0.9882 -1.2290  0.7297
   99c3c     C7 1367   1.196   1.522   1.299  0.1187 -0.5864 -0.8821
   99c3c    H14 1368   1.224   1.453   1.220  1.9190 -2.3687  1.2429
   99c3c    H15 1369   1.178   1.623   1.260 -2.6720 -0.8791 -0.4896
   99c3c     C8 1370   1.059   1.470   1.344  0.5932  0.0308 -0.1441
   99c3c    H16 1371   1.027   1.502   1.443 -1.4150 -0.2075 -0.6823
   99c3c    H17 1372   1.055   1.361   1.350 -1.4564  0.1837  2.6649
   99c3c    H18 1373   0.980   1.493   1.272 -0.4229  1.2283  1.3105
  100c3c      N 1374   0.418   0.404   3.004  0.5463  0.5363 -0.6485
  100c3c     C1 1375   0.321   0.411   3.120 -0.0735  0.4016  0.2118
  100c3c     C2 1376   0.376   0.281   2.925 -0.1202 -0.3245  0.0259
  100c3c     C3 1377   0.189   0.343   3.061 -0.1901 -0.3689 -0.7744
  100c3c     C4 1378   0.233   0.249   2.950 -0.5944  0.5054 -0.6659
  100c3c     C5 1379   0.386   0.517   2.916 -0.3173  0.1822 -1.0696
  100c3c     C6 1380   0.565   0.414   3.037  0.2426 -0.5871  0.0812
  100c3c     H1 1381   0.292   0.514   3.140  2.0703  0.9589  0.5165
  100c3c     H2 1382   0.353   0.357   3.209 -1.8147  1.5541  1.5655
  100c3c     H3 1383   0.397   0.295   2.819 -1.1992  1.8827  0.0817
  100c3c     H4 1384   0.428   0.189   2.953 -0.2304 -0.4304 -0.1209
  100c3c     H5 1385   0.125   0.423   3.024 -0.8200 -0.2397  0.5426
  100c3c     H6 1386   0.137   0.294   3.143 -1.4302  0.7075 -0.9115
  100c3c     H7 1387   0.169   0.261   2.862 -0.0320 -1.7047 -1.4123
  100c3c     H8 1388   0.228   0.143   2.976  0.2172  0.4246 -0.8250
  100c3c     H9 1389   0.401   0.607   2.976  1.4497 -0.0830 -1.1123
  100c3c    H10 1390   0.449   0.522   2.828  1.4715 -1.9310  0.0292
  100c3c    H11 1391   0.284   0.526   2.878 -1.2180  1.0390  1.3916
  100c3c    H12 1392   0.623   0.414   2.945 -0.3560  1.4970 -0.3385
  100c3c    H13 1393   0.580   0.512   3.083  0.4883 -0.7010  0.2423
  100c3c     C7 1394   0.619   0.315   3.137 -0.0468  0.1442 -0.5791
  100c3c    H14 1395   0.579   0.213   3.133  1.5500 -0.5566  0.6626
  100c3c    H15 1396   0.589   0.358   3.232 -0.2321  1.6428 -1.3071
  100c3c     C8 1397   0.774   0.316   3.137  0.2782  0.7091  0.6741
  100c3c    H16 1398   0.815   0.300   3.237 -0.8000 -3.1598  0.5721
  100c3c    H17 1399   0.823   0.406   3.100  0.9161  1.6056  3.4975
  100c3c    H18 1400   0.811   0.237   3.072 -1.7989 -0.5347  0.9536
  101fsi     F1 1401   2.069   2.230   1.079  0.3245  0.0066  0.1873
  101fsi     S1 1402   1.915   2.249   1.077  0.5206 -0.3890 -0.0182
  101fsi      N 1403   1.899   2.394   1.137 -1.0962 -0.7597  0.4027
  101fsi     O1 1404   1.886   2.227   0.935  0.1492 -0.3479 -0.0964
  101fsi     O2 1405   1.869   2.142   1.164  0.5712 -0.1755  0.4633
  101fsi     S2 1406   1.902   2.535   1.065  0.1036  0.1057  0.1345
  101fsi     O3 1407   1.869   2.646   1.147  0.1790 -0.4672  0.6502
  101fsi     O4 1408   1.848   2.532   0.933 -0.3743 -0.4187  0.4953
  101fsi     F2 1409   2.051   2.552   1.037 -0.4220 -0.1282 -0.2446
  102fsi     F1 1410   1.723   0.105   2.510 -0.6425  0.0077 -0.1457
  102fsi     S1 1411   1.587   0.105   2.600 -0.4614 -0.3653 -0.2188
  102fsi      N 1412   1.545   0.253   2.604  0.4608  0.6990 -0.6536
  102fsi     O1 1413   1.504   0.011   2.527  0.1679 -0.0676 -0.3262
  102fsi     O2 1414   1.644   0.055   2.722  0.1882 -0.2093 -0.3308
  102fsi     S2 1415   1.434   0.325   2.529  0.2478 -0.0041  0.1756
  102fsi     O3 1416   1.348   0.243   2.451  0.1430  0.1779 -0.4564
  102fsi     O4 1417   1.486   0.442   2.465 -0.1928  0.1723 -0.0309
  102fsi     F2 1418   1.337   0.373   2.644  0.5281  0.8249  0.0066
  103fsi     F1 1419   0.061   0.587   1.221 -0.4110  0.4003 -0.1157
  103fsi     S1 1420   0.115   0.631   1.080  0.4753  0.0234 -0.2719
  103fsi      N 1421   0.267   0.656   1.111  0.1598  0.3466 -0.4826
  103fsi     O1 1422   0.090   0.520   0.994  0.2953 -0.0648 -0.4033
  103fsi     O2 1423   0.038   0.751   1.050  0.2000  0.1908  0.3639
  103fsi     S2 1424   0.334   0.784   1.173 -0.0131 -0.2562 -0.2610
  103fsi     O3 1425   0.249   0.896   1.145 -0.3023 -0.2561  0.1586
  103fsi     O4 1426   0.468   0.793   1.125 -0.5003  0.0000 -0.2562
  103fsi     F2 1427   0.345   0.772   1.324  0.1820 -0.0433  0.4213
  104fsi     F1 1428   0.643   1.478   0.797 -0.0279 -0.0807 -0.0779
  104fsi     S1 1429   0.697   1.596   0.879  0.0561 -0.1829 -0.3165
  104fsi      N 1430   0.608   1.717   0.830  0.0069  0.3854 -0.1727
  104fsi     O1 1431   0.683   1.568   1.014 -0.4832  1.0122 -0.0529
  104fsi     O2 1432   0.831   1.619   0.827  0.5509 -0.1873 -0.0095
  104fsi     S2 1433   0.453   1.733   0.850 -0.3086  0.2263 -0.1574
  104fsi     O3 1434   0.414   1.845   0.939  0.2625  0.2177  0.8612
  104fsi     O4 1435   0.391   1.604   0.868  0.5791 -0.2105 -0.0532
  104fsi     F2 1436   0.405   1.778   0.711 -0.2273  0.4440  0.0416
  105fsi     F1 1437   0.582   2.015   0.200  0.7925 -0.1731  0.0173
  105fsi     S1 1438   0.707   1.980   0.294  0.2584 -0.1700 -0.0063
  105fsi      N 1439   0.812   1.921   0.194  0.1613 -0.0806 -0.4665
  105fsi     O1 1440   0.740   2.106   0.347  0.3861  0.4957 -0.4450
  105fsi     O2 1441   0.656   1.878   0.382  0.5879 -0.2620  0.2486
  105fsi     S2 1442   0.813   1.785   0.119  0.2290  0.1564 -0.0508
  105fsi     O3 1443   0.895   1.786   0.000 -0.0909  0.0492 -0.4671
  105fsi     O4 1444   0.682   1.727   0.108 -0.0944 -0.2837 -0.2735
  105fsi     F2 1445   0.892   1.692   0.220 -0.1712 -0.0906  0.3872
  106fsi     F1 1446   0.167   2.022   2.072 -0.0855  0.2147 -0.3620
  106fsi     S1 1447   0.146   1.906   1.968 -0.2387 -0.4946 -0.3363
  106fsi      N 1448   0.273   1.923   1.872  0.0721  0.3954  0.6237
  106fsi     O1 1449   0.151   1.787   2.055 -0.4821  0.0173  0.0651
  106fsi     O2 1450   0.024   1.933   1.893 -1.0933  0.4640  0.7565
  106fsi     S2 1451   0.393   1.819   1.859 -0.0964 -0.2572 -0.2093
  106fsi     O3 1452   0.423   1.758   1.986 -0.0700 -0.0129 -0.2886
  106fsi     O4 1453   0.501   1.874   1.784  0.2020  0.8096 -0.5070
  106fsi     F2 1454   0.328   1.714   1.755 -0.2778 -0.0437 -0.1741
  107fsi     F1 1455   1.434   0.165   0.379 -0.1097  0.1134 -0.1157
  107fsi     S1 1456   1.315   0.067   0.405 -0.2298  0.1783 -0.0468
  107fsi      N 1457   1.219   0.145   0.495  0.2541  0.1928  0.4278
  107fsi     O1 1458   1.267   0.038   0.275 -0.4369  0.4020 -0.0841
  107fsi     O2 1459   1.378  -0.035   0.483  0.4009 -0.5727 -0.3351
  107fsi     S2 1460   1.116   0.254   0.455 -0.3896  0.0295  0.1371
  107fsi     O3 1461   1.108   0.277   0.311  0.3672 -0.3039 -0.8473
  107fsi     O4 1462   1.124   0.365   0.549  0.5864 -0.0748 -0.5380
  107fsi     F2 1463   0.978   0.183   0.478  0.7631  0.7790  0.1399
  108fsi     F1 1464   1.738   2.321   2.336  0.3910  0.0654  0.1567
  108fsi     S1 1465   1.680   2.455   2.395  0.1292  0.0742  0.0292
  108fsi      N 1466   1.778   2.493   2.511  0.1227  0.2668  0.1854
  108fsi     O1 1467   1.684   2.541   2.280  0.0752 -0.4445  0.2912
  108fsi     O2 1468   1.542   2.423   2.434 -0.2713  0.5870 -0.2602
  108fsi     S2 1469   1.876   2.612   2.526 -0.1330  0.1897 -0.0989
  108fsi     O3 1470   1.901   2.687   2.404 -0.1191  0.1323 -0.4662
  108fsi     O4 1471   1.989   2.586   2.616 -0.0341 -0.3079 -0.0187
  108fsi     F2 1472   1.784   2.706   2.612  0.0011  0.0084 -0.3393
  109fsi     F1 1473   2.874   0.544   2.301 -0.1860  0.1893  0.3170
  109fsi     S1 1474   2.726   0.548   2.312 -0.5232 -0.0233 -0.3044
  109fsi      N 1475   2.701   0.479   2.451  0.9480  0.0036 -0.0915
  109fsi     O1 1476   2.689   0.686   2.295  0.4078  0.1454  0.6416
  109fsi     O2 1477   2.688   0.458   2.211  0.2838  0.3805 -0.1406
  109fsi     S2 1478   2.723   0.524   2.598  0.2368 -0.0419  0.3990
  109fsi     O3 1479   2.601   0.512   2.669  0.3480 -0.3371 -0.3709
  109fsi     O4 1480   2.787   0.648   2.610 -0.9747  0.0258 -0.2564
  109fsi     F2 1481   2.822   0.421   2.648 -0.0353 -0.6448  0.2986
  110fsi     F1 1482   2.731   2.441   1.795 -0.4769  0.5451 -0.3629
  110fsi     S1 1483   2.879   2.505   1.820 -0.1748  0.2244 -0.3230
  110fsi      N 1484   2.930   2.429   1.950  0.0603 -0.6923 -0.1502
  110fsi     O1 1485   2.954   2.466   1.699  0.0955  0.3820 -0.2247
  110fsi     O2 1486   2.855   2.643   1.848  0.1907 -0.4721 -0.2146
  110fsi     S2 1487   2.997   2.296   1.973 -0.2347 -0.5776 -0.2038
  110fsi     O3 1488   3.083   2.264   1.864  0.3498 -0.4923  0.3505
  110fsi     O4 1489   2.914   2.195   2.032 -0.3459 -0.5531 -0.2659
  110fsi     F2 1490   3.097   2.334   2.089  0.1864 -0.7821  0.1244
  111fsi     F1 1491   0.948   2.602   1.185  0.4933  0.0583  0.1190
  111fsi     S1 1492   0.905   2.574   1.043 -0.1341  0.3084  0.2898
  111fsi      N 1493   0.911   2.721   0.986  0.0551 -0.0712  0.5980
  111fsi     O1 1494   1.016   2.498   0.994  0.1843 -0.0205 -0.0682
  111fsi     O2 1495   0.772   2.522   1.049 -0.2201  0.3175 -0.2690
  111fsi     S2 1496   0.791   2.818   0.964  0.0499  0.1383 -0.4421
  111fsi     O3 1497   0.832   2.952   0.917  0.0453 -0.8858 -0.6618
  111fsi     O4 1498   0.692   2.815   1.071  0.1707 -0.5254  0.3218
  111fsi     F2 1499   0.724   2.740   0.840  0.3514  0.5480 -0.3385
  112fsi     F1 1500   2.616   1.337   0.649  0.6149  0.2475  0.4347
  112fsi     S1 1501   2.569   1.477   0.657 -0.2373 -0.4737 -0.1406
  112fsi      N 1502   2.414   1.467   0.660  0.0865  0.4318  0.5477
  112fsi     O1 1503   2.627   1.526   0.784 -0.2559  0.2639 -0.4912
  112fsi     O2 1504   2.620   1.537   0.538  0.0332  0.3738 -0.5486
  112fsi     S2 1505   2.302   1.564   0.610 -0.0237  0.2374  0.1946
  112fsi     O3 1506   2.356   1.693   0.577 -0.3451 -0.1324 -0.2709
  112fsi     O4 1507   2.183   1.564   0.694 -0.4096 -0.1102  0.1363
  112fsi     F2 1508   2.254   1.493   0.476  0.3570  0.4225 -0.2533
  113fsi     F1 1509   1.403   1.207   1.451 -0.3330 -0.5033  0.3141
  113fsi     S1 1510   1.301   1.120   1.370 -0.0737 -0.1001 -0.3646
  113fsi      N 1511   1.365   0.973   1.386 -0.0577 -0.0370  0.1247
  113fsi     O1 1512   1.180   1.142   1.445  0.0625 -0.1793  0.4089
  113fsi     O2 1513   1.312   1.173   1.241 -0.0876  0.1976 -0.3120
  113fsi     S2 1514   1.417   0.872   1.281  0.2399 -0.2525 -0.1134
  113fsi     O3 1515   1.487   0.921   1.164  0.1204  0.4589 -0.3200
  113fsi     O4 1516   1.323   0.768   1.251 -0.2858  0.1322  0.1688
  113fsi     F2 1517   1.530   0.810   1.362 -0.0397  0.9569  0.0599
  114fsi     F1 1518   1.695   2.433   0.231 -0.0724 -0.6837  0.7094
  114fsi     S1 1519   1.597   2.338   0.294 -0.5074 -0.1931  0.0996
  114fsi      N 1520   1.604   2.376   0.448 -0.1688  0.7038 -0.3787
  114fsi     O1 1521   1.473   2.376   0.228 -0.7525 -0.2468  0.0408
  114fsi     O2 1522   1.655   2.210   0.261 -1.0350 -0.7928 -0.3842
  114fsi     S2 1523   1.524   2.480   0.528 -0.0878  0.1337  0.0329
  114fsi     O3 1524   1.441   2.562   0.450 -0.1172  0.4232 -0.4409
  114fsi     O4 1525   1.606   2.550   0.627 -0.0317 -0.9021 -0.0002
  114fsi     F2 1526   1.420   2.407   0.607  0.6911 -0.3564 -0.0475
  115fsi     F1 1527   0.561   1.136   1.748  0.5602  0.4119 -0.4356
  115fsi     S1 1528   0.706   1.200   1.729  0.0849  0.2870  0.1296
  115fsi      N 1529   0.690   1.325   1.629  0.3117 -0.1642  0.1691
  115fsi     O1 1530   0.735   1.246   1.864 -0.2865  0.1443  0.0955
  115fsi     O2 1531   0.784   1.096   1.664 -0.4552  0.0678 -0.0131
  115fsi     S2 1532   0.652   1.475   1.644 -0.7228  0.3143  0.5904
  115fsi     O3 1533   0.704   1.556   1.538 -0.1327  0.4806  0.1858
  115fsi     O4 1534   0.683   1.519   1.773 -0.6580 -0.9566 -0.2811
  115fsi     F2 1535   0.499   1.485   1.641 -0.1046  0.2008  0.4601
  116fsi     F1 1536   1.971   2.428   0.404 -0.4742  0.3059 -0.4015
  116fsi     S1 1537   1.970   2.297   0.493 -0.0150 -0.2380 -0.1209
  116fsi      N 1538   2.114   2.299   0.553  0.3665 -0.1277  0.0985
  116fsi     O1 1539   1.870   2.316   0.593 -0.1358  0.2219  0.1421
  116fsi     O2 1540   1.952   2.192   0.395  0.0243 -0.7006 -0.0341
  116fsi     S2 1541   2.162   2.363   0.689  0.0896 -0.0938  0.6950
  116fsi     O3 1542   2.070   2.457   0.751 -0.3366 -0.1043 -0.4070
  116fsi     O4 1543   2.298   2.416   0.679  0.1942  0.1852  0.1520
  116fsi     F2 1544   2.175   2.239   0.788  0.2143  0.3284  0.4113
  117fsi     F1 1545   2.352   2.777   2.758 -0.3816 -0.2256  0.2341
  117fsi     S1 1546   2.374   2.648   2.661 -0.5728  0.4592  0.0829
  117fsi      N 1547   2.520   2.612   2.687 -0.5137  0.2957 -0.2263
  117fsi     O1 1548   2.286   2.547   2.712  0.0769 -0.3883 -0.2655
  117fsi     O2 1549   2.361   2.688   2.525  0.0287  0.4353 -0.1203
  117fsi     S2 1550   2.586   2.569   2.824 -0.0428  0.2437 -0.1100
  117fsi     O3 1551   2.511   2.594   2.945  0.1181 -0.1462  0.6535
  117fsi     O4 1552   2.724   2.603   2.827 -0.0845 -0.2665 -0.4368
  117fsi     F2 1553   2.590   2.406   2.815 -0.4477 -0.2891  0.7334
  118fsi     F1 1554   1.866   2.698   0.179  0.0187  0.3942  0.1278
  118fsi     S1 1555   2.020   2.705   0.195  0.0523  0.0073  0.3575
  118fsi      N 1556   2.052   2.841   0.129 -0.3698 -0.3796 -0.0527
  118fsi     O1 1557   2.043   2.704   0.339 -0.3682  0.1600 -0.2981
  118fsi     O2 1558   2.068   2.583   0.132  0.2838 -0.1782 -0.0349
  118fsi     S2 1559   2.114   2.871  -0.010  0.4290 -0.1551  0.4337
  118fsi     O3 1560   2.070   3.002  -0.053  0.0933 -0.0313  0.0281
  118fsi     O4 1561   2.105   2.768  -0.110 -0.0293 -0.1285 -0.3005
  118fsi     F2 1562   2.272   2.900   0.011  0.0999  0.6499 -0.2206
  119fsi     F1 1563   1.787   0.471   2.818  0.3053 -0.2674  0.0489
  119fsi     S1 1564   1.897   0.389   2.896 -0.2552 -0.0824  0.1771
  119fsi      N 1565   2.032   0.434   2.829  0.0271  0.0578 -0.6202
  119fsi     O1 1566   1.873   0.429   3.035  0.1594 -0.1231  0.2479
  119fsi     O2 1567   1.866   0.247   2.868  0.1337  0.2709  0.2268
  119fsi     S2 1568   2.130   0.543   2.883 -0.0999  0.0940 -0.0826
  119fsi     O3 1569   2.059   0.644   2.956  0.3245  0.5596  0.0647
  119fsi     O4 1570   2.217   0.579   2.778 -0.5493 -0.1911  0.2581
  119fsi     F2 1571   2.223   0.464   2.992  0.3688  0.8451 -0.1569
  120fsi     F1 1572   1.442   0.209   2.901 -0.0597 -0.1508  0.0336
  120fsi     S1 1573   1.481   0.232   3.058  0.4770 -0.1937  0.0173
  120fsi      N 1574   1.554   0.096   3.093 -0.0090  0.4660 -0.2278
  120fsi     O1 1575   1.569   0.348   3.060  0.3209  0.0973  0.4059
  120fsi     O2 1576   1.354   0.241   3.125  0.5697 -0.2735 -0.0023
  120fsi     S2 1577   1.698   0.066   3.144  0.2608  0.3516 -0.1937
  120fsi     O3 1578   1.769   0.182   3.192  0.1297  0.0379  0.0937
  120fsi     O4 1579   1.763  -0.025   3.056 -0.0047  0.7255  0.1706
  120fsi     F2 1580   1.676  -0.011   3.277  0.3194 -0.1626  0.2518
  121fsi     F1 1581   2.887   1.085   2.751  0.6277 -0.0293 -0.3781
  121fsi     S1 1582   2.874   1.036   2.895  0.0111 -0.3862  0.2221
  121fsi      N 1583   3.008   1.067   2.966  0.4328  0.1526  0.1510
  121fsi     O1 1584   2.754   1.102   2.942 -0.4800  0.2212  0.7507
  121fsi     O2 1585   2.860   0.894   2.884  0.1013  0.0602  0.0587
  121fsi     S2 1586   3.056   1.183   3.059  0.2206 -0.4053 -0.4208
  121fsi     O3 1587   3.005   1.313   3.031 -0.5203  0.2805  0.1131
  121fsi     O4 1588   3.196   1.180   3.095 -0.6387  0.1861 -0.1328
  121fsi     F2 1589   2.986   1.138   3.194 -0.0096 -0.4453  0.0946
  122fsi     F1 1590   2.521   1.797   1.344 -0.2890 -0.0035 -0.0732
  122fsi     S1 1591   2.490   1.647   1.293  0.3007  0.0400  0.0107
  122fsi      N 1592   2.367   1.661   1.199 -0.3720 -0.3289 -0.6051
  122fsi     O1 1593   2.605   1.609   1.225 -0.0984 -0.5429 -0.1810
  122fsi     O2 1594   2.458   1.578   1.411 -0.6865 -0.4332 -0.6436
  122fsi     S2 1595   2.357   1.718   1.051  0.3234  0.0717  0.2132
  122fsi     O3 1596   2.483   1.711   0.978  0.1797  0.4225 -0.8413
  122fsi     O4 1597   2.276   1.836   1.046 -0.9732 -0.0113  0.6146
  122fsi     F2 1598   2.264   1.617   0.982 -0.1945 -0.1246 -0.3077
  123fsi     F1 1599   1.613   0.853   0.640 -0.4902  0.5368 -0.5097
  123fsi     S1 1600   1.755   0.797   0.677 -0.0841 -0.4807 -0.1466
  123fsi      N 1601   1.809   0.751   0.536  0.0440 -0.0282 -0.1564
  123fsi     O1 1602   1.820   0.900   0.752  0.0506  0.5778 -0.0910
  123fsi     O2 1603   1.719   0.684   0.751  0.1260  0.5726  0.3218
  123fsi     S2 1604   1.912   0.828   0.449  0.1800  0.2006 -0.4120
  123fsi     O3 1605   1.896   0.965   0.470 -0.3855 -0.0506 -0.0017
  123fsi     O4 1606   1.911   0.781   0.317 -0.2800  0.6012  0.6558
  123fsi     F2 1607   2.058   0.793   0.507 -0.1693 -0.7598  0.3467
  124fsi     F1 1608   1.793   1.156   2.208 -0.2192  0.0811  0.2124
  124fsi     S1 1609   1.895   1.264   2.158  0.0674  0.1777 -0.1949
  124fsi      N 1610   1.900   1.373   2.275 -0.0104  0.4981  0.4576
  124fsi     O1 1611   2.016   1.184   2.141  0.3680 -0.5445 -0.1236
  124fsi     O2 1612   1.826   1.299   2.038  0.2073 -0.1644  0.3345
  124fsi     S2 1613   1.871   1.522   2.262 -0.0099  0.2335  0.1767
  124fsi     O3 1614   1.842   1.564   2.127  0.2723 -0.0181 -0.3294
  124fsi     O4 1615   1.953   1.605   2.338  0.0431  0.2115 -0.9389
  124fsi     F2 1616   1.725   1.536   2.319 -0.1904 -0.1856 -0.2967
  125fsi     F1 1617   0.667   0.820   1.514  0.1525 -0.4445 -0.0106
  125fsi     S1 1618   0.711   0.680   1.475 -0.1119 -0.3683 -0.2090
  125fsi      N 1619   0.856   0.691   1.412  0.2442 -1.5823  0.1022
  125fsi     O1 1620   0.689   0.611   1.598 -0.0525 -0.2689  0.0706
  125fsi     O2 1621   0.620   0.644   1.371  0.3553 -0.0307  0.2230
  125fsi     S2 1622   1.001   0.682   1.477 -0.2658 -0.0517 -0.0353
  125fsi     O3 1623   1.093   0.624   1.385  0.3935  0.0631  0.0156
  125fsi     O4 1624   1.001   0.634   1.611 -0.7209 -0.1587  0.1533
  125fsi     F2 1625   1.043   0.835   1.488  0.1458  0.5200 -0.2557
  126fsi     F1 1626   2.798   0.687   0.056  0.2973 -0.2270  0.4126
  126fsi     S1 1627   2.938   0.633   0.055 -0.1545 -0.0190  0.4246
  126fsi      N 1628   3.023   0.758   0.101 -0.1559  0.1087  0.0838
  126fsi     O1 1629   2.934   0.531   0.154  0.1378 -0.1931 -0.2476
  126fsi     O2 1630   2.947   0.596  -0.082 -0.0783  0.0346  0.1165
  126fsi     S2 1631   3.107   0.791   0.232 -0.1610  0.0785 -0.0976
  126fsi     O3 1632   3.179   0.915   0.223  0.4203  0.3088 -0.0575
  126fsi     O4 1633   3.171   0.672   0.294 -0.6176  0.1935  0.0615
  126fsi     F2 1634   2.986   0.841   0.330  0.0541 -0.3928 -0.1035
  127fsi     F1 1635   3.005   2.948   0.402  0.2048 -0.5468  0.0595
  127fsi     S1 1636   2.926   2.946   0.266 -0.2462 -0.3451 -0.1085
  127fsi      N 1637   2.957   2.797   0.215  0.5662  0.1141 -0.0338
  127fsi     O1 1638   2.790   2.956   0.306 -0.5323  0.1566  0.4493
  127fsi     O2 1639   2.985   3.051   0.189 -0.5744 -0.9935  0.1876
  127fsi     S2 1640   3.023   2.742   0.085 -0.3111  0.1110 -0.1099
  127fsi     O3 1641   2.933   2.753  -0.028 -0.3401 -0.4026  0.3325
  127fsi     O4 1642   3.094   2.614   0.095  0.1319 -0.1826  0.1727
  127fsi     F2 1643   3.137   2.842   0.056  0.1018 -0.2520 -0.4532
  128fsi     F1 1644   2.920   2.517   1.034 -0.0354  0.0724 -0.4536
  128fsi     S1 1645   2.844   2.396   0.998 -0.2950  0.3400  0.3020
  128fsi      N 1646   2.955   2.282   1.004  0.2732 -0.2660  0.1787
  128fsi     O1 1647   2.752   2.380   1.105  0.3983  0.4913  0.4799
  128fsi     O2 1648   2.794   2.426   0.867  0.2488  0.3855  0.1431
  128fsi     S2 1649   3.024   2.215   0.882 -0.1224 -0.0918 -0.4171
  128fsi     O3 1650   2.941   2.188   0.770  0.0731  0.3606 -0.3260
  128fsi     O4 1651   3.116   2.114   0.926  0.9318  0.0386  0.2707
  128fsi     F2 1652   3.127   2.325   0.837 -0.2421 -0.4939 -0.9092
  129fsi     F1 1653   0.908   2.491   2.360  0.1932 -0.0508 -0.6646
  129fsi     S1 1654   0.967   2.404   2.240 -0.0347 -0.0967 -0.2664
  129fsi      N 1655   0.969   2.259   2.297  0.0766  0.3745  0.1423
  129fsi     O1 1656   0.867   2.422   2.141 -0.6014 -0.6427  0.3654
  129fsi     O2 1657   1.093   2.470   2.220 -0.4220 -0.0633  0.2179
  129fsi     S2 1658   1.078   2.189   2.390  0.7892 -0.2887 -0.0693
  129fsi     O3 1659   1.177   2.277   2.442 -0.1474  0.1341 -0.0225
  129fsi     O4 1660   1.122   2.063   2.336 -0.3660  0.0441 -0.5506
  129fsi     F2 1661   0.991   2.137   2.517  0.4533  0.0871 -0.0113
  130fsi     F1 1662   2.155   2.489   2.029  0.2456  0.3721  0.0062
  130fsi     S1 1663   2.082   2.547   2.151 -0.3113 -0.2214 -0.1603
  130fsi      N 1664   2.027   2.421   2.228  0.6962 -0.0477  0.0235
  130fsi     O1 1665   2.188   2.618   2.220 -0.5842  0.0163  0.3720
  130fsi     O2 1666   1.978   2.628   2.093  0.0181 -0.3691  0.6878
  130fsi     S2 1667   2.095   2.313   2.311 -0.1135 -0.6828  0.1131
  130fsi     O3 1668   2.239   2.320   2.316 -0.3536  0.4561 -0.1037
  130fsi     O4 1669   2.042   2.180   2.292  0.3809  0.5855  0.3116
  130fsi     F2 1670   2.057   2.341   2.455 -0.3448 -0.6819 -0.1999
  131fsi     F1 1671   1.394   2.047   1.448 -0.1030  0.5182  0.0414
  131fsi     S1 1672   1.505   2.021   1.561 -0.1246  0.1632  0.3089
  131fsi      N 1673   1.533   2.160   1.624 -0.1198  0.3264  0.1852
  131fsi     O1 1674   1.426   1.952   1.660 -0.2621  0.4944 -0.5194
  131fsi     O2 1675   1.611   1.948   1.505  0.2635 -0.4888 -0.0123
  131fsi     S2 1676   1.650   2.265   1.595 -0.2755 -0.1437  0.2758
  131fsi     O3 1677   1.617   2.406   1.591  0.5439 -0.1023  0.1039
  131fsi     O4 1678   1.737   2.227   1.484  0.1830 -0.5511  0.5247
  131fsi     F2 1679   1.733   2.243   1.726 -0.0164  0.2715 -0.1201
  132fsi     F1 1680   1.986   0.535   1.924  0.5268 -0.4783 -0.3835
  132fsi     S1 1681   2.051   0.390   1.873 -0.0505 -0.2445 -0.0819
  132fsi      N 1682   1.934   0.336   1.779 -0.3364 -0.1655 -0.5823
  132fsi     O1 1683   2.163   0.435   1.798  0.0133  0.3714  0.1906
  132fsi     O2 1684   2.080   0.314   1.992  0.3561  0.0775 -0.1063
  132fsi     S2 1685   1.874   0.385   1.643 -0.2479  0.0354  0.1713
  132fsi     O3 1686   1.883   0.531   1.626 -0.7502 -0.2149 -0.4050
  132fsi     O4 1687   1.748   0.316   1.616 -0.0787  0.2718 -0.9394
  132fsi     F2 1688   1.975   0.326   1.538  0.0660  0.7842  0.6761
  133fsi     F1 1689   1.180   1.820   0.971 -0.5962  0.3471 -0.5108
  133fsi     S1 1690   1.072   1.854   1.082 -1.1011 -0.0092  0.2444
  133fsi      N 1691   0.977   1.964   1.019 -0.0694 -0.6429 -0.3331
  133fsi     O1 1692   1.000   1.735   1.091  0.0448 -0.1791 -0.3164
  133fsi     O2 1693   1.143   1.898   1.198 -0.2235 -0.4934  0.5398
  133fsi     S2 1694   0.979   2.122   1.032  0.4441  0.3094  0.4619
  133fsi     O3 1695   0.887   2.192   0.940 -0.2505 -0.5688  0.1044
  133fsi     O4 1696   1.105   2.176   1.060 -0.2710 -0.2956  0.6381
  133fsi     F2 1697   0.906   2.152   1.165  0.2088  0.5872  0.5520
  134fsi     F1 1698   0.119   2.986   2.633 -0.5098  0.8015  0.1041
  134fsi     S1 1699   0.247   2.885   2.662  0.1081 -0.6445 -0.4114
  134fsi      N 1700   0.168   2.769   2.734  0.1410  0.3257 -0.3874
  134fsi     O1 1701   0.305   2.845   2.534  0.3524 -0.5335 -0.3259
  134fsi     O2 1702   0.330   2.956   2.757  0.8013 -0.1194 -0.1025
  134fsi     S2 1703   0.074   2.666   2.657  0.2154 -0.1608  0.1736
  134fsi     O3 1704   0.019   2.721   2.534 -0.4591 -0.0493 -0.0171
  134fsi     O4 1705  -0.004   2.588   2.742  0.2708 -0.8416 -0.4050
  134fsi     F2 1706   0.176   2.555   2.608 -0.0146 -0.6641  0.0938
  135fsi     F1 1707   0.602   2.471   2.233 -0.1342 -0.0141 -0.0736
  135fsi     S1 1708   0.479   2.451   2.325  0.4387 -0.0015 -0.4852
  135fsi      N 1709   0.543   2.397   2.460  0.0849 -0.0210  0.3268
  135fsi     O1 1710   0.416   2.578   2.338 -0.0190  0.0170  0.3273
  135fsi     O2 1711   0.399   2.351   2.259 -0.5270 -0.1784 -0.7370
  135fsi     S2 1712   0.584   2.481   2.589 -0.7365  0.3828 -0.4386
  135fsi     O3 1713   0.603   2.398   2.705 -0.0834  0.5667 -0.3295
  135fsi     O4 1714   0.496   2.592   2.609 -0.0637 -0.3683  0.0610
  135fsi     F2 1715   0.726   2.541   2.566 -0.1359 -0.3301 -0.1675
  136fsi     F1 1716   0.299   0.130   1.843 -0.4425 -0.1919  0.3772
  136fsi     S1 1717   0.319  -0.021   1.852  0.0246  0.3993 -0.3558
  136fsi      N 1718   0.335  -0.046   2.009 -0.2351 -0.6626 -0.3223
  136fsi     O1 1719   0.200  -0.076   1.800  0.3286  0.0660  0.4059
  136fsi     O2 1720   0.444  -0.040   1.780  0.7887  0.4895 -0.1878
  136fsi     S2 1721   0.457  -0.057   2.109  0.6775  0.1875  0.4906
  136fsi     O3 1722   0.588  -0.094   2.049  0.6812  0.1163 -0.6744
  136fsi     O4 1723   0.420  -0.120   2.235  0.0676  0.0027  0.2709
  136fsi     F2 1724   0.477   0.090   2.159  0.3682 -0.3720  0.4104
  137fsi     F1 1725   2.115   0.115   2.602 -0.2140 -0.3856 -0.5397
  137fsi     S1 1726   2.035  -0.012   2.563  0.3484 -0.0300  0.1585
  137fsi      N 1727   1.976   0.024   2.418  0.2003  0.1334  0.4367
  137fsi     O1 1728   2.134  -0.110   2.557  0.4794  0.4009  0.3006
  137fsi     O2 1729   1.935  -0.020   2.665 -0.7533 -0.0420  0.0571
  137fsi     S2 1730   2.012  -0.003   2.273 -0.2710 -0.1583 -0.1987
  137fsi     O3 1731   1.905  -0.072   2.208  0.1698  0.2264  0.4959
  137fsi     O4 1732   2.148  -0.055   2.257 -0.4729 -0.1968  0.3100
  137fsi     F2 1733   2.021   0.143   2.211  0.3429  0.4262  0.2753
  138fsi     F1 1734   0.687   0.235   0.485 -0.5655 -0.7502  0.1853
  138fsi     S1 1735   0.530   0.240   0.482  0.0147 -0.4485  0.4023
  138fsi      N 1736   0.491   0.148   0.368  0.3032  0.4984 -0.2240
  138fsi     O1 1737   0.498   0.190   0.615 -0.3912  0.2019 -0.1775
  138fsi     O2 1738   0.502   0.381   0.462 -0.4328 -0.1249  0.1697
  138fsi     S2 1739   0.447  -0.007   0.370 -0.5444 -0.1364 -0.0181
  138fsi     O3 1740   0.447  -0.076   0.498  0.1190  0.0993 -0.3940
  138fsi     O4 1741   0.515  -0.075   0.262 -0.1595 -0.3172  0.1624
  138fsi     F2 1742   0.298   0.002   0.322  0.2152 -0.0067 -0.0921
  139fsi     F1 1743   0.957   1.346   0.652  0.7731 -0.5610 -0.0674
  139fsi     S1 1744   0.962   1.430   0.521  0.0412  0.1854 -0.7319
  139fsi      N 1745   0.973   1.331   0.403 -0.0050  0.5485  0.2613
  139fsi     O1 1746   0.838   1.493   0.516  0.0103 -0.5240 -0.1865
  139fsi     O2 1747   1.087   1.505   0.543 -0.0153  0.1232 -0.1107
  139fsi     S2 1748   1.093   1.294   0.310 -0.3262  0.1161 -0.3765
  139fsi     O3 1749   1.078   1.164   0.244  0.8375 -0.0766 -0.0005
  139fsi     O4 1750   1.228   1.325   0.355  0.1931 -0.2420  0.2238
  139fsi     F2 1751   1.069   1.400   0.194  0.4730 -0.1504  0.0018
  140fsi     F1 1752   1.455   1.238   2.855  0.0242  0.2070  0.1408
  140fsi     S1 1753   1.534   1.366   2.805  0.0953 -0.2634 -0.5441
  140fsi      N 1754   1.667   1.314   2.741 -0.1818  0.2147 -0.3473
  140fsi     O1 1755   1.457   1.439   2.711  0.4671  0.6919 -0.0243
  140fsi     O2 1756   1.559   1.436   2.930 -0.5289 -0.0453 -0.1843
  140fsi     S2 1757   1.713   1.309   2.595  0.0000 -0.4791  0.0189
  140fsi     O3 1758   1.606   1.314   2.502 -0.4332  0.4257  0.5083
  140fsi     O4 1759   1.814   1.213   2.571 -0.3182 -0.0786 -0.4310
  140fsi     F2 1760   1.796   1.440   2.574  0.0950 -0.8909 -0.1604
  141fsi     F1 1761   1.772   2.126   2.724  0.5111 -0.1992 -0.0262
  141fsi     S1 1762   1.838   2.091   2.862  0.0551  0.6201 -0.1022
  141fsi      N 1763   1.983   2.141   2.846  0.9440  0.4717 -0.3843
  141fsi     O1 1764   1.762   2.164   2.959 -0.3498  0.0983  0.1188
  141fsi     O2 1765   1.835   1.945   2.872 -0.6961 -0.3320 -0.0339
  141fsi     S2 1766   2.058   2.236   2.946  0.2393  0.0418  0.1513
  141fsi     O3 1767   2.008   2.256   3.076 -0.1493  0.1381 -0.0761
  141fsi     O4 1768   2.103   2.358   2.889 -0.1220 -0.3622  0.3898
  141fsi     F2 1769   2.188   2.153   2.973  0.1231  0.3834  0.4438
  142fsi     F1 1770   2.561   0.081   0.717  0.1872  0.1426  0.1255
  142fsi     S1 1771   2.701   0.032   0.777  0.1219 -0.1304 -0.0471
  142fsi      N 1772   2.660  -0.061   0.899  0.4549 -0.3567 -0.3009
  142fsi     O1 1773   2.757  -0.033   0.663 -0.5660  0.1290 -0.3086
  142fsi     O2 1774   2.766   0.150   0.826  0.2889  0.4730  0.4951
  142fsi     S2 1775   2.699  -0.206   0.936  0.1725  0.4082 -0.2488
  142fsi     O3 1776   2.657  -0.243   1.071 -0.0505  0.3721  0.3494
  142fsi     O4 1777   2.831  -0.241   0.896 -0.3290  0.9536 -0.4590
  142fsi     F2 1778   2.607  -0.293   0.839  0.0685  0.0904 -0.1508
  143fsi     F1 1779   0.701   0.777   1.918  0.0206  0.1101  0.1994
  143fsi     S1 1780   0.840   0.777   1.977 -0.3733 -0.2266 -0.0041
  143fsi      N 1781   0.918   0.890   1.896 -0.1596  0.2775 -0.1227
  143fsi     O1 1782   0.838   0.804   2.116 -0.1936 -0.0758 -0.0008
  143fsi     O2 1783   0.878   0.644   1.937  0.3732  0.7596  0.1992
  143fsi     S2 1784   1.070   0.893   1.850 -0.0847  0.1095 -0.2533
  143fsi     O3 1785   1.095   0.968   1.730  0.0574 -0.2923 -0.4941
  143fsi     O4 1786   1.147   0.771   1.869  0.2909  0.0663 -0.6615
  143fsi     F2 1787   1.138   0.985   1.961  0.1955 -0.3321  0.0482
  144fsi     F1 1788   1.560   2.782   2.331  0.1586 -0.1931 -0.8093
  144fsi     S1 1789   1.408   2.755   2.298  0.1041  0.2610 -0.1799
  144fsi      N 1790   1.322   2.795   2.426 -0.6681  0.6649 -0.0259
  144fsi     O1 1791   1.381   2.859   2.201  0.2763  0.9565  0.2500
  144fsi     O2 1792   1.407   2.617   2.245 -0.9447  0.6070 -0.5626
  144fsi     S2 1793   1.229   2.704   2.515  0.3301  0.1753 -0.5316
  144fsi     O3 1794   1.175   2.771   2.634  0.1352 -0.1925  0.4500
  144fsi     O4 1795   1.287   2.574   2.530 -0.5781  0.1791  0.1449
  144fsi     F2 1796   1.104   2.681   2.417  0.3197 -0.2037  0.3303
  145fsi     F1 1797   0.852   1.320   2.279 -0.3980  0.1271 -0.6132
  145fsi     S1 1798   0.964   1.255   2.189 -0.2037  0.0785 -0.0613
  145fsi      N 1799   1.100   1.308   2.248 -0.0324  0.2758 -0.1429
  145fsi     O1 1800   0.946   1.113   2.203  0.3061 -0.0029  0.1018
  145fsi     O2 1801   0.940   1.311   2.062 -0.0593 -0.1618  0.2112
  145fsi     S2 1802   1.176   1.248   2.375  0.0895  0.0381  0.1387
  145fsi     O3 1803   1.086   1.199   2.471  0.3219  0.7043  0.0943
  145fsi     O4 1804   1.285   1.324   2.419  0.0841  0.0875  0.1324
  145fsi     F2 1805   1.239   1.120   2.307 -0.1012 -0.1609  0.1122
  146fsi     F1 1806   2.490   2.037   2.260 -0.0196 -0.0696 -0.1907
  146fsi     S1 1807   2.626   1.961   2.267 -0.4996 -0.1969  0.1359
  146fsi      N 1808   2.591   1.821   2.209 -0.2947 -0.0640 -0.0427
  146fsi     O1 1809   2.710   2.041   2.181 -0.2200 -0.3498 -0.3320
  146fsi     O2 1810   2.657   1.954   2.400 -0.1096 -0.4456 -0.6025
  146fsi     S2 1811   2.633   1.737   2.080  0.3077  0.3806  0.2220
  146fsi     O3 1812   2.633   1.596   2.098  0.2287  0.5762  0.0735
  146fsi     O4 1813   2.735   1.788   2.001  0.4533 -0.4245 -0.2959
  146fsi     F2 1814   2.509   1.761   1.985 -0.1244 -0.1480 -0.3546
  147fsi     F1 1815   1.190   0.354   2.187 -0.2283 -0.3507 -0.6954
  147fsi     S1 1816   1.193   0.476   2.088 -0.0941  0.0371  0.1081
  147fsi      N 1817   1.123   0.597   2.162  0.6882 -0.3825 -0.3304
  147fsi     O1 1818   1.330   0.489   2.069  0.3678 -0.0090 -0.6452
  147fsi     O2 1819   1.115   0.428   1.972 -0.1913  0.3802  0.2590
  147fsi     S2 1820   1.174   0.711   2.254 -0.0988 -0.0711 -0.1162
  147fsi     O3 1821   1.074   0.819   2.268 -0.4575 -0.1019 -0.2283
  147fsi     O4 1822   1.312   0.750   2.238  0.1590 -0.2127 -0.5608
  147fsi     F2 1823   1.173   0.642   2.394 -0.2787  0.5575  0.1006
  148fsi     F1 1824   1.130   1.614   2.026  0.2677  0.1036  0.0461
  148fsi     S1 1825   1.099   1.631   1.873  0.2370 -0.1933 -0.1362
  148fsi      N 1826   1.058   1.481   1.841  0.2010 -0.4037  0.2689
  148fsi     O1 1827   0.990   1.718   1.855 -0.0897 -0.0348 -0.3831
  148fsi     O2 1828   1.219   1.680   1.814 -0.0127  0.1527 -0.2265
  148fsi     S2 1829   1.132   1.368   1.769 -0.4291  0.6234  0.4103
  148fsi     O3 1830   1.255   1.407   1.706  0.2101 -0.5044 -0.0918
  148fsi     O4 1831   1.041   1.279   1.694 -0.1113 -0.5930  0.0020
  148fsi     F2 1832   1.181   1.276   1.888  0.6954 -0.2064  0.3152
  149fsi     F1 1833   0.236   1.472   2.895  0.7576 -0.4969  0.7629
  149fsi     S1 1834   0.223   1.584   2.787 -0.1155 -0.2920  0.1154
  149fsi      N 1835   0.316   1.703   2.832  0.2681 -0.2979 -0.4908
  149fsi     O1 1836   0.273   1.517   2.673  0.6192  0.3119  0.1801
  149fsi     O2 1837   0.081   1.620   2.784  0.0249  0.0164  0.6900
  149fsi     S2 1838   0.291   1.823   2.927 -0.1750  0.0811 -0.1493
  149fsi     O3 1839   0.406   1.916   2.929  0.1092 -0.1330  0.1763
  149fsi     O4 1840   0.232   1.784   3.051  0.3496  0.1539  0.2421
  149fsi     F2 1841   0.187   1.906   2.851  0.1024 -0.6592 -0.2506
  150fsi     F1 1842   0.498   2.164   1.297 -0.0464 -0.1404 -0.1050
  150fsi     S1 1843   0.460   2.186   1.148  0.0501 -0.1886 -0.5895
  150fsi      N 1844   0.399   2.330   1.153 -0.0865  0.4677  0.0673
  150fsi     O1 1845   0.580   2.178   1.070  0.3265 -0.5654 -0.0390
  150fsi     O2 1846   0.359   2.087   1.115  0.2195  0.5762 -0.5365
  150fsi     S2 1847   0.425   2.451   1.057 -0.0271 -0.0112 -0.3235
  150fsi     O3 1848   0.501   2.421   0.939 -0.4769 -0.4236 -0.1380
  150fsi     O4 1849   0.452   2.568   1.130 -0.1329 -0.1217 -0.5261
  150fsi     F2 1850   0.287   2.481   1.003  0.2314  0.0923 -0.2561
  151fsi     F1 1851   2.873   1.899   1.055  0.1656  0.0269  0.4303
  151fsi     S1 1852   2.951   1.771   1.014  0.3015  0.1108  0.1813
  151fsi      N 1853   2.913   1.743   0.866 -0.4493 -0.2922  0.6849
  151fsi     O1 1854   3.089   1.800   1.044 -0.5288  0.0734 -0.0160
  151fsi     O2 1855   2.883   1.675   1.101  0.5474  0.1772  0.4703
  151fsi     S2 1856   2.989   1.773   0.730 -0.6781 -0.2604 -0.3226
  151fsi     O3 1857   3.095   1.867   0.745 -0.3555 -0.3876 -0.2674
  151fsi     O4 1858   2.891   1.813   0.629 -0.0045 -0.2663 -0.3861
  151fsi     F2 1859   3.061   1.642   0.682 -0.3348 -0.0960 -0.1896
  152fsi     F1 1860   0.578   2.924   2.912  0.0772  0.2439 -0.4071
  152fsi     S1 1861   0.711   2.979   2.862  0.1545 -0.0473 -0.1192
  152fsi      N 1862   0.780   2.986   3.001  0.0780 -0.3370 -0.2513
  152fsi     O1 1863   0.761   2.880   2.769  0.5827 -0.2442 -0.0690
  152fsi     O2 1864   0.679   3.114   2.814  0.5394 -0.6694  1.4478
  152fsi     S2 1865   0.909   2.911   3.053 -0.2866  0.1581 -0.0014
  152fsi     O3 1866   0.979   2.978   3.157  0.4399  0.0407 -0.6005
  152fsi     O4 1867   0.990   2.848   2.955  0.0815 -0.2410 -0.1021
  152fsi     F2 1868   0.847   2.793   3.139  0.4086  0.3363 -0.3929
  153fsi     F1 1869   0.548   0.928   2.582  0.0632 -0.4219 -0.1899
  153fsi     S1 1870   0.582   0.978   2.434 -0.0745 -0.2120  0.1456
  153fsi      N 1871   0.505   0.878   2.339  0.3787  0.4542 -0.1573
  153fsi     O1 1872   0.540   1.113   2.426 -0.7353  0.1317  0.1607
  153fsi     O2 1873   0.726   0.950   2.422 -0.7612  0.5041  0.2501
  153fsi     S2 1874   0.472   0.899   2.183  0.1779  0.0815 -0.0164
  153fsi     O3 1875   0.584   0.955   2.111  0.1543 -0.2845  0.5113
  153fsi     O4 1876   0.339   0.952   2.166 -0.3325  0.8536  0.2504
  153fsi     F2 1877   0.465   0.751   2.135  0.3416 -0.4872 -0.2933
  154fsi     F1 1878   2.826   0.452   1.263  0.2784 -0.2983 -0.0107
  154fsi     S1 1879   2.709   0.532   1.323  0.3688 -0.1451  0.1145
  154fsi      N 1880   2.770   0.674   1.337  0.7893  0.4533 -0.1331
  154fsi     O1 1881   2.604   0.527   1.229 -0.2497 -0.6920 -0.0722
  154fsi     O2 1882   2.691   0.462   1.451  0.3802  0.0168 -0.0215
  154fsi     S2 1883   2.722   0.816   1.278  0.1555  0.0975 -0.2213
  154fsi     O3 1884   2.582   0.826   1.254  0.1553  0.1548  0.7916
  154fsi     O4 1885   2.809   0.863   1.179 -0.1534 -0.0637 -0.3652
  154fsi     F2 1886   2.735   0.913   1.400 -0.2022  0.2806  0.3174
  155fsi     F1 1887   1.495   1.748   0.906  0.1339  0.2650 -0.0463
  155fsi     S1 1888   1.507   1.603   0.844  0.0368 -0.2214 -0.1676
  155fsi      N 1889   1.404   1.526   0.936  0.3345  0.4450 -0.1229
  155fsi     O1 1890   1.463   1.612   0.707  0.0256  0.2802 -0.6570
  155fsi     O2 1891   1.646   1.581   0.870  1.0167  0.0875  0.0023
  155fsi     S2 1892   1.278   1.444   0.897 -0.3814  0.0818  0.1988
  155fsi     O3 1893   1.273   1.397   0.760  0.3377  0.6231 -0.1341
  155fsi     O4 1894   1.165   1.495   0.955 -0.2648  0.0175 -0.4273
  155fsi     F2 1895   1.302   1.309   0.976  0.0705  0.0537 -0.3345
  156fsi     F1 1896   1.039   0.767   1.069 -0.0131  0.0816 -0.2974
  156fsi     S1 1897   0.988   0.621   1.040 -0.0050 -0.1994  0.0851
  156fsi      N 1898   0.969   0.615   0.885  0.6671  0.0237  0.8064
  156fsi     O1 1899   1.099   0.539   1.084 -0.4652  0.0626 -0.1423
  156fsi     O2 1900   0.864   0.604   1.111  0.1326 -0.7241 -0.0919
  156fsi     S2 1901   0.844   0.658   0.799  0.4638 -0.0796 -0.0697
  156fsi     O3 1902   0.869   0.686   0.661 -0.3899  0.7345 -0.0536
  156fsi     O4 1903   0.755   0.743   0.873 -0.3391 -0.3965  0.9066
  156fsi     F2 1904   0.774   0.518   0.795 -0.1704 -0.2101  0.5237
  157fsi     F1 1905   1.340   1.707   0.162  0.2403  0.4001 -0.2565
  157fsi     S1 1906   1.441   1.653   0.266 -0.4268  0.1249  0.1518
  157fsi      N 1907   1.547   1.771   0.262  0.4846  0.4393  0.0456
  157fsi     O1 1908   1.371   1.646   0.395 -0.0142 -0.5524  0.0328
  157fsi     O2 1909   1.492   1.527   0.211 -0.2084  0.2146 -0.0188
  157fsi     S2 1910   1.685   1.773   0.194 -0.5913  0.1578 -0.1324
  157fsi     O3 1911   1.728   1.907   0.192  0.7281  0.1633 -0.4161
  157fsi     O4 1912   1.702   1.691   0.079  0.1946  0.1563 -0.0261
  157fsi     F2 1913   1.779   1.721   0.310  0.3591 -0.2074  0.4222
  158fsi     F1 1914   0.520   2.080   0.578 -0.4951  0.1912 -0.0680
  158fsi     S1 1915   0.501   2.195   0.686 -0.1034  0.2871 -0.6160
  158fsi      N 1916   0.642   2.253   0.714  0.1601  0.1283 -0.4858
  158fsi     O1 1917   0.420   2.284   0.611 -0.3536 -0.8885  0.3561
  158fsi     O2 1918   0.447   2.117   0.793 -0.4390  0.5525  0.1668
  158fsi     S2 1919   0.697   2.388   0.664 -0.0854  0.1066  0.3805
  158fsi     O3 1920   0.820   2.423   0.732  0.2990 -0.5124  0.1257
  158fsi     O4 1921   0.603   2.495   0.652  0.1141  0.1451 -0.0741
  158fsi     F2 1922   0.742   2.364   0.514 -0.0566  0.0413  0.6471
  159fsi     F1 1923   2.130   1.196   1.673 -0.6547  0.0383 -0.2825
  159fsi     S1 1924   2.000   1.128   1.697 -0.0146 -0.1740 -0.3288
  159fsi      N 1925   1.913   1.251   1.656  0.6341  0.1479 -0.0553
  159fsi     O1 1926   1.995   1.017   1.602 -0.4614  0.4681 -0.2969
  159fsi     O2 1927   2.005   1.104   1.840 -0.1140  0.3257 -0.0785
  159fsi     S2 1928   1.795   1.275   1.553 -0.1082  0.0848 -0.0148
  159fsi     O3 1929   1.767   1.173   1.458 -0.2583  0.5258  0.1612
  159fsi     O4 1930   1.803   1.408   1.499  0.1582 -0.0708 -0.3687
  159fsi     F2 1931   1.669   1.281   1.653  0.3926  0.0121  0.1422
  160fsi     F1 1932   2.210   0.721   1.994  0.1051 -0.4630 -0.1332
  160fsi     S1 1933   2.319   0.829   2.006 -0.7011  0.0485 -0.0025
  160fsi      N 1934   2.413   0.794   1.879 -0.1962  0.0952 -0.1815
  160fsi     O1 1935   2.245   0.948   1.988 -0.4454 -0.1451  0.3751
  160fsi     O2 1936   2.375   0.800   2.135  0.2695 -0.4353  0.6303
  160fsi     S2 1937   2.537   0.700   1.873  0.1068  0.2279 -0.1086
  160fsi     O3 1938   2.614   0.685   1.998 -0.2881 -0.2476  0.7324
  160fsi     O4 1939   2.613   0.717   1.752 -0.3562 -0.3565  0.8173
  160fsi     F2 1940   2.468   0.562   1.854  0.1498  0.4384  0.6144
  161fsi     F1 1941   1.029   2.971   2.147 -0.2477  0.1158 -0.2131
  161fsi     S1 1942   0.976   3.055   2.267 -0.2462  0.2171 -0.1094
  161fsi      N 1943   0.841   2.968   2.289  0.2689 -0.2630 -0.4583
  161fsi     O1 1944   1.082   3.041   2.362 -0.3006 -0.0955  0.2461
  161fsi     O2 1945   0.959   3.181   2.210 -0.2601 -0.4341  0.2199
  161fsi     S2 1946   0.810   2.858   2.397  0.2126 -0.7144 -0.1214
  161fsi     O3 1947   0.672   2.846   2.415  0.5107  0.5984  0.0274
  161fsi     O4 1948   0.895   2.854   2.515  0.1375 -0.3706 -0.2331
  161fsi     F2 1949   0.845   2.730   2.326 -0.0821  0.2634 -0.5963
  162fsi     F1 1950   1.578   2.563   1.052 -0.1703 -0.3426 -0.1253
  162fsi     S1 1951   1.514   2.574   1.193  0.1244  0.2996  0.7451
  162fsi      N 1952   1.551   2.725   1.232  0.5682 -0.6238 -0.4220
  162fsi     O1 1953   1.371   2.552   1.176 -0.4646 -0.4188 -0.0135
  162fsi     O2 1954   1.583   2.479   1.267 -0.0795  0.4560 -0.5119
  162fsi     S2 1955   1.462   2.853   1.237  0.2561 -0.2369  0.0775
  162fsi     O3 1956   1.369   2.867   1.131  0.4222  0.0404 -0.0231
  162fsi     O4 1957   1.526   2.976   1.277 -0.6187 -0.0656 -0.5657
  162fsi     F2 1958   1.372   2.814   1.358  0.4879 -0.2316  0.3730
  163fsi     F1 1959   1.930   0.268   0.453 -0.2459 -0.1269  0.3275
  163fsi     S1 1960   1.900   0.420   0.476  0.4752  0.2413 -0.3676
  163fsi      N 1961   1.767   0.412   0.558 -0.4888 -0.6612 -0.8396
  163fsi     O1 1962   2.005   0.475   0.559 -0.0595  0.1189  0.4922
  163fsi     O2 1963   1.881   0.478   0.341  0.0452 -0.8279  0.2015
  163fsi     S2 1964   1.616   0.407   0.508  0.0798  0.4162 -0.2364
  163fsi     O3 1965   1.536   0.324   0.596 -0.6131  0.6041  0.1975
  163fsi     O4 1966   1.594   0.394   0.365  0.6286 -0.3964  0.2657
  163fsi     F2 1967   1.570   0.549   0.538 -0.2670 -0.4636  0.4714
  164fsi     F1 1968   2.345   0.993   0.165  0.1590  0.4684 -0.9536
  164fsi     S1 1969   2.217   0.953   0.246  0.1279 -0.4482  0.2606
  164fsi      N 1970   2.283   0.852   0.346  0.0549  0.0941  0.2167
  164fsi     O1 1971   2.185   1.081   0.302  0.2590  0.1325  0.1907
  164fsi     O2 1972   2.119   0.898   0.152 -0.5494 -0.1137 -0.5971
  164fsi     S2 1973   2.290   0.698   0.339  0.3736 -0.0951 -0.0849
  164fsi     O3 1974   2.191   0.638   0.251  0.2342  0.3875 -0.6495
  164fsi     O4 1975   2.305   0.632   0.465  0.1442  0.6614 -0.3563
  164fsi     F2 1976   2.439   0.677   0.266 -0.1520 -0.1188  0.0158
  165fsi     F1 1977   1.717   0.485   1.319 -0.0656 -0.3091  0.5568
  165fsi     S1 1978   1.622   0.409   1.224 -0.2585  0.0291  0.2593
  165fsi      N 1979   1.707   0.400   1.091 -0.1246 -0.1257 -0.6407
  165fsi     O1 1980   1.605   0.284   1.294 -0.2420 -0.3923  0.2809
  165fsi     O2 1981   1.505   0.492   1.204  0.5118  0.0548 -0.0924
  165fsi     S2 1982   1.751   0.267   1.017 -0.0610  0.1459 -0.2959
  165fsi     O3 1983   1.740   0.278   0.875  0.2578 -0.8244  0.0918
  165fsi     O4 1984   1.710   0.140   1.068 -0.3368  0.1362  0.1888
  165fsi     F2 1985   1.906   0.270   1.041  0.0265 -0.0888  0.7798
  166fsi     F1 1986   1.932   2.936   1.203  0.1984 -0.5755 -0.0645
  166fsi     S1 1987   1.951   2.982   1.345 -0.3409  0.4195  0.3489
  166fsi      N 1988   1.903   2.859   1.427 -0.3788  0.1709 -0.1809
  166fsi     O1 1989   2.093   2.995   1.357  0.6258  0.3149  0.2201
  166fsi     O2 1990   1.874   3.101   1.363  0.2323 -0.1651 -1.1648
  166fsi     S2 1991   1.980   2.732   1.484 -0.1247  0.0878  0.2173
  166fsi     O3 1992   2.107   2.713   1.426 -0.2323  0.2534 -0.3346
  166fsi     O4 1993   1.893   2.617   1.492 -0.3901 -0.2144  0.0391
  166fsi     F2 1994   2.002   2.763   1.631 -0.5508 -0.1625  0.0977
  167fsi     F1 1995   0.172   1.231   2.749  0.0152  0.3719 -0.3162
  167fsi     S1 1996   0.286   1.122   2.708 -0.0725  0.5338 -0.0736
  167fsi      N 1997   0.259   1.008   2.812  0.3248 -0.1206 -0.1110
  167fsi     O1 1998   0.252   1.086   2.571 -0.2633 -0.2908  0.3209
  167fsi     O2 1999   0.410   1.182   2.736 -0.5121 -0.5221 -0.0014
  167fsi     S2 2000   0.196   0.865   2.788 -0.4576  0.1609 -0.0302
  167fsi     O3 2001   0.072   0.862   2.726 -0.4451  0.6187  0.9175
  167fsi     O4 2002   0.217   0.786   2.906  0.9274  0.1712 -0.0192
  167fsi     F2 2003   0.286   0.802   2.689  0.2330  0.2158  0.1360
  168fsi     F1 2004   0.349   2.948   1.480 -0.1293  0.3133 -0.8905
  168fsi     S1 2005   0.394   2.830   1.388  0.2322  0.3450 -0.3199
  168fsi      N 2006   0.270   2.798   1.298  0.6885 -0.2674  0.2042
  168fsi     O1 2007   0.490   2.896   1.302 -0.3243 -0.1372 -0.3094
  168fsi     O2 2008   0.445   2.721   1.472  0.2186  0.1898 -0.0225
  168fsi     S2 2009   0.129   2.744   1.352  0.0111 -0.1577 -0.0488
  168fsi     O3 2010   0.017   2.777   1.264  0.8530  0.3054  0.1556
  168fsi     O4 2011   0.109   2.751   1.495 -0.2627  0.1006 -0.8033
  168fsi     F2 2012   0.140   2.588   1.323 -0.1175 -0.1669  0.5206
  169fsi     F1 2013   1.542   1.143   0.495 -0.1212  0.6511 -0.2741
  169fsi     S1 2014   1.584   1.273   0.572 -0.0295 -0.1073  0.1647
  169fsi      N 2015   1.738   1.291   0.558  0.7942 -0.3734 -0.0158
  169fsi     O1 2016   1.506   1.369   0.505 -0.0587 -0.1621  0.3843
  169fsi     O2 2017   1.547   1.240   0.706 -0.1939  0.2692 -0.4712
  169fsi     S2 2018   1.818   1.357   0.435 -0.1611 -0.4971  0.1739
  169fsi     O3 2019   1.741   1.403   0.323  0.0310 -0.2172 -0.0184
  169fsi     O4 2020   1.938   1.277   0.421  0.4224  0.7251  0.0730
  169fsi     F2 2021   1.871   1.493   0.499 -0.2664  0.5689  0.0944
  170fsi     F1 2022   2.189   2.030   1.299  0.0220  0.0341  0.3980
  170fsi     S1 2023   2.119   1.952   1.411  0.4660 -0.5498 -0.1286
  170fsi      N 2024   2.107   1.817   1.342  0.3638 -0.2527  0.2241
  170fsi     O1 2025   2.208   1.947   1.521  0.5046 -0.2749 -0.1557
  170fsi     O2 2026   1.995   2.029   1.430 -0.2726  0.2890  0.0974
  170fsi     S2 2027   1.974   1.754   1.280 -0.1567 -0.0510 -0.0429
  170fsi     O3 2028   2.004   1.647   1.187 -0.0917 -0.1048  0.2854
  170fsi     O4 2029   1.877   1.847   1.239  0.4275  0.3940 -0.1785
  170fsi     F2 2030   1.910   1.684   1.397 -0.1258  0.1328  0.7645
  171fsi     F1 2031   2.535   2.204   1.957 -0.2673  0.0236  0.3029
  171fsi     S1 2032   2.428   2.128   1.871  0.3852  0.1592  0.0123
  171fsi      N 2033   2.496   2.113   1.728 -0.2453  0.3214 -0.3664
  171fsi     O1 2034   2.404   2.006   1.947 -0.7714  0.0193  0.2155
  171fsi     O2 2035   2.327   2.230   1.875  0.6557  0.4450 -0.1487
  171fsi     S2 2036   2.634   2.044   1.698  0.0936 -0.1731  0.5679
  171fsi     O3 2037   2.732   2.060   1.802  0.0959 -0.0603 -0.0135
  171fsi     O4 2038   2.683   2.079   1.563 -0.1051  0.2707 -0.0165
  171fsi     F2 2039   2.600   1.890   1.695 -0.2585 -0.1399 -0.1244
  172fsi     F1 2040   1.428   2.216   1.959  0.1796 -0.1386  0.0722
  172fsi     S1 2041   1.342   2.190   2.084 -0.5182  0.0700  0.3678
  172fsi      N 2042   1.198   2.190   2.029 -0.4697  0.1732 -0.0160
  172fsi     O1 2043   1.385   2.061   2.132  0.3685  0.1594  1.3393
  172fsi     O2 2044   1.366   2.300   2.166  0.7724 -0.1399 -0.1159
  172fsi     S2 2045   1.123   2.086   1.939 -0.4680 -0.0312 -0.2402
  172fsi     O3 2046   1.222   1.994   1.878  0.0217 -0.5800  0.5410
  172fsi     O4 2047   1.016   2.148   1.864  0.0028  0.4349  0.0963
  172fsi     F2 2048   1.053   2.000   2.043  0.1204 -0.0310 -0.2503
  173fsi     F1 2049   0.191   1.036   1.529  0.8164  0.0741  0.1170
  173fsi     S1 2050   0.038   1.015   1.487 -0.2148 -0.3780  0.0313
  173fsi      N 2051  -0.008   1.156   1.439  0.8286 -0.4948  0.4497
  173fsi     O1 2052   0.049   0.913   1.384 -0.7363 -0.5101 -0.4314
  173fsi     O2 2053  -0.031   0.980   1.606  0.3196  0.1990 -0.0405
  173fsi     S2 2054  -0.039   1.209   1.295  0.0360  0.3528  0.0440
  173fsi     O3 2055   0.008   1.122   1.191  0.5429 -0.3418 -0.2619
  173fsi     O4 2056  -0.001   1.352   1.283  0.5244 -0.5052 -0.0383
  173fsi     F2 2057  -0.199   1.206   1.285  0.0013  0.1083 -0.4544
  174fsi     F1 2058   0.890   2.281   0.107 -0.2909 -0.4702 -0.0261
  174fsi     S1 2059   0.978   2.409   0.076 -0.0937  0.0551 -0.3929
  174fsi      N 2060   0.919   2.458  -0.063 -0.3635  0.3582 -0.4738
  174fsi     O1 2061   0.934   2.501   0.174 -0.5004 -0.3021  0.5191
  174fsi     O2 2062   1.112   2.358   0.076  0.8750  0.0380 -0.2497
  174fsi     S2 2063   0.988   2.478  -0.199  0.2283 -0.3057 -0.5357
  174fsi     O3 2064   1.135   2.481  -0.194 -0.3489  0.0268  0.8205
  174fsi     O4 2065   0.925   2.585  -0.266  0.0622 -0.5647 -0.5787
  174fsi     F2 2066   0.951   2.351  -0.280  0.3775  0.0603 -0.8641
  175fsi     F1 2067   2.441   1.967   0.076 -0.1117  0.1734  0.2776
  175fsi     S1 2068   2.369   1.832   0.126 -0.2632  0.1876 -0.3578
  175fsi      N 2069   2.248   1.880   0.204  0.0641  0.7809 -0.1118
  175fsi     O1 2070   2.334   1.770   0.004  0.0846 -0.0536  0.6734
  175fsi     O2 2071   2.469   1.772   0.211  0.0442  0.5160  0.4304
  175fsi     S2 2072   2.090   1.859   0.185 -0.0541  0.0561  0.1155
  175fsi     O3 2073   2.043   1.800   0.060  0.0708  0.3287 -0.2602
  175fsi     O4 2074   2.017   1.974   0.225 -0.0081  0.0453  0.1665
  175fsi     F2 2075   2.057   1.754   0.298  0.2087 -0.2204 -0.0705
  176fsi     F1 2076   2.961   2.387   0.223 -0.2913 -0.3000  0.2301
  176fsi     S1 2077   2.832   2.339   0.156  0.2340 -0.3984  0.2239
  176fsi      N 2078   2.885   2.217   0.079 -0.2747 -0.1470  0.2624
  176fsi     O1 2079   2.744   2.303   0.262  0.7092  0.2589  0.5105
  176fsi     O2 2080   2.792   2.452   0.073  0.7470 -0.1020 -0.0187
  176fsi     S2 2081   2.887   2.198  -0.083 -0.1130 -0.0085  0.5900
  176fsi     O3 2082   2.934   2.065  -0.117  0.4556 -0.3095  0.2651
  176fsi     O4 2083   2.943   2.304  -0.158  0.1527 -0.6147  0.4235
  176fsi     F2 2084   2.737   2.192  -0.126  0.4322 -0.8233 -0.0496
  177fsi     F1 2085   2.964   0.806   2.430  0.5044 -0.2952 -0.4910
  177fsi     S1 2086   2.937   0.942   2.373 -0.5529 -0.0416 -0.0958
  177fsi      N 2087   2.901   0.902   2.224 -0.1465  0.3982  0.0995
  177fsi     O1 2088   2.826   0.991   2.448  0.3457  0.1256  0.3906
  177fsi     O2 2089   3.070   1.003   2.383  0.3116  0.5402 -0.9353
  177fsi     S2 2090   2.896   0.990   2.096 -0.2216  0.0439 -0.2403
  177fsi     O3 2091   2.927   1.133   2.118 -0.4030 -1.1801 -0.5404
  177fsi     O4 2092   2.786   0.959   2.020  0.6899 -0.6669 -0.1743
  177fsi     F2 2093   3.012   0.946   2.002 -0.5108 -0.0405 -0.1137
  178fsi     F1 2094   2.188   1.720   1.699 -0.0371 -0.4723  0.5857
  178fsi     S1 2095   2.142   1.579   1.698 -0.0555 -0.2235  0.5303
  178fsi      N 2096   2.257   1.492   1.767  0.8389  0.1239 -0.1915
  178fsi     O1 2097   2.018   1.599   1.768  0.9223 -0.1261 -0.2285
  178fsi     O2 2098   2.135   1.552   1.556  0.5871 -0.2317 -0.3028
  178fsi     S2 2099   2.246   1.403   1.895 -0.0019  0.3181  0.2319
  178fsi     O3 2100   2.294   1.273   1.875 -0.4896 -0.1162  0.0257
  178fsi     O4 2101   2.119   1.416   1.964  0.3320 -0.3076  0.6399
  178fsi     F2 2102   2.348   1.472   1.997  0.2431 -0.4474 -0.6969
  179fsi     F1 2103   1.016   0.980   1.237  0.0855  0.0290 -0.2144
  179fsi     S1 2104   0.879   1.057   1.245  0.0116 -0.1458  0.3030
  179fsi      N 2105   0.908   1.175   1.147  0.3659  0.2450  0.5309
  179fsi     O1 2106   0.778   0.961   1.198 -0.1709 -0.1292 -0.2951
  179fsi     O2 2107   0.868   1.098   1.381  1.0267 -0.3632  0.4506
  179fsi     S2 2108   0.863   1.209   0.999 -0.2540  0.0508 -0.2111
  179fsi     O3 2109   0.879   1.095   0.912 -0.0135  0.0742  0.2787
  179fsi     O4 2110   0.915   1.335   0.957 -0.1527 -0.1324  0.1029
  179fsi     F2 2111   0.713   1.232   1.001  0.4638 -0.3173 -0.2366
  180fsi     F1 2112   1.483   0.431   1.696 -0.1344  0.1702  0.1332
  180fsi     S1 2113   1.347   0.457   1.628  0.1630  0.0020  0.3854
  180fsi      N 2114   1.282   0.316   1.616 -0.1450  0.2312  0.3155
  180fsi     O1 2115   1.276   0.537   1.720 -0.6244  0.1844  0.0101
  180fsi     O2 2116   1.388   0.520   1.503  1.2185 -0.1225  0.1982
  180fsi     S2 2117   1.245   0.239   1.486  0.1990 -0.1732 -0.1409
  180fsi     O3 2118   1.214   0.313   1.368  0.0949 -0.3272  0.3248
  180fsi     O4 2119   1.169   0.119   1.514 -0.2663 -0.3622  0.4276
  180fsi     F2 2120   1.378   0.164   1.454 -0.3763  0.4334  0.0561
  181fsi     F1 2121   1.783   1.785   2.546  0.3991  0.1253 -0.4016
  181fsi     S1 2122   1.646   1.764   2.614  0.2445  0.2084 -0.1318
  181fsi      N 2123   1.592   1.908   2.611 -0.0668 -0.4473 -0.3373
  181fsi     O1 2124   1.581   1.672   2.524 -0.0183  0.1168  0.1169
  181fsi     O2 2125   1.692   1.719   2.744 -0.1963  0.1832 -0.3996
  181fsi     S2 2126   1.486   1.976   2.524 -0.0535  0.0037 -0.1503
  181fsi     O3 2127   1.400   2.066   2.593  0.0173  0.0193 -0.0304
  181fsi     O4 2128   1.417   1.887   2.438 -0.1032  0.4980  0.0280
  181fsi     F2 2129   1.572   2.072   2.436  0.2255  0.0193  0.5312
  182fsi     F1 2130   0.144   0.343   2.621 -0.1051  0.1828 -0.4767
  182fsi     S1 2131   0.197   0.476   2.571 -0.0500  0.0569  0.2493
  182fsi      N 2132   0.189   0.471   2.417 -0.4673  0.0572  0.5650
  182fsi     O1 2133   0.106   0.568   2.633  0.8380 -0.4817  0.1577
  182fsi     O2 2134   0.337   0.488   2.609  0.2094 -0.5863  0.3122
  182fsi     S2 2135   0.213   0.587   2.318 -0.4364  0.4148  0.1071
  182fsi     O3 2136   0.218   0.723   2.372  0.2246 -0.1605 -0.5193
  182fsi     O4 2137   0.143   0.570   2.193  0.1564  0.0381  0.2052
  182fsi     F2 2138   0.361   0.544   2.289 -0.0154  0.1385 -0.2201
  183fsi     F1 2139   2.753   2.653   1.524  0.4649  0.5029 -0.4508
  183fsi     S1 2140   2.717   2.806   1.509  0.2168  0.0961 -0.0574
  183fsi      N 2141   2.815   2.884   1.604  0.8309  0.1091 -0.1310
  183fsi     O1 2142   2.742   2.845   1.370  0.5278 -0.3598  0.0631
  183fsi     O2 2143   2.581   2.814   1.546  0.6878  0.1422 -0.7383
  183fsi     S2 2144   2.780   2.961   1.730 -0.2174  0.2287  0.5393
  183fsi     O3 2145   2.899   2.994   1.802 -0.5891 -0.3100  0.2618
  183fsi     O4 2146   2.664   2.910   1.802  0.0425  0.2620  0.2518
  183fsi     F2 2147   2.729   3.090   1.665 -0.1907  0.4296  0.3951
  184fsi     F1 2148   1.451   2.128   0.807  0.1924  0.5182  0.3616
  184fsi     S1 2149   1.510   2.241   0.902 -0.1510  0.3951 -0.2724
  184fsi      N 2150   1.566   2.160   1.024  0.2643  0.1151 -0.2208
  184fsi     O1 2151   1.616   2.294   0.820  0.5003  0.6357  0.3767
  184fsi     O2 2152   1.397   2.323   0.940  0.2607  0.6618  0.3869
  184fsi     S2 2153   1.498   2.116   1.152  0.4424 -0.1557 -0.3752
  184fsi     O3 2154   1.381   2.185   1.195 -0.4651  0.8924 -0.1127
  184fsi     O4 2155   1.599   2.088   1.251 -0.4434  0.3885  0.0491
  184fsi     F2 2156   1.437   1.979   1.110  0.4126  0.5874  0.1077
  185fsi     F1 2157   2.385   1.526   2.384 -0.0752 -0.5982  0.1701
  185fsi     S1 2158   2.352   1.379   2.440 -0.3592 -0.1383 -0.4526
  185fsi      N 2159   2.452   1.277   2.369  0.0360 -0.5853  0.0585
  185fsi     O1 2160   2.383   1.397   2.578 -0.2890  0.2305  0.2070
  185fsi     O2 2161   2.212   1.370   2.408 -0.3286 -0.1534 -0.1327
  185fsi     S2 2162   2.420   1.198   2.237  0.1781 -0.2145  0.4481
  185fsi     O3 2163   2.289   1.214   2.178 -0.4246 -0.5554  0.1355
  185fsi     O4 2164   2.478   1.064   2.239 -0.2955  0.0109  0.2093
  185fsi     F2 2165   2.513   1.258   2.128 -0.2901 -0.2683 -0.1419
  186fsi     F1 2166   1.002   2.780   1.439  0.3068 -0.0295  0.0902
  186fsi     S1 2167   0.858   2.768   1.490  0.0717 -0.2986 -0.1702
  186fsi      N 2168   0.863   2.616   1.548  0.4176  0.2386 -0.1630
  186fsi     O1 2169   0.853   2.867   1.591  0.1325 -0.1038 -0.0444
  186fsi     O2 2170   0.771   2.797   1.377 -0.3491  0.6118  0.1527
  186fsi     S2 2171   0.792   2.488   1.478  0.1351  0.0175  0.2160
  186fsi     O3 2172   0.685   2.518   1.387  0.1668  0.5556  0.1188
  186fsi     O4 2173   0.759   2.395   1.577  0.2533  0.3495 -0.0384
  186fsi     F2 2174   0.907   2.416   1.395 -0.2876 -0.2715  1.0648
  187fsi     F1 2175   1.720   1.077   2.982 -0.3672  0.1124  0.2175
  187fsi     S1 2176   1.678   1.043   3.124  0.3096 -0.3559  0.1587
  187fsi      N 2177   1.605   0.908   3.116 -0.5758 -0.0677  0.2598
  187fsi     O1 2178   1.809   1.023   3.182  0.1812 -0.0678  0.5715
  187fsi     O2 2179   1.598   1.154   3.174 -0.8027  0.4177  0.0653
  187fsi     S2 2180   1.661   0.763   3.101  0.2798  0.2734 -0.0440
  187fsi     O3 2181   1.623   0.673   3.210  0.4527 -0.2394 -0.0135
  187fsi     O4 2182   1.795   0.753   3.055  0.5457  0.1055 -0.9388
  187fsi     F2 2183   1.577   0.712   2.979  0.0899 -0.5861 -0.3316
  188fsi     F1 2184   0.043   0.287   1.430  0.1975  0.0667  0.6281
  188fsi     S1 2185   0.007   0.145   1.394  0.1818  0.2750 -0.0129
  188fsi      N 2186   0.067   0.124   1.252  0.0675 -0.2372 -0.6919
  188fsi     O1 2187   0.072   0.070   1.497 -0.4404  0.7403 -0.0977
  188fsi     O2 2188  -0.131   0.162   1.395 -0.1061 -0.1189 -0.3028
  188fsi     S2 2189  -0.005   0.092   1.119 -0.4253 -0.3720  0.0209
  188fsi     O3 2190  -0.128   0.020   1.129 -0.5845  0.0605  0.1651
  188fsi     O4 2191   0.089   0.060   1.021  0.4473 -0.0061  0.4974
  188fsi     F2 2192  -0.051   0.237   1.081  0.1395  0.2464 -0.2532
  189fsi     F1 2193   2.225   0.094   0.215 -0.2443 -0.0600 -0.1208
  189fsi     S1 2194   2.308   0.131   0.341  0.3828 -0.1221 -0.2194
  189fsi      N 2195   2.449   0.189   0.287 -0.8974 -0.1730 -0.1319
  189fsi     O1 2196   2.230   0.230   0.405  0.0617 -0.4863 -0.1727
  189fsi     O2 2197   2.314   0.006   0.401 -0.2704 -0.4217 -0.1533
  189fsi     S2 2198   2.488   0.335   0.299 -0.2003 -0.1904  0.2731
  189fsi     O3 2199   2.607   0.365   0.228 -0.1157  0.2649  0.8705
  189fsi     O4 2200   2.480   0.384   0.432  0.8956 -0.0466 -0.5669
  189fsi     F2 2201   2.375   0.408   0.217 -0.0891 -0.0113  0.0106
  190fsi     F1 2202   1.497   1.486   1.819  0.1810 -0.3279  0.7935
  190fsi     S1 2203   1.588   1.595   1.889  0.0685  0.1214 -0.6091
  190fsi      N 2204   1.560   1.585   2.045 -0.5128 -0.2208 -0.0217
  190fsi     O1 2205   1.720   1.550   1.858  0.4174 -0.5377  0.0188
  190fsi     O2 2206   1.546   1.717   1.830 -0.2769  0.1709 -0.2203
  190fsi     S2 2207   1.473   1.673   2.143  0.3276  0.1233  0.2668
  190fsi     O3 2208   1.441   1.607   2.266 -0.0216  0.6701 -0.3395
  190fsi     O4 2209   1.381   1.767   2.085 -0.3325  0.6501  0.4504
  190fsi     F2 2210   1.586   1.776   2.186  0.1783  0.0980 -0.0478
  191fsi     F1 2211   0.162   1.266   0.853 -0.1308  0.3401  0.2674
  191fsi     S1 2212   0.175   1.164   0.740 -0.3228 -0.0324 -0.1346
  191fsi      N 2213   0.031   1.155   0.689  0.4228 -0.1837 -0.3163
  191fsi     O1 2214   0.263   1.221   0.649  0.1264 -0.0052  0.1860
  191fsi     O2 2215   0.223   1.044   0.806  0.0937  0.2662 -0.4212
  191fsi     S2 2216  -0.093   1.095   0.761 -0.1503  0.1470  0.0865
  191fsi     O3 2217  -0.068   1.029   0.885 -0.2371 -0.2034 -0.0601
  191fsi     O4 2218  -0.178   1.025   0.667  0.4178  0.3133  0.3521
  191fsi     F2 2219  -0.175   1.221   0.796 -0.1264  0.0522 -0.2434
  192fsi     F1 2220   1.857   2.653   1.840 -0.5416  0.1333 -0.0597
  192fsi     S1 2221   1.717   2.723   1.868  0.2568 -0.3140 -0.0177
  192fsi      N 2222   1.723   2.849   1.771  0.6350  0.3592 -0.2922
  192fsi     O1 2223   1.620   2.625   1.827 -0.3889 -0.2425 -0.6439
  192fsi     O2 2224   1.704   2.757   2.005 -0.7892  0.0017  0.1098
  192fsi     S2 2225   1.627   2.878   1.648 -0.3173 -0.1525  0.3364
  192fsi     O3 2226   1.606   2.764   1.563  0.3605  0.2916  0.8499
  192fsi     O4 2227   1.651   3.000   1.580 -0.5452 -0.4880  0.6256
  192fsi     F2 2228   1.484   2.902   1.702 -0.5391 -0.3489  0.3159
  193fsi     F1 2229   2.087   1.517   0.120  0.1487 -0.2892 -0.4141
  193fsi     S1 2230   2.027   1.387   0.050  0.2537 -0.4603 -0.1550
  193fsi      N 2231   2.100   1.380  -0.089  0.1852  0.5140  0.0587
  193fsi     O1 2232   2.065   1.278   0.132  0.1965  0.3101  0.7858
  193fsi     O2 2233   1.886   1.411   0.039  0.5463  0.3320  0.0312
  193fsi     S2 2234   2.063   1.459  -0.215 -0.1872  0.6043  0.3938
  193fsi     O3 2235   1.961   1.558  -0.196  0.1627 -0.0116  0.3237
  193fsi     O4 2236   2.052   1.375  -0.331  0.2632  0.4119  0.1167
  193fsi     F2 2237   2.195   1.540  -0.240  0.0343  0.3285  0.2025
  194fsi     F1 2238   1.214   0.447   2.901  0.6165 -0.3956 -0.0978
  194fsi     S1 2239   1.077   0.365   2.902  0.1560  0.5072 -0.2909
  194fsi      N 2240   1.094   0.261   2.788  0.0156 -0.2609  0.5091
  194fsi     O1 2241   1.077   0.303   3.034  0.0051 -0.2190  0.6908
  194fsi     O2 2242   0.981   0.471   2.876 -0.4457 -0.3846 -0.0017
  194fsi     S2 2243   1.138   0.110   2.783  0.1755  0.0824  0.3897
  194fsi     O3 2244   1.187   0.066   2.910 -0.2956 -0.0975  0.1552
  194fsi     O4 2245   1.211   0.072   2.670 -0.3921 -0.0497  0.3876
  194fsi     F2 2246   1.008   0.047   2.759 -0.0709 -0.0416 -0.1709
  195fsi     F1 2247   2.494   1.283   0.904  0.3507  0.4664 -0.0234
  195fsi     S1 2248   2.517   1.297   1.064 -0.1039 -0.0486 -0.3360
  195fsi      N 2249   2.393   1.369   1.116  0.2482 -0.1637  0.4119
  195fsi     O1 2250   2.540   1.162   1.116 -0.0426  0.2364  0.5970
  195fsi     O2 2251   2.631   1.382   1.056  0.1565 -0.6050 -0.3328
  195fsi     S2 2252   2.275   1.316   1.205 -0.1252 -0.2368  0.2266
  195fsi     O3 2253   2.200   1.211   1.139 -0.2750 -0.0776 -0.3641
  195fsi     O4 2254   2.189   1.417   1.266  0.0864 -0.5544 -0.7009
  195fsi     F2 2255   2.352   1.251   1.339 -0.2580  0.2441 -0.0108
  196fsi     F1 2256   2.018   0.880   2.545 -0.5874  0.8001 -0.0321
  196fsi     S1 2257   2.050   0.946   2.404  0.2081 -0.0018 -0.0093
  196fsi      N 2258   1.914   0.923   2.329  0.0234  0.1448 -0.3256
  196fsi     O1 2259   2.072   1.087   2.437 -0.0963  0.1679  0.2074
  196fsi     O2 2260   2.164   0.881   2.350  0.1076 -0.5235 -0.1709
  196fsi     S2 2261   1.876   0.818   2.222  0.1421  0.3751 -0.6067
  196fsi     O3 2262   1.735   0.819   2.212  0.5544 -0.0321  0.6080
  196fsi     O4 2263   1.942   0.688   2.242  0.0605  0.6297  0.2791
  196fsi     F2 2264   1.925   0.876   2.089  0.2585  0.3442  0.2599
  197fsi     F1 2265   1.025   1.597   2.437  0.0396 -0.3267  0.5524
  197fsi     S1 2266   1.011   1.725   2.348 -0.2047  0.1430 -0.1370
  197fsi      N 2267   0.936   1.662   2.219  0.7096  0.6884 -0.3712
  197fsi     O1 2268   0.938   1.814   2.429 -0.1352 -0.4630 -0.7151
  197fsi     O2 2269   1.148   1.767   2.309  0.0917  0.3826  0.2862
  197fsi     S2 2270   0.779   1.647   2.186  0.0657 -0.3671  0.1505
  197fsi     O3 2271   0.692   1.614   2.300 -0.2757  0.3713  0.2254
  197fsi     O4 2272   0.759   1.564   2.070 -0.3011 -0.1868  0.3894
  197fsi     F2 2273   0.734   1.787   2.133 -0.8070 -0.0250 -0.0312
  198fsi     F1 2274   2.570   2.904   2.586 -0.4626 -0.7896 -0.0255
  198fsi     S1 2275   2.544   2.999   2.468 -0.1821 -0.0332  0.5384
  198fsi      N 2276   2.633   2.939   2.356  0.2303 -0.1423 -0.4042
  198fsi     O1 2277   2.406   2.979   2.447  0.1865  0.0066  0.1670
  198fsi     O2 2278   2.587   3.131   2.506 -0.4198  0.0390  0.3214
  198fsi     S2 2279   2.594   2.849   2.234 -0.0563 -0.2691 -0.3422
  198fsi     O3 2280   2.464   2.786   2.235 -0.1380 -0.0965  0.4778
  198fsi     O4 2281   2.700   2.764   2.187 -0.9460  0.3702 -0.0154
  198fsi     F2 2282   2.580   2.955   2.112 -0.2516 -0.6271 -0.1073
  199fsi     F1 2283   0.571   0.738   2.806  0.4811 -0.4382  0.1495
  199fsi     S1 2284   0.696   0.811   2.876  0.2343 -0.2035 -0.2935
  199fsi      N 2285   0.608   0.924   2.949 -0.8498  0.3133 -0.6666
  199fsi     O1 2286   0.760   0.711   2.962  0.3299 -0.1008 -0.1196
  199fsi     O2 2287   0.781   0.851   2.772 -0.4051  0.0684  0.1001
  199fsi     S2 2288   0.552   0.913   3.097 -0.1666  0.1188 -0.4003
  199fsi     O3 2289   0.507   0.775   3.137  0.5471 -0.4876  0.6930
  199fsi     O4 2290   0.456   1.020   3.119 -0.4891  0.0234 -0.2429
  199fsi     F2 2291   0.680   0.954   3.186  0.4224 -0.2741  0.2877
  200fsi     F1 2292   2.418   0.381   0.890  0.4113  0.6375  0.3481
  200fsi     S1 2293   2.270   0.393   0.855  0.1231 -0.0105 -0.3480
  200fsi      N 2294   2.227   0.531   0.917  0.1561 -0.3991  0.5492
  200fsi     O1 2295   2.283   0.408   0.712 -0.5528  0.2870  0.2494
  200fsi     O2 2296   2.217   0.270   0.906  0.2647 -0.0863 -0.0148
  200fsi     S2 2297   2.084   0.598   0.907 -0.6713 -0.3235 -0.0929
  200fsi     O3 2298   2.070   0.692   1.014 -0.5413 -0.1987 -0.3719
  200fsi     O4 2299   1.973   0.510   0.882 -0.7668 -0.5357 -0.2689
  200fsi     F2 2300   2.088   0.685   0.774 -0.4903 -0.2240 -0.0454
   3.01178   3.01178   3.01178
