simbox
 2300
    1Li      Li    1   1.860   1.738   2.963 -0.6600  0.2234  0.3012
    2Li      Li    2   0.977   2.698   2.770  0.1411 -0.2887 -0.3276
    3Li      Li    3   1.917   0.579   0.792  0.4116 -0.0710 -0.3002
    4Li      Li    4   1.822   0.467   0.163  0.2040 -0.3497  0.4856
    5Li      Li    5   1.874   0.042   2.896 -0.1031 -0.5020 -0.7615
    6Li      Li    6   1.101   0.622   1.813 -0.0309 -0.6984 -1.4207
    7Li      Li    7   2.196   2.544   2.863  0.6655 -0.8803 -1.0302
    8Li      Li    8   1.145   0.177   0.144 -0.1855 -0.5099  0.6858
    9Li      Li    9   1.281   1.524   2.443  0.7105 -0.7828 -0.4774
   10Li      Li   10   3.029   2.665   1.820 -0.0374  0.6992  0.5154
   11Li      Li   11   2.995   2.048   2.046  1.2248  0.4332 -0.2015
   12Li      Li   12   2.990   0.793   2.675  0.6692 -0.4814 -0.6211
   13Li      Li   13   0.648   2.629   1.424  0.9631  0.4259 -0.3271
   14Li      Li   14   1.770   0.277   1.560  0.4394  0.2684 -0.2041
   15Li      Li   15   0.472   2.786   2.478  0.3477  0.2711  0.4759
   16Li      Li   16   1.487   1.870   1.885  0.5289 -0.5468  1.1224
   17Li      Li   17   0.308   0.963   2.474 -0.0614  0.0973  0.2180
   18Li      Li   18   2.403   2.857   2.534 -0.7886  0.0675 -0.1672
   19Li      Li   19   0.679   2.225   1.008  0.1091 -0.3609  0.0365
   20Li      Li   20   2.325   0.661   0.625  0.8615 -0.6041 -0.2732
   21Li      Li   21   0.890   1.589   0.887  0.2637 -0.0811  0.7708
   22Li      Li   22   3.000   2.989   1.425  0.5719 -0.6468 -0.4914
   23Li      Li   23   1.362   0.597   1.288 -0.3814 -0.3207  0.2939
   24Li      Li   24   1.905   2.224   0.244 -0.3546 -0.3495 -0.6922
   25Li      Li   25   1.588   1.924   2.403 -0.7402  0.2078  0.6141
   26Li      Li   26   2.318   0.374   0.161  0.2405 -0.4820  0.0612
   27Li      Li   27   1.772   2.676   1.687  0.3587  0.5250  0.1007
   28Li      Li   28   1.439   1.275   0.041 -0.0503 -0.0074 -0.1168
   29Li      Li   29   0.859   0.825   2.240 -0.6222 -0.1005  0.4225
   30Li      Li   30   2.580   1.879   0.857 -0.4223  0.2200  0.4197
   31Li      Li   31   2.302   1.212   2.237  0.1608  0.3778 -0.7719
   32Li      Li   32   1.332   1.417   0.602 -0.8302  0.1562  0.0066
   33Li      Li   33   0.944   1.304   1.978  0.7038 -1.1158  0.1650
   34Li      Li   34   1.255   3.028   2.603 -0.0989  0.1463 -1.4082
   35Li      Li   35   2.330   1.995   1.487 -0.8057  0.6377  0.1675
   36Li      Li   36   2.708   0.910   2.382  0.9233 -0.4054 -0.0924
   37Li      Li   37   1.473   2.639   1.246 -0.5518 -0.3507 -0.0471
   38Li      Li   38   0.175   2.109   0.911 -0.7130 -0.0429 -0.0023
   39Li      Li   39   1.951   1.029   0.199  0.4959 -0.4297 -0.1359
   40Li      Li   40   0.276   0.947   3.024 -0.7868 -1.1354  0.1498
   41Li      Li   41   1.457   2.427   2.432  0.8327  1.0851 -0.4073
   42Li      Li   42   1.764   1.320   2.500 -0.1907  1.1776 -0.2861
   43Li      Li   43   0.044   0.990   0.997 -0.6153  0.2939  0.0356
   44Li      Li   44   1.710   2.537   0.760  0.1592  0.1429 -0.2837
   45Li      Li   45   2.101   1.533   1.791  0.8921 -0.3864 -0.2483
   46Li      Li   46   2.874   2.715   2.981 -0.4285  0.0812  0.4106
   47Li      Li   47   0.695   0.866   1.261 -0.4585 -0.2721 -1.0644
   48Li      Li   48   1.137   1.099   1.542  0.1558 -0.1871  0.5551
   49Li      Li   49   1.966   2.691   2.346 -0.1270  0.3017 -1.4429
   50Li      Li   50   1.769   2.150   1.358 -0.6212  0.0117 -0.6500
   51c3c      N   51   2.861   0.262   2.878  0.2794  0.2383 -0.1209
   51c3c     C1   52   2.919   0.144   2.940  0.2481  0.0219 -0.0099
   51c3c     C2   53   2.968   0.357   2.875  0.2564  0.4632 -0.7561
   51c3c     C3   54   3.059   0.130   2.875 -0.2434  0.0459 -0.1111
   51c3c     C4   55   3.096   0.273   2.851  0.6283 -0.0185  0.6237
   51c3c     C5   56   2.820   0.218   2.746  0.2047  0.1758 -0.7080
   51c3c     C6   57   2.735   0.314   2.935 -0.1568 -0.2638  0.6705
   51c3c     H1   58   2.856   0.056   2.928 -1.0433  0.9784 -0.3470
   51c3c     H2   59   2.923   0.160   3.047  0.9604  0.2568 -0.0656
   51c3c     H3   60   2.943   0.434   2.802  1.5111  2.3990  0.8009
   51c3c     H4   61   2.982   0.412   2.968 -2.7121 -1.3576  0.8330
   51c3c     H5   62   3.063   0.070   2.784 -2.5451 -2.4021  1.3525
   51c3c     H6   63   3.133   0.087   2.943 -1.1642 -1.2326  0.0998
   51c3c     H7   64   3.113   0.286   2.744  1.9010 -0.7973  0.7192
   51c3c     H8   65   3.173   0.314   2.917 -0.9425  1.3752  1.6201
   51c3c     H9   66   2.747   0.137   2.752  0.3925  0.0935  0.5219
   51c3c    H10   67   2.788   0.301   2.683 -0.2345 -0.2892 -1.0955
   51c3c    H11   68   2.890   0.164   2.681 -1.1765 -0.0476 -2.0489
   51c3c    H12   69   2.696   0.379   2.856  1.5577 -0.3651 -0.2798
   51c3c    H13   70   2.661   0.235   2.944 -1.4595  0.8883  0.2519
   51c3c     C7   71   2.738   0.386   3.072 -0.0281  0.3492 -0.9787
   51c3c    H14   72   2.820   0.457   3.077  1.7778 -1.7499  0.0946
   51c3c    H15   73   2.749   0.304   3.143 -0.3592  1.5315  0.4523
   51c3c     C8   74   2.601   0.457   3.093 -0.8106  0.4050  0.6394
   51c3c    H16   75   2.611   0.526   3.177 -2.6972  1.5463 -0.0218
   51c3c    H17   76   2.519   0.386   3.109  1.5515 -1.8383  3.3640
   51c3c    H18   77   2.566   0.519   3.011  0.7921 -0.1154 -0.4505
   52c3c      N   78   1.882   0.040   0.753 -0.1702  0.5317 -0.6964
   52c3c     C1   79   1.838   0.165   0.694  0.0339 -0.1417 -0.0113
   52c3c     C2   80   1.791  -0.063   0.698 -0.2410 -0.5839  1.0462
   52c3c     C3   81   1.803   0.133   0.548  0.0311 -0.3345  0.5527
   52c3c     C4   82   1.749  -0.008   0.557 -0.1778 -0.0314  0.0544
   52c3c     C5   83   2.011  -0.003   0.698  0.5459 -0.0398 -0.0806
   52c3c     C6   84   1.890   0.043   0.898 -0.0232  0.3999  0.0233
   52c3c     H1   85   1.905   0.250   0.706 -0.8129  0.9951 -2.8710
   52c3c     H2   86   1.745   0.204   0.736 -0.1347  0.3492 -0.8323
   52c3c     H3   87   1.827  -0.166   0.700  0.5152 -0.4063 -1.3914
   52c3c     H4   88   1.704  -0.069   0.762 -0.8528 -0.6255  0.2225
   52c3c     H5   89   1.892   0.145   0.487 -1.1242 -3.1498 -1.8162
   52c3c     H6   90   1.728   0.205   0.515 -1.5794 -0.0655  4.5329
   52c3c     H7   91   1.780  -0.075   0.477  0.9342  2.4135 -1.6600
   52c3c     H8   92   1.642  -0.006   0.539 -0.1915 -1.1152 -0.0054
   52c3c     H9   93   2.082   0.077   0.715 -1.0065  1.7488 -1.7437
   52c3c    H10   94   2.045  -0.098   0.738  1.3041  0.1611 -0.2469
   52c3c    H11   95   2.010  -0.007   0.589 -1.5188 -0.1108 -0.0878
   52c3c    H12   96   1.924  -0.053   0.938 -2.3084  0.1697  1.5218
   52c3c    H13   97   1.970   0.107   0.936  0.9501  0.3785 -1.9424
   52c3c     C7   98   1.760   0.090   0.975 -0.5504  0.6900 -0.1290
   52c3c    H14   99   1.678   0.025   0.941  1.0466 -0.9707 -0.9233
   52c3c    H15  100   1.743   0.194   0.948 -0.1146  0.7939 -0.0041
   52c3c     C8  101   1.784   0.068   1.121 -0.2743 -0.3786 -0.6854
   52c3c    H16  102   1.693   0.105   1.170 -0.0064  0.1403 -0.5762
   52c3c    H17  103   1.863   0.132   1.161 -0.7952  0.3466 -0.8081
   52c3c    H18  104   1.792  -0.035   1.155 -0.1445 -0.0567  0.2931
   53c3c      N  105   2.747   1.373   0.899 -0.4374 -0.6628 -0.0567
   53c3c     C1  106   2.717   1.335   1.040 -0.3222  0.5113  0.0841
   53c3c     C2  107   2.745   1.520   0.901  0.1485  0.7073  0.4080
   53c3c     C3  108   2.730   1.456   1.127 -0.1688  0.3137 -0.0004
   53c3c     C4  109   2.671   1.555   1.030 -0.4653  0.2608 -0.5338
   53c3c     C5  110   2.878   1.318   0.865  0.3947  0.4352 -0.1092
   53c3c     C6  111   2.647   1.315   0.815 -0.0906 -0.3624  0.0258
   53c3c     H1  112   2.757   1.242   1.082 -2.2665 -0.8329 -0.9295
   53c3c     H2  113   2.616   1.298   1.057  0.2929 -1.3878 -0.2914
   53c3c     H3  114   2.844   1.564   0.910  0.5436  0.1963 -1.3311
   53c3c     H4  115   2.700   1.567   0.814 -0.1168 -1.8910 -0.9183
   53c3c     H5  116   2.835   1.476   1.150  0.0405  0.3331 -0.9688
   53c3c     H6  117   2.662   1.455   1.213 -0.8109  0.3296 -0.5069
   53c3c     H7  118   2.707   1.652   1.062  1.0938  0.0493 -1.6251
   53c3c     H8  119   2.564   1.577   1.032 -0.6438 -0.6782  1.1623
   53c3c     H9  120   2.875   1.209   0.860 -2.3447  0.4392  0.4581
   53c3c    H10  121   2.910   1.350   0.766 -0.6095  0.3178 -0.4796
   53c3c    H11  122   2.956   1.353   0.932  0.2534 -0.5734  0.5982
   53c3c    H12  123   2.690   1.304   0.715  2.1527  0.5478  0.8679
   53c3c    H13  124   2.627   1.214   0.850  1.5368 -0.2192  1.4495
   53c3c     C7  125   2.506   1.381   0.791 -1.1556  0.6477 -0.3690
   53c3c    H14  126   2.515   1.467   0.725 -1.2387  0.4023 -0.7067
   53c3c    H15  127   2.456   1.435   0.871 -0.1528  0.2435  0.5364
   53c3c     C8  128   2.406   1.279   0.732 -0.4280 -0.3288 -0.4048
   53c3c    H16  129   2.419   1.247   0.628 -0.5947  1.1448 -0.8982
   53c3c    H17  130   2.302   1.312   0.728  0.1017  1.4569  0.2662
   53c3c    H18  131   2.396   1.192   0.796  1.0705 -1.1367 -1.2435
   54c3c      N  132   0.250   1.558   0.332 -0.5242 -0.1614 -1.1009
   54c3c     C1  133   0.315   1.482   0.228  0.1262 -0.1541 -0.0958
   54c3c     C2  134   0.107   1.574   0.293  0.3109  0.3369  0.1051
   54c3c     C3  135   0.205   1.380   0.198 -0.5250  0.2191  0.0067
   54c3c     C4  136   0.072   1.444   0.234  0.5604  0.0390 -1.3197
   54c3c     C5  137   0.254   1.477   0.457  0.4647  0.5865  0.1335
   54c3c     C6  138   0.323   1.681   0.372 -0.0162 -0.7097 -0.4274
   54c3c     H1  139   0.414   1.445   0.254 -0.2625 -1.1840 -0.0651
   54c3c     H2  140   0.339   1.548   0.144 -1.1237 -0.4107 -0.6621
   54c3c     H3  141   0.040   1.597   0.376  1.5747  1.0918  0.9157
   54c3c     H4  142   0.088   1.645   0.212 -2.8558 -0.8224 -0.2493
   54c3c     H5  143   0.205   1.290   0.259 -3.2856 -1.2025 -1.9589
   54c3c     H6  144   0.203   1.336   0.098 -0.4987 -1.1403  0.5958
   54c3c     H7  145   0.026   1.383   0.312  3.1470  2.4087  2.2068
   54c3c     H8  146   0.003   1.462   0.151  0.3459  1.6826 -0.8103
   54c3c     H9  147   0.352   1.472   0.503 -0.6855 -0.0052  2.6243
   54c3c    H10  148   0.196   1.522   0.538  1.1210  2.2327 -0.2949
   54c3c    H11  149   0.213   1.376   0.448  3.1341 -0.3954 -1.5932
   54c3c    H12  150   0.269   1.731   0.453  1.4893  0.2517  0.0013
   54c3c    H13  151   0.430   1.666   0.386  0.3652  1.5381 -0.7576
   54c3c     C7  152   0.320   1.791   0.257 -0.1804  0.2211 -0.3706
   54c3c    H14  153   0.220   1.813   0.220 -0.1826 -0.0675 -0.5374
   54c3c    H15  154   0.364   1.752   0.166  0.6459 -0.7354  0.4221
   54c3c     C8  155   0.381   1.923   0.294 -0.5249 -0.1878  0.2367
   54c3c    H16  156   0.356   1.965   0.391 -0.8292  2.3354 -0.8678
   54c3c    H17  157   0.361   1.999   0.218  0.5224 -0.3672 -0.2323
   54c3c    H18  158   0.488   1.903   0.307 -1.0191 -1.8300  1.9451
   55c3c      N  159   1.012   2.801   0.614 -0.3592  0.1274  0.4242
   55c3c     C1  160   0.906   2.808   0.727  0.4277 -0.3431  0.2544
   55c3c     C2  161   1.001   2.668   0.562  0.3524 -0.5739  0.1199
   55c3c     C3  162   0.804   2.702   0.683 -0.2206  0.2291 -1.0603
   55c3c     C4  163   0.858   2.628   0.559  0.0914 -0.0526 -0.0455
   55c3c     C5  164   0.973   2.896   0.510 -0.5621 -0.2444  0.4087
   55c3c     C6  165   1.148   2.840   0.657  0.7876 -0.2196 -0.2611
   55c3c     H1  166   0.870   2.909   0.752  1.2722  0.0750 -0.2061
   55c3c     H2  167   0.956   2.766   0.814  0.7976 -1.8458 -0.6737
   55c3c     H3  168   1.044   2.668   0.462 -0.9548 -1.2595 -0.4635
   55c3c     H4  169   1.052   2.589   0.617  0.2829 -0.4526  0.3592
   55c3c     H5  170   0.703   2.738   0.667 -0.5590  0.1179  0.7845
   55c3c     H6  171   0.804   2.626   0.761  0.4008  0.9617 -0.3393
   55c3c     H7  172   0.804   2.659   0.469 -0.3370  0.5746  0.4273
   55c3c     H8  173   0.850   2.519   0.558  2.2376 -0.2460 -1.8656
   55c3c     H9  174   0.966   3.002   0.535  1.1353  0.2544 -1.0901
   55c3c    H10  175   1.034   2.888   0.420  0.0311 -0.2179  0.8062
   55c3c    H11  176   0.876   2.871   0.465 -0.7933  2.0251 -0.4121
   55c3c    H12  177   1.208   2.853   0.566 -0.9121 -0.3021 -1.4145
   55c3c    H13  178   1.142   2.935   0.711  0.5510 -0.2119 -0.3006
   55c3c     C7  179   1.229   2.749   0.744  0.7007  0.4411  0.3091
   55c3c    H14  180   1.242   2.652   0.698 -0.9356  0.8726 -1.1170
   55c3c    H15  181   1.182   2.725   0.839 -0.1992  1.1976  0.0601
   55c3c     C8  182   1.355   2.817   0.781 -0.5340 -0.2145  0.0408
   55c3c    H16  183   1.415   2.846   0.694  0.5015  0.6800  1.0425
   55c3c    H17  184   1.423   2.746   0.828 -2.1032 -0.3789  2.1221
   55c3c    H18  185   1.342   2.902   0.848  2.6562 -0.6279  1.2495
   56c3c      N  186   1.800   1.975   0.717 -0.1830 -0.3226 -0.2552
   56c3c     C1  187   1.824   1.953   0.861 -0.5363  0.3009  0.6235
   56c3c     C2  188   1.654   1.958   0.708 -0.0044  0.5850  0.3491
   56c3c     C3  189   1.703   1.994   0.944 -0.4621 -0.1037  0.1117
   56c3c     C4  190   1.596   2.020   0.833 -0.1600  0.0030  0.4144
   56c3c     C5  191   1.829   2.112   0.681  0.3529 -0.3989 -0.3468
   56c3c     C6  192   1.886   1.888   0.632  0.0116  0.2283  0.0949
   56c3c     H1  193   1.907   2.018   0.888  0.5226 -0.5705 -0.4646
   56c3c     H2  194   1.844   1.848   0.884  0.5815  0.7853  1.9321
   56c3c     H3  195   1.612   2.003   0.618  2.9873  1.4199 -0.6583
   56c3c     H4  196   1.635   1.851   0.710 -0.2355  0.6405  2.0653
   56c3c     H5  197   1.717   2.076   1.014  0.8775  2.0270 -2.5873
   56c3c     H6  198   1.667   1.910   1.005 -0.7463 -0.6590 -0.8090
   56c3c     H7  199   1.592   2.128   0.821 -1.0750 -0.0359  0.3273
   56c3c     H8  200   1.498   1.979   0.860 -0.0992 -1.2925 -1.2743
   56c3c     H9  201   1.936   2.133   0.681  0.4830 -0.8877  2.2705
   56c3c    H10  202   1.797   2.139   0.581 -1.4298  1.2810  0.6548
   56c3c    H11  203   1.790   2.181   0.756 -0.6870 -0.5102 -0.7873
   56c3c    H12  204   1.868   1.916   0.528 -0.0775 -3.2012 -0.8718
   56c3c    H13  205   1.991   1.905   0.653  0.1147 -1.5555  1.1325
   56c3c     C7  206   1.858   1.733   0.646  0.2464 -0.6898  0.0837
   56c3c    H14  207   1.753   1.718   0.620  0.6563 -0.8421 -1.5399
   56c3c    H15  208   1.893   1.695   0.742 -0.1358  0.7780  0.8202
   56c3c     C8  209   1.941   1.653   0.547  0.0889 -0.9693  0.3096
   56c3c    H16  210   1.905   1.550   0.546 -0.6330 -0.7326  0.9579
   56c3c    H17  211   2.046   1.657   0.578  0.0121  0.7653  0.3666
   56c3c    H18  212   1.930   1.694   0.447 -1.8872  0.5123  1.1028
   57c3c      N  213   0.182   0.795   1.645 -0.1199  0.0007  0.3508
   57c3c     C1  214   0.075   0.853   1.715  0.7145  0.5163 -0.1068
   57c3c     C2  215   0.117   0.733   1.528  0.2407 -0.4479 -0.3441
   57c3c     C3  216  -0.025   0.916   1.613 -0.5468 -0.3433 -0.1539
   57c3c     C4  217  -0.015   0.819   1.499 -0.8344 -0.2603  0.6620
   57c3c     C5  218   0.273   0.909   1.595 -0.1148 -0.0175 -0.0906
   57c3c     C6  219   0.267   0.714   1.743 -0.0924  0.1853 -0.4315
   57c3c     H1  220   0.111   0.922   1.792  0.8114  0.3774 -0.0278
   57c3c     H2  221   0.010   0.782   1.768  0.1186 -0.0972 -1.6460
   57c3c     H3  222   0.183   0.709   1.445 -2.9062 -0.1943 -3.0147
   57c3c     H4  223   0.103   0.630   1.563  2.2627  0.1266  2.2653
   57c3c     H5  224   0.004   1.016   1.581 -4.7575  0.9465 -0.2205
   57c3c     H6  225  -0.130   0.912   1.644 -0.7188 -2.2218 -0.8682
   57c3c     H7  226  -0.018   0.868   1.401  0.8735 -1.6041 -0.0796
   57c3c     H8  227  -0.105   0.757   1.497 -0.5682 -0.6595  1.0028
   57c3c     H9  228   0.291   0.975   1.680 -0.1356 -0.8115  0.5354
   57c3c    H10  229   0.365   0.868   1.554 -0.3071 -3.3809  2.6099
   57c3c    H11  230   0.227   0.977   1.524 -0.8354 -0.1115  0.2705
   57c3c    H12  231   0.363   0.689   1.697 -0.5216 -1.6582 -0.3680
   57c3c    H13  232   0.278   0.778   1.830 -0.6036  1.7505 -1.4902
   57c3c     C7  233   0.216   0.582   1.794  0.2772  0.2145 -0.0296
   57c3c    H14  234   0.222   0.498   1.725  2.1040 -1.0775  1.6373
   57c3c    H15  235   0.112   0.591   1.823  0.2069  0.5163 -0.3722
   57c3c     C8  236   0.293   0.527   1.911 -1.0033  0.4641 -0.2283
   57c3c    H16  237   0.302   0.610   1.982 -5.2107  1.0680 -0.2657
   57c3c    H17  238   0.395   0.502   1.884 -1.1459 -1.4085  0.8957
   57c3c    H18  239   0.247   0.449   1.973  1.0840  1.0764  2.2074
   58c3c      N  240   3.047   2.145   0.323 -0.1791 -0.9260 -0.3331
   58c3c     C1  241   2.957   2.262   0.346 -0.4493  0.4535  0.3333
   58c3c     C2  242   3.153   2.185   0.226  0.2675  0.3396 -0.8397
   58c3c     C3  243   3.054   2.375   0.351  0.6791  0.0617  0.4847
   58c3c     C4  244   3.175   2.335   0.263  0.4419 -0.3462  0.6144
   58c3c     C5  245   3.115   2.117   0.456  0.4110 -0.6194 -0.4257
   58c3c     C6  246   2.973   2.022   0.294 -0.4251  0.2867 -0.2361
   58c3c     H1  247   2.896   2.248   0.435 -0.6151  3.4187  0.7562
   58c3c     H2  248   2.898   2.292   0.259  1.3252  1.0487 -0.6845
   58c3c     H3  249   3.245   2.128   0.228  0.5959  0.8899  1.9980
   58c3c     H4  250   3.122   2.171   0.122  1.8842 -0.0713 -1.2731
   58c3c     H5  251   3.086   2.405   0.451  0.3330  0.1257  0.5769
   58c3c     H6  252   3.007   2.464   0.311 -0.0823 -0.3986  0.3347
   58c3c     H7  253   3.269   2.343   0.317  1.2247 -1.6708 -0.5265
   58c3c     H8  254   3.200   2.396   0.177  0.9494  0.8403  1.5816
   58c3c     H9  255   3.046   2.092   0.537 -0.8960  1.2115 -0.9252
   58c3c    H10  256   3.177   2.028   0.454  0.0417 -0.9198  0.9986
   58c3c    H11  257   3.181   2.195   0.494  0.8818 -1.9251  1.4988
   58c3c    H12  258   3.046   1.943   0.283  0.9613  1.1207  2.4444
   58c3c    H13  259   2.914   1.991   0.380 -2.0432  0.8643 -1.1090
   58c3c     C7  260   2.892   2.027   0.161 -0.4650 -0.2075  0.1339
   58c3c    H14  261   2.964   2.032   0.079  1.3472 -2.1275  1.5665
   58c3c    H15  262   2.822   2.110   0.148  2.9272  2.6181 -1.0114
   58c3c     C8  263   2.805   1.909   0.129  0.1341 -0.0737 -0.0847
   58c3c    H16  264   2.846   1.809   0.140  1.4774  0.5977  1.1968
   58c3c    H17  265   2.768   1.913   0.027 -2.0939  0.3884  0.6923
   58c3c    H18  266   2.715   1.919   0.191  0.7565  0.8311  0.6747
   59c3c      N  267   0.743   2.032   2.418 -0.2854 -0.0474  0.2051
   59c3c     C1  268   0.704   1.935   2.315  0.1492  0.5208  0.1471
   59c3c     C2  269   0.622   2.060   2.486  0.9225 -0.0816 -0.3070
   59c3c     C3  270   0.601   1.838   2.378  0.5019  0.1210  0.1798
   59c3c     C4  271   0.532   1.931   2.477  0.4722 -0.3947  0.1892
   59c3c     C5  272   0.829   1.960   2.510  0.0282 -0.3548 -0.0842
   59c3c     C6  273   0.817   2.147   2.362  0.1615 -0.0495 -0.0141
   59c3c     H1  274   0.788   1.881   2.271  0.6622  2.5499 -1.3877
   59c3c     H2  275   0.649   1.972   2.228  0.3109 -0.5810 -0.4366
   59c3c     H3  276   0.636   2.086   2.591 -1.1655 -0.1699  0.0032
   59c3c     H4  277   0.570   2.137   2.430 -0.8060  0.0813  1.4466
   59c3c     H5  278   0.650   1.758   2.433 -0.7735  0.1780  1.4546
   59c3c     H6  279   0.533   1.791   2.307  0.9534  0.4495 -0.4634
   59c3c     H7  280   0.518   1.879   2.572 -1.5062 -1.4786 -0.6520
   59c3c     H8  281   0.434   1.970   2.451  0.5622  0.5176  1.1869
   59c3c     H9  282   0.916   1.906   2.474  1.2647  0.9109  0.9737
   59c3c    H10  283   0.861   2.035   2.582 -1.7489  0.3988 -0.0327
   59c3c    H11  284   0.783   1.885   2.575 -0.4836 -0.3948 -0.4803
   59c3c    H12  285   0.840   2.216   2.444 -0.2927  0.7798 -0.5825
   59c3c    H13  286   0.919   2.120   2.337  0.4181  0.0362  0.9296
   59c3c     C7  287   0.755   2.220   2.244  0.1509  0.6688 -0.1591
   59c3c    H14  288   0.660   2.267   2.269 -0.6708 -0.5791 -0.8488
   59c3c    H15  289   0.728   2.148   2.167  1.4114 -1.0329  0.9587
   59c3c     C8  290   0.849   2.328   2.198 -0.6599  0.5982 -0.0036
   59c3c    H16  291   0.787   2.384   2.128  1.1553 -1.0238 -3.0053
   59c3c    H17  292   0.927   2.277   2.142 -0.2814 -1.0353  1.9553
   59c3c    H18  293   0.890   2.392   2.276  0.1410  1.5267 -1.1687
   60c3c      N  294   2.477   0.210   1.266 -0.5240  0.0709 -0.3770
   60c3c     C1  295   2.531   0.256   1.393  0.9835 -0.1030 -0.3106
   60c3c     C2  296   2.565   0.102   1.227 -0.3914 -0.4044  0.0430
   60c3c     C3  297   2.573   0.135   1.475 -0.4865 -0.2051  0.5708
   60c3c     C4  298   2.615   0.035   1.361 -0.2678 -0.2317  0.8253
   60c3c     C5  299   2.347   0.156   1.287  0.2465  0.9557 -0.4024
   60c3c     C6  300   2.462   0.318   1.173 -0.8102 -0.0992 -0.7769
   60c3c     H1  301   2.465   0.331   1.438  0.9429 -0.7593  0.7440
   60c3c     H2  302   2.623   0.312   1.380 -1.3404  3.6954 -1.1836
   60c3c     H3  303   2.528   0.028   1.156  0.4412 -0.6182 -0.1763
   60c3c     H4  304   2.654   0.137   1.174 -0.2642  0.2817  0.7048
   60c3c     H5  305   2.507   0.089   1.548 -0.5200  0.1442  0.7605
   60c3c     H6  306   2.668   0.157   1.524 -0.6654 -2.1854  1.8775
   60c3c     H7  307   2.557  -0.056   1.377 -0.1090 -0.2741  1.1668
   60c3c     H8  308   2.721   0.009   1.363 -0.4313 -1.1108 -0.9290
   60c3c     H9  309   2.269   0.225   1.318  1.1879  2.0394 -0.4368
   60c3c    H10  310   2.310   0.108   1.196 -1.3389 -0.3958  0.9401
   60c3c    H11  311   2.354   0.077   1.361  0.8127  0.7515 -0.6712
   60c3c    H12  312   2.433   0.280   1.075  0.3565 -0.1365 -1.1205
   60c3c    H13  313   2.377   0.382   1.197 -0.4808  0.2729 -0.5939
   60c3c     C7  314   2.595   0.400   1.147  0.1260  0.0631  0.2804
   60c3c    H14  315   2.679   0.349   1.099 -0.5676 -2.6773  1.8591
   60c3c    H15  316   2.641   0.456   1.229  1.6970  0.5680 -0.9158
   60c3c     C8  317   2.574   0.516   1.051  0.1293 -0.1961  0.4874
   60c3c    H16  318   2.668   0.565   1.027  0.0919  0.8139  2.3382
   60c3c    H17  319   2.513   0.599   1.085  0.0432 -1.0704  2.5514
   60c3c    H18  320   2.532   0.489   0.955 -0.3462  0.7449  0.4348
   61c3c      N  321   2.421   0.763   1.562 -0.2735 -0.3980  1.0162
   61c3c     C1  322   2.482   0.895   1.548  0.1164 -0.2234 -0.1369
   61c3c     C2  323   2.434   0.702   1.425 -0.3080 -0.0968  0.0561
   61c3c     C3  324   2.590   0.878   1.442 -0.1821 -0.2572  0.6859
   61c3c     C4  325   2.571   0.750   1.374 -0.3706  0.3913  0.2505
   61c3c     C5  326   2.505   0.677   1.647  0.3180 -0.0767  0.2100
   61c3c     C6  327   2.292   0.763   1.626  0.4456  0.1909 -0.0204
   61c3c     H1  328   2.521   0.926   1.645 -1.3989 -1.6540  0.9586
   61c3c     H2  329   2.407   0.966   1.515  0.6978  1.6965  2.5381
   61c3c     H3  330   2.422   0.594   1.419  1.3525 -0.2755 -0.2072
   61c3c     H4  331   2.358   0.738   1.356 -0.8851 -1.6498 -0.1489
   61c3c     H5  332   2.688   0.878   1.490  0.2184 -1.9121 -0.0949
   61c3c     H6  333   2.585   0.969   1.382  0.6079  0.7472  2.0976
   61c3c     H7  334   2.660   0.691   1.396 -0.3019  0.5341  0.3541
   61c3c     H8  335   2.566   0.783   1.270  0.4744  1.6861  0.6017
   61c3c     H9  336   2.514   0.716   1.749  0.6363 -3.1419  1.3971
   61c3c    H10  337   2.456   0.581   1.659 -1.6441  0.6684 -1.4546
   61c3c    H11  338   2.607   0.657   1.614 -0.5153 -0.9843 -1.8702
   61c3c    H12  339   2.254   0.662   1.640 -0.7257  0.7479  0.9678
   61c3c    H13  340   2.298   0.816   1.721 -0.8564 -0.8129  0.6440
   61c3c     C7  341   2.177   0.822   1.543  0.2409 -0.1683  0.4473
   61c3c    H14  342   2.144   0.772   1.452  0.0466  0.7140  0.0382
   61c3c    H15  343   2.205   0.921   1.507 -0.3544 -0.1057  0.1590
   61c3c     C8  344   2.044   0.834   1.622  0.2522 -0.2076 -0.2969
   61c3c    H16  345   2.032   0.938   1.654 -0.4006 -0.8467  1.5830
   61c3c    H17  346   2.046   0.761   1.702  1.9445  0.2940  0.1321
   61c3c    H18  347   1.958   0.809   1.559 -0.8843  0.2198  1.0707
   62c3c      N  348   2.683   1.437   1.754 -0.1761 -0.1003 -0.3992
   62c3c     C1  349   2.575   1.365   1.687 -0.4126 -0.0175  0.0767
   62c3c     C2  350   2.792   1.346   1.760 -0.2537 -0.2236 -0.2467
   62c3c     C3  351   2.649   1.266   1.589 -0.2021 -0.5935 -0.0100
   62c3c     C4  352   2.790   1.272   1.629 -0.0402 -0.0078 -0.0826
   62c3c     C5  353   2.714   1.551   1.671 -0.1340 -0.3712 -0.0298
   62c3c     C6  354   2.638   1.502   1.879  0.2378 -0.5601  0.1936
   62c3c     H1  355   2.500   1.432   1.645  0.8348  1.0131 -0.5286
   62c3c     H2  356   2.523   1.304   1.761 -2.6749  0.8036 -0.7973
   62c3c     H3  357   2.889   1.394   1.779  0.0426 -0.9760  0.1684
   62c3c     H4  358   2.778   1.279   1.844 -0.8993 -1.3808 -1.2658
   62c3c     H5  359   2.655   1.289   1.482  0.9223 -0.9769 -0.0428
   62c3c     H6  360   2.600   1.170   1.600 -2.3719  0.6239  1.3212
   62c3c     H7  361   2.842   1.327   1.551  1.2491  0.6885  1.2492
   62c3c     H8  362   2.838   1.176   1.648  0.1406 -0.2740 -1.7646
   62c3c     H9  363   2.622   1.609   1.667 -0.0808  0.0883  3.9007
   62c3c    H10  364   2.806   1.587   1.717 -0.9411  1.4916  0.1359
   62c3c    H11  365   2.743   1.527   1.568  0.0627  0.3415 -0.1389
   62c3c    H12  366   2.724   1.559   1.915  0.4180 -0.0318 -1.0378
   62c3c    H13  367   2.556   1.573   1.866  1.2117  0.2520 -1.7104
   62c3c     C7  368   2.601   1.409   1.999 -0.2519  0.5207 -0.1332
   62c3c    H14  369   2.687   1.349   2.030  0.6204  0.9522 -1.6551
   62c3c    H15  370   2.514   1.346   1.978  0.6815 -0.2248 -1.8923
   62c3c     C8  371   2.568   1.478   2.139  0.3599 -0.1038 -0.2094
   62c3c    H16  372   2.474   1.533   2.133  1.7252  2.4328  0.6747
   62c3c    H17  373   2.651   1.541   2.173  0.2162  1.6196 -2.9101
   62c3c    H18  374   2.554   1.391   2.203 -0.9168  0.0801 -0.2275
   63c3c      N  375   2.078   2.170   2.046  1.0486 -0.1621  1.0895
   63c3c     C1  376   2.013   2.268   2.128 -0.5833 -0.3777  0.5341
   63c3c     C2  377   2.006   2.044   2.084  0.4485  0.1383 -0.3860
   63c3c     C3  378   1.866   2.236   2.140 -0.3469 -0.6458 -0.1384
   63c3c     C4  379   1.864   2.084   2.124  0.2881 -0.4817 -0.5457
   63c3c     C5  380   2.051   2.199   1.905 -0.0244 -0.2316  0.5300
   63c3c     C6  381   2.231   2.167   2.059  0.2029  0.2075  1.2476
   63c3c     H1  382   2.031   2.367   2.086  1.4756 -0.7635  0.4801
   63c3c     H2  383   2.052   2.283   2.228 -0.2270  2.8970 -0.0271
   63c3c     H3  384   2.017   1.973   2.002 -2.8753 -1.3357  0.3219
   63c3c     H4  385   2.054   2.004   2.173  4.2069  3.6797 -0.7050
   63c3c     H5  386   1.812   2.282   2.057 -0.6186 -2.0531 -0.7660
   63c3c     H6  387   1.830   2.277   2.234  0.2850  1.3102 -0.7249
   63c3c     H7  388   1.786   2.052   2.054  0.3392  0.2879 -0.9603
   63c3c     H8  389   1.828   2.038   2.215  0.2184  0.5161 -0.0564
   63c3c     H9  390   2.121   2.275   1.870 -2.6599  1.1262 -2.0540
   63c3c    H10  391   2.079   2.124   1.831 -0.6969 -0.3073  0.3466
   63c3c    H11  392   1.950   2.232   1.880 -0.2651 -1.3994 -0.0389
   63c3c    H12  393   2.262   2.097   1.981 -0.1764  1.5926 -0.1666
   63c3c    H13  394   2.259   2.269   2.032  3.0865 -0.6718  0.6484
   63c3c     C7  395   2.295   2.135   2.190  0.6937  0.0815 -0.2317
   63c3c    H14  396   2.288   2.029   2.216  0.3163  0.2296  0.2800
   63c3c    H15  397   2.242   2.186   2.270  0.7246  1.2042 -0.9138
   63c3c     C8  398   2.444   2.178   2.191  0.6430  0.0185 -0.0112
   63c3c    H16  399   2.483   2.162   2.292  0.2109  2.1360  0.5071
   63c3c    H17  400   2.462   2.282   2.166  1.6887 -0.6418 -2.1977
   63c3c    H18  401   2.507   2.108   2.135  0.3712 -0.1865 -0.0600
   64c3c      N  402   2.458   2.482   1.175  0.2757 -0.3773 -0.3289
   64c3c     C1  403   2.449   2.506   1.320  0.1711  0.3447  0.6106
   64c3c     C2  404   2.600   2.466   1.147 -0.2879 -1.2984 -0.1853
   64c3c     C3  405   2.558   2.416   1.382  0.4274 -0.1175  0.1560
   64c3c     C4  406   2.652   2.383   1.264  0.6530 -0.2619  0.0858
   64c3c     C5  407   2.385   2.355   1.155 -0.2783 -1.0080  0.1165
   64c3c     C6  408   2.403   2.580   1.078  0.8239  0.9287 -0.5103
   64c3c     H1  409   2.356   2.514   1.376 -0.0339 -0.5382  0.3973
   64c3c     H2  410   2.489   2.607   1.330  1.1487 -0.0295  0.5369
   64c3c     H3  411   2.633   2.420   1.054 -1.0188 -1.5976 -0.3001
   64c3c     H4  412   2.660   2.555   1.165 -0.0438 -1.5626  0.3033
   64c3c     H5  413   2.516   2.328   1.430  1.0915 -1.2572 -1.3023
   64c3c     H6  414   2.612   2.475   1.457  0.3836 -0.1502  0.2133
   64c3c     H7  415   2.635   2.279   1.235  1.2385 -0.5427  0.7385
   64c3c     H8  416   2.755   2.409   1.289  0.3210  0.2824  0.9026
   64c3c     H9  417   2.408   2.274   1.225 -0.4230  0.1730  1.5533
   64c3c    H10  418   2.280   2.371   1.180 -0.0449 -0.4303  0.7355
   64c3c    H11  419   2.409   2.321   1.054 -0.3476  1.0901 -0.6250
   64c3c    H12  420   2.410   2.548   0.974 -0.7999 -0.2606 -0.2784
   64c3c    H13  421   2.296   2.573   1.100  1.2448 -1.1696  0.9801
   64c3c     C7  422   2.451   2.720   1.096  0.1029  0.3021  0.6776
   64c3c    H14  423   2.558   2.731   1.077 -0.0159  1.0859  0.4344
   64c3c    H15  424   2.425   2.763   1.192  0.9614  0.6833  0.7462
   64c3c     C8  425   2.382   2.806   0.994  0.0581 -0.6382 -0.3300
   64c3c    H16  426   2.407   2.773   0.893 -0.9816 -0.9369 -0.5008
   64c3c    H17  427   2.416   2.907   1.014 -1.0672 -0.3862  0.3681
   64c3c    H18  428   2.273   2.815   0.999  0.2340  0.8286  1.0472
   65c3c      N  429   3.027   2.129   1.442  0.0595 -0.3281  0.0198
   65c3c     C1  430   3.108   2.194   1.335  0.4705 -0.0185  0.6847
   65c3c     C2  431   3.075   2.200   1.564  0.4037  0.2001 -0.3388
   65c3c     C3  432   3.114   2.349   1.369  0.4927  0.2506 -0.0611
   65c3c     C4  433   3.115   2.348   1.524 -0.2004  0.0061  0.2822
   65c3c     C5  434   2.882   2.156   1.435  0.3194  0.5110 -0.3358
   65c3c     C6  435   3.043   1.981   1.443  0.1842 -0.2369 -0.3388
   65c3c     H1  436   3.069   2.168   1.236  2.8243  1.6721 -0.7558
   65c3c     H2  437   3.212   2.162   1.334  0.6930  0.7064  0.1907
   65c3c     H3  438   3.013   2.192   1.654  2.0438 -1.2731  0.7025
   65c3c     H4  439   3.174   2.161   1.588  0.6048  0.8558 -0.0846
   65c3c     H5  440   3.031   2.408   1.332 -1.7085 -1.0635  2.5714
   65c3c     H6  441   3.199   2.403   1.329  1.9423 -2.2804 -0.5151
   65c3c     H7  442   3.053   2.419   1.578 -2.1884 -0.6649 -1.0537
   65c3c     H8  443   3.219   2.351   1.556  0.3542 -2.0388 -1.1971
   65c3c     H9  444   2.840   2.136   1.337  0.4734  2.0569 -0.7346
   65c3c    H10  445   2.833   2.097   1.512  1.9100 -0.4739 -0.0556
   65c3c    H11  446   2.865   2.263   1.450 -1.6051  0.9477 -4.6887
   65c3c    H12  447   2.975   1.928   1.511  0.7611 -2.0121 -1.1176
   65c3c    H13  448   3.008   1.937   1.350  1.5650 -0.4723 -0.7556
   65c3c     C7  449   3.185   1.919   1.468 -0.1586 -0.9616 -0.3728
   65c3c    H14  450   3.227   1.957   1.561 -1.6282 -1.1909  0.3924
   65c3c    H15  451   3.252   1.955   1.390  1.8499 -0.6960  1.4256
   65c3c     C8  452   3.182   1.765   1.484  0.8412  0.1256 -0.0169
   65c3c    H16  453   3.277   1.713   1.475  0.6081  0.0888 -2.5582
   65c3c    H17  454   3.099   1.716   1.432  0.9878 -0.8147  0.6272
   65c3c    H18  455   3.140   1.752   1.584  0.7425  2.0082  0.2082
   66c3c      N  456   1.484   2.791   0.025 -0.9461  0.2483  0.2807
   66c3c     C1  457   1.562   2.873   0.108 -0.3989  0.2177 -0.6194
   66c3c     C2  458   1.387   2.731   0.117 -0.0524 -0.1806  0.0267
   66c3c     C3  459   1.466   2.932   0.214  0.2306  0.2062  0.0237
   66c3c     C4  460   1.348   2.833   0.219  0.6750  0.7404 -0.2450
   66c3c     C5  461   1.408   2.879  -0.073 -0.0064  0.2017  0.1809
   66c3c     C6  462   1.567   2.697  -0.054 -0.4688  0.4667 -0.0201
   66c3c     H1  463   1.624   2.939   0.048  1.7919 -0.6485  0.6202
   66c3c     H2  464   1.640   2.817   0.160  0.5991  3.1355  1.1930
   66c3c     H3  465   1.302   2.703   0.055 -0.0076 -0.4757  0.0976
   66c3c     H4  466   1.427   2.645   0.172 -0.0938 -0.8917 -1.0360
   66c3c     H5  467   1.431   3.030   0.185 -0.8053 -0.2351 -0.2257
   66c3c     H6  468   1.509   2.946   0.313  2.0720 -1.9045 -0.4165
   66c3c     H7  469   1.251   2.872   0.188  1.6321  1.6773 -2.1599
   66c3c     H8  470   1.336   2.786   0.316 -0.0193  0.0740 -0.6523
   66c3c     H9  471   1.347   2.826  -0.146  1.6605 -0.9241 -0.4253
   66c3c    H10  472   1.335   2.947  -0.030  0.0584  1.3130 -1.4154
   66c3c    H11  473   1.486   2.927  -0.133 -0.2680 -0.3663 -0.6165
   66c3c    H12  474   1.510   2.657  -0.138 -2.1990 -2.5195  2.4601
   66c3c    H13  475   1.649   2.753  -0.099  0.2206 -0.8964 -0.4781
   66c3c     C7  476   1.628   2.583   0.033 -0.5703  0.0489  0.6004
   66c3c    H14  477   1.547   2.514   0.054  0.0967 -0.4514  1.6001
   66c3c    H15  478   1.670   2.623   0.126  3.6949 -0.4963 -0.9829
   66c3c     C8  479   1.721   2.487  -0.028 -0.3936  0.3706 -0.2830
   66c3c    H16  480   1.731   2.406   0.044 -1.8823  1.8038  1.5762
   66c3c    H17  481   1.815   2.534  -0.056  0.9179 -1.4426  0.9163
   66c3c    H18  482   1.688   2.437  -0.119  1.3711 -2.4369  0.5494
   67c3c      N  483   0.631   0.266   2.637 -1.0127  0.1422 -0.7193
   67c3c     C1  484   0.629   0.393   2.574 -0.8239 -0.3447 -0.6085
   67c3c     C2  485   0.768   0.268   2.700 -0.1554 -0.5160  0.3986
   67c3c     C3  486   0.762   0.398   2.502 -0.2920  0.2005  0.0404
   67c3c     C4  487   0.863   0.330   2.594 -0.1092  0.0965 -0.0883
   67c3c     C5  488   0.535   0.264   2.748 -0.0001 -0.2155 -0.7285
   67c3c     C6  489   0.606   0.147   2.553 -0.2590 -0.1761 -0.3541
   67c3c     H1  490   0.617   0.475   2.645 -1.4551 -0.3007 -0.7651
   67c3c     H2  491   0.545   0.416   2.508 -1.0128 -1.3811 -0.7420
   67c3c     H3  492   0.777   0.329   2.790 -3.4183 -1.5106  1.4549
   67c3c     H4  493   0.807   0.171   2.731  1.3319  0.3499  1.3021
   67c3c     H5  494   0.787   0.502   2.480 -0.3468 -0.1003 -1.5022
   67c3c     H6  495   0.737   0.341   2.412 -0.0580  1.6758 -0.9762
   67c3c     H7  496   0.935   0.403   2.631  1.1018 -1.3316  0.4205
   67c3c     H8  497   0.926   0.260   2.540  1.8320  2.9473 -1.6663
   67c3c     H9  498   0.435   0.276   2.707 -1.2047  0.2306  2.2291
   67c3c    H10  499   0.545   0.173   2.806  0.5946  0.6341  0.5448
   67c3c    H11  500   0.543   0.353   2.811  2.0942  0.9922 -2.6290
   67c3c    H12  501   0.697   0.118   2.501  0.7031  0.8643  0.7129
   67c3c    H13  502   0.595   0.056   2.612 -1.9512 -0.3113 -0.8662
   67c3c     C7  503   0.478   0.152   2.462  0.3495  0.1965 -0.3264
   67c3c    H14  504   0.478   0.225   2.381 -0.9732  1.0556  0.4224
   67c3c    H15  505   0.391   0.177   2.523  0.2456  0.8459 -0.7397
   67c3c     C8  506   0.452   0.020   2.391  0.4179  0.2696  0.1359
   67c3c    H16  507   0.532  -0.031   2.337  1.1753  1.0483  0.5020
   67c3c    H17  508   0.386   0.053   2.311 -0.6531  1.8682  1.6507
   67c3c    H18  509   0.403  -0.049   2.460  0.5366  0.5487  0.5061
   68c3c      N  510   0.703   0.115   1.182 -0.2235 -0.3459  0.1082
   68c3c     C1  511   0.676   0.244   1.231  0.0787 -0.0719 -0.0701
   68c3c     C2  512   0.571   0.053   1.163  0.1586  0.3147  0.6600
   68c3c     C3  513   0.541   0.284   1.164 -0.0856  0.2628 -0.4978
   68c3c     C4  514   0.477   0.157   1.104  0.2742 -0.1121 -0.3578
   68c3c     C5  515   0.758   0.136   1.050  0.1305 -0.3173 -0.0040
   68c3c     C6  516   0.792   0.032   1.267  0.1253  0.3049  0.3703
   68c3c     H1  517   0.755   0.319   1.220  0.1857  0.0198  1.2981
   68c3c     H2  518   0.666   0.251   1.339 -0.6080 -1.0696 -0.0616
   68c3c     H3  519   0.585  -0.043   1.114  0.8263  0.6318  0.2130
   68c3c     H4  520   0.530   0.030   1.261  0.3658 -2.0744  0.2298
   68c3c     H5  521   0.552   0.351   1.079  2.0151  1.4546  0.6640
   68c3c     H6  522   0.481   0.339   1.237 -1.5776 -1.3961 -0.4600
   68c3c     H7  523   0.476   0.152   0.995 -1.4435  0.8932 -0.4025
   68c3c     H8  524   0.371   0.153   1.128  0.3073  1.2585  0.1103
   68c3c     H9  525   0.862   0.169   1.059  0.5925 -0.6049 -3.5835
   68c3c    H10  526   0.756   0.041   0.995  1.3180 -0.5709  0.3762
   68c3c    H11  527   0.700   0.199   0.982  0.7458  0.9778  0.6509
   68c3c    H12  528   0.793  -0.070   1.229  0.0872  0.1054  0.9011
   68c3c    H13  529   0.888   0.084   1.261 -0.4785  1.5676  1.4086
   68c3c     C7  530   0.764   0.020   1.421  0.4622  0.2912 -0.1701
   68c3c    H14  531   0.688  -0.055   1.441 -1.0531  2.0240  0.7525
   68c3c    H15  532   0.727   0.111   1.469 -0.7711 -0.0041 -0.5402
   68c3c     C8  533   0.888  -0.003   1.502  0.3889 -0.5059 -0.0267
   68c3c    H16  534   0.967   0.069   1.479  0.2337 -1.0318 -2.3482
   68c3c    H17  535   0.930  -0.094   1.458  2.1528 -0.7989  2.1917
   68c3c    H18  536   0.869  -0.003   1.609 -0.8477 -4.3164 -0.2022
   69c3c      N  537   2.412   2.333   0.429  0.7118 -0.4968 -0.0473
   69c3c     C1  538   2.373   2.404   0.559  0.4290 -0.3743  0.1141
   69c3c     C2  539   2.555   2.352   0.418 -0.2358 -0.2036  0.5999
   69c3c     C3  540   2.490   2.381   0.651  0.5089 -0.2643  0.8870
   69c3c     C4  541   2.616   2.363   0.558  0.2257  0.0227 -0.2242
   69c3c     C5  542   2.398   2.188   0.447 -0.1124  0.2916 -0.4547
   69c3c     C6  543   2.337   2.381   0.310 -0.5477  0.6694 -0.0817
   69c3c     H1  544   2.277   2.372   0.600  0.1386 -0.5418 -0.6800
   69c3c     H2  545   2.373   2.512   0.548  1.4536 -0.4578 -0.7433
   69c3c     H3  546   2.614   2.278   0.365  2.0664  1.0758  1.2774
   69c3c     H4  547   2.582   2.444   0.367 -1.2023 -1.8695 -3.0266
   69c3c     H5  548   2.483   2.295   0.718 -2.1280 -2.2926 -1.8923
   69c3c     H6  549   2.507   2.466   0.718  0.8163 -0.0533  0.5467
   69c3c     H7  550   2.654   2.264   0.585 -1.1062 -0.1340  1.1464
   69c3c     H8  551   2.695   2.437   0.564  0.1497  0.2907 -2.0484
   69c3c     H9  552   2.299   2.152   0.476  0.4376  0.1063  1.2637
   69c3c    H10  553   2.420   2.133   0.356 -1.0581 -0.1465 -0.4271
   69c3c    H11  554   2.469   2.145   0.517  0.4832 -0.9251 -1.7882
   69c3c    H12  555   2.382   2.333   0.223  2.1578  0.3947  1.4283
   69c3c    H13  556   2.233   2.349   0.320  0.5564 -2.2712  2.8849
   69c3c     C7  557   2.339   2.541   0.288  0.0535 -0.6936  1.0909
   69c3c    H14  558   2.428   2.591   0.326  0.7862 -0.8261 -0.4116
   69c3c    H15  559   2.275   2.581   0.367 -0.3706  0.4360  0.1727
   69c3c     C8  560   2.287   2.586   0.154  0.3551  0.1618  0.6382
   69c3c    H16  561   2.294   2.694   0.141  1.3580 -0.0602 -0.8462
   69c3c    H17  562   2.179   2.568   0.147  0.4361 -0.7257  1.6460
   69c3c    H18  563   2.350   2.542   0.077 -1.5062  0.6853 -1.2456
   70c3c      N  564   0.393   2.508   1.957  0.6021 -0.1441 -0.3055
   70c3c     C1  565   0.530   2.464   1.979  0.0260 -0.2009  0.7757
   70c3c     C2  566   0.357   2.423   1.844  0.1453 -0.8592 -0.0946
   70c3c     C3  567   0.537   2.310   1.970 -0.7115  0.0620  0.1841
   70c3c     C4  568   0.422   2.286   1.870  0.7804 -0.2124 -0.8741
   70c3c     C5  569   0.305   2.467   2.068  0.0876 -0.1612 -0.0633
   70c3c     C6  570   0.377   2.656   1.934  0.2450  0.1084 -0.2394
   70c3c     H1  571   0.558   2.494   2.080 -2.1282 -0.0945  1.3855
   70c3c     H2  572   0.592   2.506   1.900 -0.8692  0.2854  0.3192
   70c3c     H3  573   0.248   2.427   1.846  0.0722 -2.6658  2.2943
   70c3c     H4  574   0.389   2.463   1.748  0.8474  2.2973  1.3711
   70c3c     H5  575   0.522   2.275   2.073 -1.0392 -1.0783 -0.2442
   70c3c     H6  576   0.630   2.265   1.936 -0.7795 -2.0736  2.5763
   70c3c     H7  577   0.349   2.216   1.912  0.4398  1.2726  1.0880
   70c3c     H8  578   0.469   2.234   1.787  1.4006 -0.5513 -0.3128
   70c3c     H9  579   0.339   2.511   2.162  2.7652 -1.4342 -0.3683
   70c3c    H10  580   0.201   2.499   2.059  0.6545  2.0690  1.0136
   70c3c    H11  581   0.304   2.360   2.090  1.8383 -0.3576 -0.8207
   70c3c    H12  582   0.269   2.671   1.927 -0.2337 -2.4781  1.2292
   70c3c    H13  583   0.412   2.706   2.024  1.0958  2.4331 -1.7876
   70c3c     C7  584   0.443   2.737   1.818  0.0090  0.4291 -0.1883
   70c3c    H14  585   0.431   2.691   1.721 -0.8327  0.6955 -0.2086
   70c3c    H15  586   0.552   2.736   1.831  0.1367  0.7316 -1.2567
   70c3c     C8  587   0.396   2.887   1.818 -0.1046  0.1059 -0.1392
   70c3c    H16  588   0.449   2.943   1.741 -3.8406  0.7118 -2.3521
   70c3c    H17  589   0.422   2.933   1.914  0.7402  2.0285 -1.2476
   70c3c    H18  590   0.293   2.895   1.785 -0.0303 -2.6913 -1.1578
   71c3c      N  591   1.323   0.077   1.234 -0.2161  0.1307  0.0943
   71c3c     C1  592   1.356   0.177   1.127  0.5202  0.2746  0.1040
   71c3c     C2  593   1.191   0.033   1.188 -0.3501  0.1312 -0.3309
   71c3c     C3  594   1.317   0.110   0.990 -0.1033 -0.1785  0.1695
   71c3c     C4  595   1.192   0.037   1.035 -0.4058 -0.1692  0.6256
   71c3c     C5  596   1.415  -0.034   1.231  0.3694  0.6037 -0.0137
   71c3c     C6  597   1.326   0.132   1.372  0.5135  0.6663 -0.4567
   71c3c     H1  598   1.462   0.201   1.119  0.8597 -0.8136  1.1697
   71c3c     H2  599   1.318   0.278   1.143  0.2431  0.1899 -0.0262
   71c3c     H3  600   1.159  -0.064   1.226 -1.1851 -0.3570 -2.2728
   71c3c     H4  601   1.119   0.109   1.219  0.2026  0.7599 -0.5709
   71c3c     H5  602   1.393   0.042   0.950  0.7618  0.1323  1.2777
   71c3c     H6  603   1.290   0.172   0.905  1.5150  0.4873  0.1204
   71c3c     H7  604   1.208  -0.059   0.987 -0.5635  0.1372 -0.0495
   71c3c     H8  605   1.104   0.086   0.992  1.2642  3.2458  0.9011
   71c3c     H9  606   1.514  -0.014   1.271 -0.3277  1.1078  1.4820
   71c3c    H10  607   1.377  -0.108   1.301  1.3395 -1.6557 -1.8401
   71c3c    H11  608   1.431  -0.079   1.133  0.8713  0.3415  0.1908
   71c3c    H12  609   1.314   0.043   1.433 -0.3954 -0.0014 -1.6016
   71c3c    H13  610   1.421   0.168   1.411 -1.7912  1.8993  4.4129
   71c3c     C7  611   1.222   0.243   1.412 -0.1585  0.4164  0.2287
   71c3c    H14  612   1.119   0.208   1.401 -0.0030  0.1320 -0.3054
   71c3c    H15  613   1.240   0.329   1.347  1.8187  0.0315  0.2341
   71c3c     C8  614   1.249   0.300   1.556 -0.0453  0.0005 -0.0062
   71c3c    H16  615   1.352   0.334   1.564 -1.0338  2.5728  3.2312
   71c3c    H17  616   1.210   0.236   1.635  0.3208 -1.3614 -0.9216
   71c3c    H18  617   1.191   0.393   1.560  0.0517  0.1006 -0.8131
   72c3c      N  618   1.109   0.714   0.193  0.1611  0.4720  0.2699
   72c3c     C1  619   1.213   0.820   0.185 -0.1564  0.2222 -0.9757
   72c3c     C2  620   1.011   0.749   0.093 -0.6294 -0.1968 -0.0615
   72c3c     C3  621   1.230   0.851   0.036  0.4449  0.2222 -0.5642
   72c3c     C4  622   1.097   0.793  -0.023  0.0331 -0.2162  0.3168
   72c3c     C5  623   1.168   0.586   0.156 -0.0443  0.4850  0.4143
   72c3c     C6  624   1.055   0.699   0.331  0.1441  0.7297  0.6360
   72c3c     H1  625   1.307   0.802   0.239 -1.7606 -1.8226  1.2562
   72c3c     H2  626   1.172   0.909   0.233 -0.1488  0.3472 -1.2003
   72c3c     H3  627   0.944   0.670   0.060 -2.3304  0.8388  0.8548
   72c3c     H4  628   0.940   0.828   0.119  0.0555  0.4841 -0.2352
   72c3c     H5  629   1.315   0.803  -0.012  0.1061 -2.2484  1.1742
   72c3c     H6  630   1.251   0.953   0.006 -0.7470  0.3438 -1.0035
   72c3c     H7  631   1.131   0.719  -0.095 -0.1513  0.6104 -0.6150
   72c3c     H8  632   1.054   0.876  -0.078  0.5748  0.1073  0.3777
   72c3c     H9  633   1.244   0.548   0.224  0.7999  0.8717 -0.3023
   72c3c    H10  634   1.098   0.503   0.160 -0.4839  0.7263 -1.6870
   72c3c    H11  635   1.213   0.572   0.058 -0.7986 -4.5652  0.6382
   72c3c    H12  636   0.977   0.623   0.328  2.4241 -1.6195  0.2231
   72c3c    H13  637   1.123   0.655   0.404 -1.4422 -3.1736 -0.1262
   72c3c     C7  638   0.981   0.816   0.394  0.0882  0.2158  0.4430
   72c3c    H14  639   0.895   0.851   0.338  1.6913  1.4063 -1.3171
   72c3c    H15  640   1.056   0.894   0.407  0.5569 -0.4678  2.0250
   72c3c     C8  641   0.948   0.775   0.540  0.3660  0.3770  0.4312
   72c3c    H16  642   0.879   0.691   0.543  0.2191  0.4829  0.0333
   72c3c    H17  643   0.911   0.861   0.595 -0.1196  0.3957  0.0733
   72c3c    H18  644   1.038   0.742   0.593  0.2678 -0.8897 -0.1693
   73c3c      N  645   2.852   2.382   2.471  0.1794  0.3520  0.1743
   73c3c     C1  646   2.943   2.481   2.422 -0.6149 -0.5340  0.0815
   73c3c     C2  647   2.798   2.446   2.594 -0.3340  0.0822  0.0820
   73c3c     C3  648   2.876   2.622   2.451 -0.1606  0.3023  0.6701
   73c3c     C4  649   2.761   2.590   2.553 -0.1720 -0.4554 -0.3984
   73c3c     C5  650   2.749   2.361   2.368  0.1278  0.4304  0.5394
   73c3c     C6  651   2.911   2.247   2.497 -0.3420  0.4708 -0.0082
   73c3c     H1  652   2.970   2.473   2.317 -0.1535 -0.9433  0.2319
   73c3c     H2  653   3.029   2.499   2.486 -0.2542 -0.8331 -0.3185
   73c3c     H3  654   2.717   2.386   2.635 -0.5993  0.5069  0.1818
   73c3c     H4  655   2.874   2.455   2.671  0.4107  0.5118 -0.6960
   73c3c     H5  656   2.835   2.641   2.352 -0.2129  0.7542  0.7805
   73c3c     H6  657   2.943   2.702   2.479 -2.2163  2.4245 -0.3127
   73c3c     H7  658   2.659   2.593   2.515 -1.1407 -3.1669  1.8260
   73c3c     H8  659   2.759   2.657   2.639  0.2710 -0.7290 -0.1695
   73c3c     H9  660   2.803   2.341   2.275  0.5895  2.8083  0.2640
   73c3c    H10  661   2.677   2.284   2.396  0.4265 -0.9495 -2.3388
   73c3c    H11  662   2.693   2.452   2.347 -0.5596 -0.5435 -2.0874
   73c3c    H12  663   2.835   2.178   2.536 -0.5080  0.1584 -0.8780
   73c3c    H13  664   2.949   2.209   2.403  1.6267 -0.1914  1.0331
   73c3c     C7  665   3.032   2.236   2.598  0.4783 -0.4846 -0.1744
   73c3c    H14  666   3.010   2.263   2.702 -0.1094  1.7721 -0.8495
   73c3c    H15  667   3.109   2.304   2.562 -0.3882 -0.4344 -1.9785
   73c3c     C8  668   3.088   2.093   2.615 -0.1698 -0.3551 -0.5689
   73c3c    H16  669   3.121   2.040   2.525  0.7275  2.0917 -1.7162
   73c3c    H17  670   3.009   2.030   2.656  0.3841 -1.1097 -0.6339
   73c3c    H18  671   3.175   2.101   2.681 -0.9930  2.8542  0.1722
   74c3c      N  672   0.269   1.332   2.026 -0.1696  0.1934 -0.4093
   74c3c     C1  673   0.144   1.255   2.014  0.4789 -0.4058 -0.0478
   74c3c     C2  674   0.263   1.436   1.924  0.6157 -0.3272 -0.8103
   74c3c     C3  675   0.038   1.361   1.965 -0.1527 -0.3565 -0.2482
   74c3c     C4  676   0.118   1.481   1.911 -0.3434 -0.4129 -0.2149
   74c3c     C5  677   0.274   1.400   2.153  0.9442  0.8586  0.2708
   74c3c     C6  678   0.391   1.245   2.023 -0.5990 -0.6207  0.5080
   74c3c     H1  679   0.103   1.203   2.101  2.1858 -1.1133  0.3577
   74c3c     H2  680   0.160   1.185   1.933  2.7263 -0.0113  0.0048
   74c3c     H3  681   0.331   1.519   1.944 -2.0770  1.4923  1.1388
   74c3c     H4  682   0.282   1.384   1.830 -1.7763 -1.6213 -0.6294
   74c3c     H5  683  -0.024   1.377   2.053  1.5791  1.4943  0.6808
   74c3c     H6  684  -0.026   1.317   1.889  0.6073 -0.6628 -0.7192
   74c3c     H7  685   0.116   1.564   1.982 -0.5390  0.6583 -1.4475
   74c3c     H8  686   0.082   1.511   1.813  0.8916 -0.5736 -0.7356
   74c3c     H9  687   0.281   1.330   2.236 -1.6351  1.7002  1.2634
   74c3c    H10  688   0.366   1.457   2.161  1.1654  0.5372  0.0580
   74c3c    H11  689   0.190   1.465   2.178 -0.2361 -0.6275  0.3217
   74c3c    H12  690   0.477   1.299   2.062 -0.0129 -1.3788  0.2618
   74c3c    H13  691   0.375   1.156   2.084 -3.5353 -1.1529 -0.9299
   74c3c     C7  692   0.427   1.189   1.888 -0.1463 -0.0587  0.9350
   74c3c    H14  693   0.452   1.254   1.804  0.6347 -0.9670  0.4559
   74c3c    H15  694   0.344   1.128   1.852 -0.1755  0.3397  0.3173
   74c3c     C8  695   0.541   1.082   1.905  0.0843 -0.2071 -0.4101
   74c3c    H16  696   0.629   1.124   1.952 -2.3579 -0.1265  4.3425
   74c3c    H17  697   0.572   1.043   1.807 -1.1034 -0.8633 -0.5307
   74c3c    H18  698   0.506   0.996   1.962 -2.7435 -0.8865 -3.0346
   75c3c      N  699   2.031   0.419   2.257 -0.5421 -0.1671  0.2599
   75c3c     C1  700   1.910   0.345   2.298 -0.1627  0.2404  0.4980
   75c3c     C2  701   2.037   0.516   2.368 -0.2214  0.1307  0.2836
   75c3c     C3  702   1.921   0.316   2.448 -0.4928 -0.5951  0.4168
   75c3c     C4  703   1.996   0.437   2.499  0.4079  1.1695  0.1489
   75c3c     C5  704   2.152   0.331   2.242  0.9727 -0.8855 -0.0932
   75c3c     C6  705   2.001   0.481   2.124  0.0914  0.2675 -0.1667
   75c3c     H1  706   1.892   0.255   2.239  1.8680  0.7959 -1.0201
   75c3c     H2  707   1.820   0.407   2.295  0.4974  1.2961  2.0560
   75c3c     H3  708   2.132   0.570   2.363 -0.3322  0.2093 -1.2004
   75c3c     H4  709   1.961   0.593   2.357 -0.2813  0.0953  0.4556
   75c3c     H5  710   1.980   0.227   2.471 -1.4079 -1.1564  0.6157
   75c3c     H6  711   1.833   0.285   2.505  0.1829 -1.1263  1.1847
   75c3c     H7  712   2.088   0.395   2.541 -0.4284  1.3195  2.2152
   75c3c     H8  713   1.922   0.480   2.566 -1.7312 -1.5600 -0.3542
   75c3c     H9  714   2.155   0.268   2.153 -0.4796 -1.6694  0.4038
   75c3c    H10  715   2.246   0.385   2.225  0.6496 -0.7618 -1.5320
   75c3c    H11  716   2.171   0.262   2.324  1.1690 -2.5631 -1.5283
   75c3c    H12  717   2.100   0.502   2.084 -0.4072 -0.3490 -1.7932
   75c3c    H13  718   1.953   0.407   2.060 -1.0357  1.2091 -0.4276
   75c3c     C7  719   1.913   0.603   2.123  0.0108  0.1894  0.0762
   75c3c    H14  720   1.962   0.690   2.168  1.1642 -1.0702  1.3080
   75c3c    H15  721   1.822   0.589   2.181 -0.4989  0.9002 -0.5442
   75c3c     C8  722   1.878   0.647   1.981 -0.5313  0.1489 -0.0365
   75c3c    H16  723   1.818   0.737   1.970  0.2985  0.5021 -1.8247
   75c3c    H17  724   1.823   0.560   1.945 -0.7885  0.8045 -1.2457
   75c3c    H18  725   1.970   0.655   1.924 -1.4097  0.5282 -1.4395
   76c3c      N  726   2.465   2.833   1.954 -0.0850  0.4609  0.0130
   76c3c     C1  727   2.331   2.895   1.951 -0.1605 -0.3330  0.5476
   76c3c     C2  728   2.544   2.936   1.886 -0.4021  0.2199  0.4064
   76c3c     C3  729   2.357   3.045   1.978 -0.0996  0.5696 -0.5667
   76c3c     C4  730   2.496   3.075   1.933 -0.5140 -0.2974 -0.8138
   76c3c     C5  731   2.508   2.830   2.097  0.4583 -0.1159 -0.7885
   76c3c     C6  732   2.461   2.697   1.899 -1.3681  0.2842 -0.4405
   76c3c     H1  733   2.256   2.858   2.021 -0.3590 -1.5915 -0.3142
   76c3c     H2  734   2.278   2.884   1.856  0.5068  2.0813 -0.1436
   76c3c     H3  735   2.648   2.911   1.906 -0.4933  0.0167  0.6297
   76c3c     H4  736   2.510   2.939   1.783 -0.0339  1.3855  0.3093
   76c3c     H5  737   2.344   3.072   2.083 -2.6673 -2.3724 -0.0711
   76c3c     H6  738   2.280   3.105   1.928 -0.8245  1.4249  1.4924
   76c3c     H7  739   2.553   3.107   2.021  0.4838  0.0197 -1.5745
   76c3c     H8  740   2.510   3.155   1.861 -2.4207  0.5306 -0.3114
   76c3c     H9  741   2.441   2.763   2.151  0.9899 -1.2723 -1.5480
   76c3c    H10  742   2.610   2.794   2.111  0.1052 -1.1479 -0.8625
   76c3c    H11  743   2.503   2.922   2.156  1.3364 -0.5106 -0.0832
   76c3c    H12  744   2.564   2.660   1.898 -1.8156 -1.0216 -2.8071
   76c3c    H13  745   2.396   2.629   1.954 -0.9878  0.1812 -0.1142
   76c3c     C7  746   2.403   2.683   1.761 -0.5353  0.1452 -0.3236
   76c3c    H14  747   2.478   2.734   1.700 -0.9561  0.0776 -0.9006
   76c3c    H15  748   2.300   2.717   1.748 -0.9292 -0.5609  0.8910
   76c3c     C8  749   2.408   2.538   1.705  0.7835 -0.5812 -0.7845
   76c3c    H16  750   2.506   2.520   1.662  1.6127 -0.0943  0.9034
   76c3c    H17  751   2.333   2.513   1.629 -0.5134 -1.5270  0.7786
   76c3c    H18  752   2.391   2.460   1.779  1.8864 -1.5932 -1.5753
   77c3c      N  753   0.537   2.385   3.047 -0.4607  0.4409  0.5432
   77c3c     C1  754   0.399   2.413   3.078 -0.4359  0.1757  0.6802
   77c3c     C2  755   0.533   2.280   2.945  0.4034 -0.2267 -0.2709
   77c3c     C3  756   0.328   2.413   2.940  0.1235  0.1093  0.0824
   77c3c     C4  757   0.409   2.318   2.853 -0.7519  0.2678 -0.9418
   77c3c     C5  758   0.625   2.492   2.996 -0.0066 -0.4558  1.1415
   77c3c     C6  759   0.606   2.355   3.172  0.5625 -0.3858  0.0601
   77c3c     H1  760   0.387   2.513   3.120  0.1307  0.5158  0.0440
   77c3c     H2  761   0.349   2.334   3.135  1.1161 -1.2273  0.1396
   77c3c     H3  762   0.623   2.256   2.889  0.9469 -0.6049  0.7497
   77c3c     H4  763   0.488   2.192   2.992  1.2114  0.0815  1.0973
   77c3c     H5  764   0.334   2.512   2.895 -0.3175  0.7725  1.4424
   77c3c     H6  765   0.220   2.400   2.945  0.0994  0.4567  0.5216
   77c3c     H7  766   0.448   2.384   2.776 -1.2605  0.9481 -0.6257
   77c3c     H8  767   0.347   2.235   2.818 -1.4629  0.5072 -0.2700
   77c3c     H9  768   0.635   2.572   3.070  2.9118  0.2864  0.0294
   77c3c    H10  769   0.726   2.456   2.979 -0.0044  0.5752 -1.1923
   77c3c    H11  770   0.595   2.541   2.904 -0.3893 -2.0657  0.4033
   77c3c    H12  771   0.709   2.321   3.156  0.1143 -1.6162 -0.2728
   77c3c    H13  772   0.619   2.438   3.241 -1.1647 -0.1267  0.0904
   77c3c     C7  773   0.563   2.235   3.256 -0.1435  0.0975  0.1629
   77c3c    H14  774   0.561   2.140   3.204 -0.0322 -1.0352  2.1927
   77c3c    H15  775   0.456   2.243   3.276 -0.0534  0.6830  0.4167
   77c3c     C8  776   0.635   2.219   3.395 -0.5914 -0.2547 -0.3697
   77c3c    H16  777   0.743   2.203   3.392 -0.8777 -2.3072 -0.2575
   77c3c    H17  778   0.605   2.127   3.444 -2.0824  1.6192  2.3702
   77c3c    H18  779   0.608   2.293   3.470 -0.2346 -0.1697 -0.3232
   78c3c      N  780   2.314   1.837   2.777  0.4516  0.4828  0.5745
   78c3c     C1  781   2.258   1.698   2.749  0.1519  0.0269 -0.2028
   78c3c     C2  782   2.414   1.843   2.666 -0.0674 -0.8418 -0.0831
   78c3c     C3  783   2.238   1.697   2.599 -0.0056  0.0798 -0.9301
   78c3c     C4  784   2.346   1.794   2.543  0.5300  0.3488  0.1257
   78c3c     C5  785   2.220   1.948   2.766 -0.3771  0.4636 -0.1883
   78c3c     C6  786   2.377   1.845   2.910 -0.0749  0.2707  0.1739
   78c3c     H1  787   2.173   1.681   2.815  0.2472 -1.6076 -0.4675
   78c3c     H2  788   2.324   1.615   2.777  0.1967  0.3737  0.7598
   78c3c     H3  789   2.456   1.941   2.644 -0.0551 -0.2276  2.5545
   78c3c     H4  790   2.507   1.786   2.674  0.2366 -0.5019 -1.0812
   78c3c     H5  791   2.140   1.732   2.565 -0.5503 -2.5707 -2.3094
   78c3c     H6  792   2.251   1.592   2.571 -1.6465 -0.4169  0.0610
   78c3c     H7  793   2.305   1.878   2.487  0.4851  0.2631  0.0303
   78c3c     H8  794   2.423   1.749   2.480  0.7012  1.3483 -0.3915
   78c3c     H9  795   2.132   1.930   2.827  1.0057 -1.1178  1.3807
   78c3c    H10  796   2.258   2.043   2.803  0.0762 -0.6727  2.3496
   78c3c    H11  797   2.168   1.961   2.671 -2.2983 -0.4686  0.6925
   78c3c    H12  798   2.416   1.945   2.931 -0.3518  0.5713 -0.7527
   78c3c    H13  799   2.304   1.840   2.991  0.8001 -1.4162  0.8912
   78c3c     C7  800   2.483   1.749   2.951 -0.0277 -0.5709  0.0421
   78c3c    H14  801   2.567   1.759   2.883  0.7678  0.6420  1.1731
   78c3c    H15  802   2.453   1.645   2.935 -0.6949 -0.4149  0.2428
   78c3c     C8  803   2.538   1.766   3.098  0.3944  0.0658 -0.1103
   78c3c    H16  804   2.564   1.869   3.120 -2.3147  0.7723  0.0559
   78c3c    H17  805   2.613   1.692   3.123 -1.3802 -2.9988 -3.3339
   78c3c    H18  806   2.457   1.751   3.170  1.5343 -3.4063  0.5449
   79c3c      N  807   2.547   1.271   0.142 -0.3054  0.3408 -0.2098
   79c3c     C1  808   2.581   1.370   0.250  0.3849  0.6338  0.3521
   79c3c     C2  809   2.422   1.199   0.185  0.2421  0.1152 -0.7701
   79c3c     C3  810   2.450   1.396   0.331  0.1053 -0.1578 -0.2152
   79c3c     C4  811   2.347   1.303   0.260  0.3834  0.0784  0.1259
   79c3c     C5  812   2.518   1.345   0.018 -0.1804 -0.6239  0.6136
   79c3c     C6  813   2.657   1.172   0.113 -0.4580 -0.2962 -0.1296
   79c3c     H1  814   2.624   1.456   0.200  2.9244 -0.4198  0.6692
   79c3c     H2  815   2.651   1.322   0.318  0.1350  1.2255  1.0286
   79c3c     H3  816   2.357   1.144   0.117 -0.5088  0.2879 -0.1946
   79c3c     H4  817   2.436   1.123   0.261  0.0958  1.2487  0.4003
   79c3c     H5  818   2.421   1.501   0.322  0.7480 -0.1265 -1.9690
   79c3c     H6  819   2.464   1.374   0.437  2.0177  0.5730 -0.2858
   79c3c     H7  820   2.287   1.361   0.189  0.4782  2.3477  1.8497
   79c3c     H8  821   2.280   1.265   0.336 -0.5298 -0.8588 -1.1365
   79c3c     H9  822   2.602   1.398  -0.028 -1.7609  1.9108  0.5102
   79c3c    H10  823   2.478   1.280  -0.060 -1.8237  1.2809 -0.1728
   79c3c    H11  824   2.443   1.424   0.028  0.5507  0.2435 -0.6538
   79c3c    H12  825   2.630   1.105   0.032 -1.8753 -0.2352  0.2761
   79c3c    H13  826   2.738   1.237   0.080  0.7079 -1.2951  0.7247
   79c3c     C7  827   2.702   1.084   0.235 -0.0096  0.3785 -0.5083
   79c3c    H14  828   2.626   1.007   0.247 -0.4857  0.3568 -3.3010
   79c3c    H15  829   2.720   1.138   0.329 -1.1093  1.2693 -0.7958
   79c3c     C8  830   2.838   1.018   0.209  0.7206  0.1270  0.0364
   79c3c    H16  831   2.920   1.085   0.185  0.4993  0.2702 -0.3229
   79c3c    H17  832   2.824   0.968   0.113  3.9324  0.1023 -0.4711
   79c3c    H18  833   2.866   0.942   0.282 -1.5408 -0.6949  0.0768
   80c3c      N  834   1.676   1.129   1.805  0.5514 -0.1229  0.0770
   80c3c     C1  835   1.654   1.261   1.858 -0.1164 -0.0797 -0.8458
   80c3c     C2  836   1.569   1.117   1.708 -0.0058  0.4936 -0.6767
   80c3c     C3  837   1.621   1.352   1.742  0.7290 -0.5670 -0.8073
   80c3c     C4  838   1.568   1.258   1.636  0.1116  0.2886  0.0520
   80c3c     C5  839   1.805   1.123   1.733 -0.5364 -0.3877  0.5830
   80c3c     C6  840   1.674   1.024   1.914  0.3555  0.3577  0.7135
   80c3c     H1  841   1.745   1.300   1.904 -1.0642  3.2685 -1.6675
   80c3c     H2  842   1.574   1.272   1.931  0.8394  0.9352  0.0664
   80c3c     H3  843   1.592   1.032   1.644 -0.0499 -0.3879  0.4760
   80c3c     H4  844   1.467   1.089   1.736 -0.1312  0.4197 -1.2011
   80c3c     H5  845   1.699   1.419   1.704 -0.5528  2.1818  1.2389
   80c3c     H6  846   1.540   1.419   1.769 -0.4361 -2.1574 -0.2961
   80c3c     H7  847   1.629   1.262   1.545  0.6967  1.2307  0.4839
   80c3c     H8  848   1.467   1.281   1.601  0.7595 -0.1496 -2.2344
   80c3c     H9  849   1.884   1.148   1.805 -0.4926 -1.2108  0.8210
   80c3c    H10  850   1.819   1.027   1.685 -0.9931  0.7205 -1.8222
   80c3c    H11  851   1.825   1.190   1.650 -1.3298 -0.7141  0.1222
   80c3c    H12  852   1.664   0.932   1.857 -0.2940  1.9280 -1.8076
   80c3c    H13  853   1.772   1.016   1.960  1.2946  1.5026 -1.0323
   80c3c     C7  854   1.552   1.030   2.017  0.0075 -0.4745 -0.0243
   80c3c    H14  855   1.462   1.070   1.970  0.4120 -0.1813 -0.5557
   80c3c    H15  856   1.580   1.100   2.096 -1.0445 -2.3774  2.0932
   80c3c     C8  857   1.553   0.890   2.098  0.3088  0.1091 -0.5633
   80c3c    H16  858   1.520   0.804   2.039 -1.6261  0.4771 -0.0682
   80c3c    H17  859   1.475   0.897   2.174 -0.9457  1.7707 -1.9494
   80c3c    H18  860   1.651   0.865   2.138  0.2751 -2.7074 -2.0654
   81c3c      N  861   0.525   0.927   0.636  0.0877  1.1548  0.1254
   81c3c     C1  862   0.551   0.795   0.563 -0.3935  0.5260 -0.3174
   81c3c     C2  863   0.395   0.913   0.701 -0.0698 -0.0382 -0.4644
   81c3c     C3  864   0.421   0.715   0.577 -0.2399  0.7687 -0.6047
   81c3c     C4  865   0.313   0.819   0.615  0.7529  0.5691 -0.0535
   81c3c     C5  866   0.628   0.947   0.740 -0.8435 -0.0657 -0.0254
   81c3c     C6  867   0.542   1.043   0.549  0.8403 -0.0924 -0.3256
   81c3c     H1  868   0.620   0.739   0.625  1.5579  3.5297  0.3294
   81c3c     H2  869   0.582   0.802   0.459 -1.0881  0.7077 -0.5188
   81c3c     H3  870   0.401   0.888   0.807  0.2444 -2.0868 -0.9460
   81c3c     H4  871   0.348   1.011   0.696 -2.5157 -0.9792  2.3498
   81c3c     H5  872   0.423   0.632   0.648 -1.0772  1.2385 -0.0194
   81c3c     H6  873   0.384   0.685   0.479 -0.6388  1.0781 -0.5532
   81c3c     H7  874   0.243   0.752   0.666  0.2461  1.1681  0.0471
   81c3c     H8  875   0.276   0.856   0.520 -0.3184 -1.3991 -0.4366
   81c3c     H9  876   0.730   0.971   0.712 -1.1892  2.2761  0.6335
   81c3c    H10  877   0.600   1.033   0.800 -2.4142  1.0159 -2.2641
   81c3c    H11  878   0.627   0.871   0.819  5.2882 -0.7224 -0.3341
   81c3c    H12  879   0.531   1.140   0.597 -2.3380 -0.9679  0.8633
   81c3c    H13  880   0.644   1.028   0.512  0.3740 -1.5940 -1.0378
   81c3c     C7  881   0.443   1.052   0.431 -0.1209  0.0943 -0.2446
   81c3c    H14  882   0.343   1.080   0.464  0.3999  1.1961  0.4063
   81c3c    H15  883   0.437   0.955   0.381  2.2441 -0.5258  0.6052
   81c3c     C8  884   0.492   1.146   0.322 -0.2857  0.0507  0.0458
   81c3c    H16  885   0.596   1.146   0.288 -0.1516 -2.8267  0.3009
   81c3c    H17  886   0.475   1.247   0.358  0.1048 -0.5948  2.0753
   81c3c    H18  887   0.430   1.133   0.233 -0.9504 -0.8446  0.6221
   82c3c      N  888   1.427   0.780   2.596  0.1982 -0.1493  0.3110
   82c3c     C1  889   1.466   0.639   2.563 -0.4022  0.1757  0.1813
   82c3c     C2  890   1.469   0.782   2.737  0.4134 -0.3590 -0.1005
   82c3c     C3  891   1.611   0.612   2.628  0.2382 -0.5352  0.2140
   82c3c     C4  892   1.605   0.716   2.742 -0.0789  0.3950 -0.2351
   82c3c     C5  893   1.502   0.880   2.517 -0.4451 -0.5318 -0.3580
   82c3c     C6  894   1.281   0.802   2.573  0.5515 -0.0875 -0.1713
   82c3c     H1  895   1.467   0.604   2.459 -0.8245 -2.9185  1.1596
   82c3c     H2  896   1.391   0.568   2.599  0.4197 -0.7926  0.0276
   82c3c     H3  897   1.472   0.879   2.786  2.2160 -0.4231 -0.0550
   82c3c     H4  898   1.398   0.728   2.800 -1.2103  2.3490  0.4792
   82c3c     H5  899   1.688   0.625   2.552  1.7985 -2.1128  1.4857
   82c3c     H6  900   1.618   0.512   2.670 -0.3036 -0.4407  0.5385
   82c3c     H7  901   1.689   0.785   2.736  0.9414 -1.0039 -2.6664
   82c3c     H8  902   1.606   0.667   2.840  0.5339 -2.5158 -1.6708
   82c3c     H9  903   1.470   0.897   2.415  0.0770  0.5510 -0.3474
   82c3c    H10  904   1.504   0.981   2.557 -1.2335  0.3588 -2.5368
   82c3c    H11  905   1.607   0.853   2.511 -0.5218 -0.9132 -0.0124
   82c3c    H12  906   1.250   0.905   2.587  1.1018 -0.0905  1.1027
   82c3c    H13  907   1.261   0.776   2.469 -2.3885 -1.4917  0.7144
   82c3c     C7  908   1.177   0.726   2.661 -0.7141  0.2357  0.6343
   82c3c    H14  909   1.163   0.782   2.753 -0.6364 -1.0519  1.4333
   82c3c    H15  910   1.208   0.625   2.687 -0.2817  0.4319  0.8765
   82c3c     C8  911   1.040   0.720   2.594  0.4607 -0.2427 -0.1789
   82c3c    H16  912   1.051   0.692   2.489 -1.7634  0.2926 -0.5956
   82c3c    H17  913   1.000   0.821   2.590 -2.4600 -1.3440 -0.1874
   82c3c    H18  914   0.964   0.654   2.637  0.1255 -0.7388 -1.5067
   83c3c      N  915   2.988   0.378   0.661 -0.2196 -0.9747 -0.3235
   83c3c     C1  916   2.867   0.352   0.736  0.7528  0.0248 -1.0920
   83c3c     C2  917   3.080   0.416   0.766 -0.6434  0.2189 -0.8319
   83c3c     C3  918   2.908   0.279   0.868 -0.9150  0.5446 -0.7091
   83c3c     C4  919   3.057   0.316   0.883  0.1116 -0.2191 -0.7438
   83c3c     C5  920   3.027   0.258   0.594 -0.0809 -0.0266 -0.2993
   83c3c     C6  921   2.983   0.484   0.556 -0.0232 -0.1852  0.6045
   83c3c     H1  922   2.798   0.295   0.674  1.3500  0.0024 -1.7529
   83c3c     H2  923   2.816   0.447   0.754  1.8794  0.4582 -0.0866
   83c3c     H3  924   3.180   0.433   0.725  0.3284  0.9538  1.7044
   83c3c     H4  925   3.054   0.509   0.816 -0.5361 -1.6611  2.9031
   83c3c     H5  926   2.897   0.171   0.865  1.5147  0.2476 -0.0998
   83c3c     H6  927   2.843   0.312   0.949 -0.3721 -0.2599  0.0641
   83c3c     H7  928   3.106   0.219   0.883  0.0115 -0.2769  0.2403
   83c3c     H8  929   3.081   0.356   0.982 -0.7698  0.3228 -0.7408
   83c3c     H9  930   2.949   0.229   0.524  1.5984 -0.6255 -1.9562
   83c3c    H10  931   3.123   0.270   0.543  0.1851  0.4600  0.2985
   83c3c    H11  932   3.039   0.167   0.653 -0.2144  0.7519  0.9469
   83c3c    H12  933   3.084   0.488   0.516  0.5067 -0.1219  1.9454
   83c3c    H13  934   2.934   0.454   0.463  1.8099  1.2179 -0.8572
   83c3c     C7  935   2.942   0.625   0.597  0.2011 -0.7394  0.2502
   83c3c    H14  936   3.010   0.659   0.676 -0.1557  1.3103 -0.3027
   83c3c    H15  937   2.845   0.617   0.646 -0.2253  0.8856 -0.2943
   83c3c     C8  938   2.938   0.730   0.479  0.0461 -0.1845  0.2111
   83c3c    H16  939   2.892   0.684   0.392 -1.2881  1.8060 -0.1642
   83c3c    H17  940   3.043   0.741   0.452  0.0603  1.2099  0.7889
   83c3c    H18  941   2.885   0.815   0.520 -0.5719 -1.1183  1.3990
   84c3c      N  942   1.453   1.977   3.000 -0.4132  1.0621  0.5725
   84c3c     C1  943   1.334   2.065   2.978 -0.1395 -0.3380  0.0818
   84c3c     C2  944   1.538   1.992   2.879  0.5101  0.6274  1.0617
   84c3c     C3  945   1.391   2.192   2.901 -0.4213 -0.0354 -0.0155
   84c3c     C4  946   1.518   2.136   2.834 -0.5974  0.3060  0.3662
   84c3c     C5  947   1.526   2.032   3.116 -0.2736  0.2392 -0.4188
   84c3c     C6  948   1.417   1.836   3.030 -0.2179 -0.0254 -0.2765
   84c3c     H1  949   1.288   2.094   3.072  0.6642 -0.1267  0.4176
   84c3c     H2  950   1.261   2.014   2.915  0.0408  1.0458 -1.2563
   84c3c     H3  951   1.641   1.957   2.884  0.2238 -0.0970  2.0681
   84c3c     H4  952   1.492   1.931   2.801 -1.5671 -0.9167  3.3812
   84c3c     H5  953   1.404   2.273   2.972 -1.8088  0.9604 -0.8774
   84c3c     H6  954   1.326   2.236   2.825 -0.5079 -1.2448 -0.6612
   84c3c     H7  955   1.608   2.194   2.854  0.3653 -1.5496  1.4922
   84c3c     H8  956   1.501   2.147   2.727  0.8700  1.2191  0.2103
   84c3c     H9  957   1.469   2.020   3.208 -0.5604  0.2726 -0.5898
   84c3c    H10  958   1.613   1.974   3.146 -1.0648 -1.2529 -0.9390
   84c3c    H11  959   1.568   2.131   3.097  0.3444 -0.1026 -0.8886
   84c3c    H12  960   1.500   1.773   3.063  0.3344  0.9674  0.2376
   84c3c    H13  961   1.353   1.848   3.117  0.6545 -0.1229  0.3898
   84c3c     C7  962   1.342   1.760   2.918  0.1636 -0.2970 -0.4663
   84c3c    H14  963   1.415   1.715   2.851  1.3030 -1.2811  1.4145
   84c3c    H15  964   1.267   1.817   2.863  1.6218  0.2690 -1.9052
   84c3c     C8  965   1.263   1.644   2.977 -0.1896 -0.5751  0.5035
   84c3c    H16  966   1.323   1.577   3.038 -0.5767 -1.1908  0.2128
   84c3c    H17  967   1.208   1.582   2.905  2.2531 -0.5131 -1.4847
   84c3c    H18  968   1.179   1.682   3.035 -0.5614 -0.3483 -0.1706
   85c3c      N  969   2.921   0.260   2.119 -0.3791 -0.8593 -0.1716
   85c3c     C1  970   3.006   0.235   2.003  0.5630  0.5549  0.5752
   85c3c     C2  971   2.937   0.403   2.144 -0.5669 -0.2140  0.7816
   85c3c     C3  972   2.997   0.359   1.909 -0.7012  0.2531 -0.4836
   85c3c     C4  973   2.956   0.468   2.007  0.1580 -0.4274 -0.6824
   85c3c     C5  974   2.778   0.245   2.090  0.0606  0.3221 -0.4935
   85c3c     C6  975   2.952   0.176   2.233 -0.0787 -0.1976 -0.0380
   85c3c     H1  976   2.975   0.144   1.951 -4.2505  0.6892  2.9330
   85c3c     H2  977   3.112   0.229   2.028  0.3840 -1.0587  0.9673
   85c3c     H3  978   2.854   0.437   2.206 -1.7470 -1.9355  0.1873
   85c3c     H4  979   3.027   0.434   2.197  1.1338  0.2973 -2.2752
   85c3c     H5  980   2.922   0.340   1.832  0.2350 -1.0282 -1.0837
   85c3c     H6  981   3.094   0.379   1.865 -0.8040  0.1494 -0.7580
   85c3c     H7  982   2.884   0.540   1.969 -0.7056 -0.4379  0.8813
   85c3c     H8  983   3.044   0.530   2.023  0.2430 -0.6728 -0.1942
   85c3c     H9  984   2.766   0.160   2.023  0.3777 -1.7152  1.9417
   85c3c    H10  985   2.710   0.234   2.174 -1.2471  1.0195 -1.4491
   85c3c    H11  986   2.739   0.325   2.027 -0.9992 -2.1438 -3.0599
   85c3c    H12  987   2.879   0.194   2.311  0.5068  1.6234  0.1237
   85c3c    H13  988   2.927   0.072   2.214  1.2888 -0.8515  1.5398
   85c3c     C7  989   3.086   0.181   2.308 -0.4873 -0.0915  0.2321
   85c3c    H14  990   3.118   0.284   2.327  3.1609 -0.9425 -1.0481
   85c3c    H15  991   3.172   0.150   2.249 -0.9911  1.0196 -1.1212
   85c3c     C8  992   3.093   0.104   2.445  0.6907  0.1208  0.2080
   85c3c    H16  993   3.183   0.133   2.500  0.5038  2.0499 -0.4444
   85c3c    H17  994   3.084  -0.003   2.427 -0.1811 -0.6109  4.4546
   85c3c    H18  995   3.004   0.128   2.504  2.1082  2.0128  1.6515
   86c3c      N  996   0.801   1.482   2.836  0.4621 -0.4437  0.1454
   86c3c     C1  997   0.842   1.371   2.748  0.2274 -0.2014  1.3307
   86c3c     C2  998   0.913   1.577   2.823  0.4505 -0.8496  0.5972
   86c3c     C3  999   0.909   1.438   2.625 -0.6394  0.6414 -0.4679
   86c3c     C4 1000   0.964   1.573   2.676  0.5867  0.5363 -0.5930
   86c3c     C5 1001   0.684   1.554   2.781  0.7203  0.5691  0.2049
   86c3c     C6 1002   0.771   1.443   2.976 -0.5584  0.0508 -0.3108
   86c3c     H1 1003   0.755   1.315   2.713  0.1287  0.4329  0.5457
   86c3c     H2 1004   0.918   1.309   2.794  1.0497 -1.1237 -1.1809
   86c3c     H3 1005   0.900   1.676   2.867  0.4006 -0.5241 -0.1336
   86c3c     H4 1006   0.994   1.534   2.882  0.4635 -0.1133  1.1119
   86c3c     H5 1007   0.832   1.444   2.548 -0.8084 -2.1953 -0.5616
   86c3c     H6 1008   0.985   1.371   2.586  0.7085  1.0808  1.3271
   86c3c     H7 1009   0.925   1.641   2.600  1.1349 -0.8208 -2.1177
   86c3c     H8 1010   1.070   1.551   2.665  0.0988 -1.4807 -1.5033
   86c3c     H9 1011   0.595   1.495   2.803  0.0400  0.9330 -1.5481
   86c3c    H10 1012   0.657   1.654   2.813 -0.5037  0.8785 -1.7495
   86c3c    H11 1013   0.678   1.556   2.673 -3.0217  0.6312  0.3666
   86c3c    H12 1014   0.719   1.529   3.017  1.6575  1.7729 -0.9977
   86c3c    H13 1015   0.695   1.365   2.969  0.2640 -0.6957 -1.1333
   86c3c     C7 1016   0.879   1.385   3.065 -0.4054 -0.4870  0.0729
   86c3c    H14 1017   0.960   1.458   3.069 -2.1204  1.4595  0.0039
   86c3c    H15 1018   0.925   1.299   3.016 -1.3870 -0.0551 -1.6312
   86c3c     C8 1019   0.845   1.331   3.202  0.4629 -0.1774  0.1564
   86c3c    H16 1020   0.826   1.412   3.272 -0.1594  0.4425 -0.7206
   86c3c    H17 1021   0.926   1.274   3.248  0.5835  0.7798  1.1597
   86c3c    H18 1022   0.770   1.253   3.198  1.7457 -1.5230  1.4918
   87c3c      N 1023   0.612   0.177   1.952  0.3833  0.1891 -0.0604
   87c3c     C1 1024   0.665   0.314   1.943 -0.1219 -0.3819  0.0201
   87c3c     C2 1025   0.698   0.106   1.862  0.0963  0.3739  0.0186
   87c3c     C3 1026   0.815   0.294   1.945  1.1297 -0.3461 -0.3634
   87c3c     C4 1027   0.840   0.155   1.891  0.5895 -0.0932  0.5204
   87c3c     C5 1028   0.621   0.131   2.098 -0.5697 -0.1643 -0.6016
   87c3c     C6 1029   0.466   0.164   1.911  0.6217  0.1698  0.4798
   87c3c     H1 1030   0.619   0.380   2.017 -2.1986  1.0141 -2.4473
   87c3c     H2 1031   0.656   0.359   1.844  0.7478 -0.2950 -0.0236
   87c3c     H3 1032   0.689   0.004   1.898  0.6863  0.4780  0.4763
   87c3c     H4 1033   0.680   0.116   1.755  2.4357 -2.0552 -0.6501
   87c3c     H5 1034   0.849   0.297   2.048  1.0824  2.8898 -0.4066
   87c3c     H6 1035   0.860   0.377   1.890 -0.4952  1.2010  0.6012
   87c3c     H7 1036   0.882   0.091   1.969  0.5895 -2.5239 -1.3830
   87c3c     H8 1037   0.907   0.157   1.805 -0.8865 -0.9998 -0.6853
   87c3c     H9 1038   0.542   0.187   2.150 -0.1823 -1.1228  1.0712
   87c3c    H10 1039   0.609   0.023   2.095  0.9533 -0.3798  0.3825
   87c3c    H11 1040   0.716   0.150   2.149  0.1449 -1.9756 -1.2216
   87c3c    H12 1041   0.446   0.058   1.903 -0.0909  0.2721  0.8835
   87c3c    H13 1042   0.399   0.215   1.980 -0.0444  2.3522 -1.6995
   87c3c     C7 1043   0.426   0.213   1.770  0.1765  0.1632  0.0880
   87c3c    H14 1044   0.488   0.161   1.696 -0.6362 -1.2721  0.3871
   87c3c    H15 1045   0.457   0.316   1.757  1.3948 -0.3380 -1.1596
   87c3c     C8 1046   0.275   0.198   1.740  0.7594 -0.1827  0.6816
   87c3c    H16 1047   0.264   0.232   1.637 -1.0201  0.1343  0.9568
   87c3c    H17 1048   0.215   0.267   1.798 -1.5924 -0.6635 -1.1122
   87c3c    H18 1049   0.231   0.098   1.743  0.3263  0.0123  0.8370
   88c3c      N 1050   1.920   1.332   1.040 -0.0864  0.3458 -0.0166
   88c3c     C1 1051   1.944   1.313   0.897  0.7757 -0.3993  0.0312
   88c3c     C2 1052   1.853   1.463   1.051  0.5694  0.6214 -0.2743
   88c3c     C3 1053   1.818   1.374   0.826  0.4106  1.0494  0.0553
   88c3c     C4 1054   1.760   1.471   0.925  0.0979 -0.5772 -0.6623
   88c3c     C5 1055   1.819   1.233   1.086 -0.4541 -0.1457  0.1566
   88c3c     C6 1056   2.039   1.319   1.124 -0.9227  0.5265  0.3061
   88c3c     H1 1057   1.943   1.208   0.869 -0.4308 -0.6047  0.7961
   88c3c     H2 1058   2.035   1.358   0.857  0.8507 -0.1109  0.5280
   88c3c     H3 1059   1.808   1.480   1.149  0.8673 -2.9719  0.5688
   88c3c     H4 1060   1.921   1.546   1.033  0.1022  1.0102 -0.2450
   88c3c     H5 1061   1.749   1.293   0.803  1.0019  0.1202  1.5080
   88c3c     H6 1062   1.850   1.414   0.730  1.3760 -0.0831 -0.1153
   88c3c     H7 1063   1.656   1.455   0.952  0.0145  1.9746  0.7092
   88c3c     H8 1064   1.755   1.571   0.884  0.1559 -0.9025 -1.4588
   88c3c     H9 1065   1.850   1.129   1.097 -3.3562 -1.0623  0.1902
   88c3c    H10 1066   1.791   1.266   1.186  0.3870  2.3419 -0.3854
   88c3c    H11 1067   1.726   1.219   1.030 -0.0626 -0.9188 -0.3052
   88c3c    H12 1068   2.017   1.315   1.231 -1.1781 -2.0285  0.1978
   88c3c    H13 1069   2.090   1.229   1.087  0.5837  1.1678  0.7807
   88c3c     C7 1070   2.146   1.429   1.101 -0.3690  0.1411  0.4231
   88c3c    H14 1071   2.115   1.531   1.121  3.0587  1.2237  0.6349
   88c3c    H15 1072   2.193   1.426   1.002 -1.0626  0.2637  0.0912
   88c3c     C8 1073   2.269   1.392   1.183 -0.0237 -0.7809 -0.3312
   88c3c    H16 1074   2.312   1.295   1.160  0.7128 -1.2903  2.9631
   88c3c    H17 1075   2.250   1.401   1.290 -1.3805 -0.5003 -0.5898
   88c3c    H18 1076   2.347   1.468   1.172  0.6293 -1.4668 -0.4425
   89c3c      N 1077   2.533   2.985   0.403 -0.4022  0.2510  0.5365
   89c3c     C1 1078   2.575   2.845   0.410  0.0794  0.3136 -0.5373
   89c3c     C2 1079   2.660   3.058   0.418 -0.2807  0.7127 -0.5163
   89c3c     C3 1080   2.709   2.837   0.341  0.3924 -0.1481 -0.3333
   89c3c     C4 1081   2.759   2.975   0.333 -0.4039  0.2987  0.6660
   89c3c     C5 1082   2.478   3.014   0.270 -0.4978 -0.7788 -0.3474
   89c3c     C6 1083   2.434   3.024   0.502  0.3961  0.6460  0.4961
   89c3c     H1 1084   2.489   2.792   0.369  0.6949 -1.9717  1.0384
   89c3c     H2 1085   2.589   2.805   0.510 -1.3758 -1.6901 -1.1045
   89c3c     H3 1086   2.663   3.163   0.388 -1.3490  0.5136 -1.3437
   89c3c     H4 1087   2.697   3.060   0.521  0.4096 -1.4804 -0.6889
   89c3c     H5 1088   2.712   2.808   0.236  1.3234 -2.8814  0.3962
   89c3c     H6 1089   2.779   2.767   0.388 -2.5967 -1.8768  1.7107
   89c3c     H7 1090   2.761   3.020   0.234 -1.7482  1.6209  1.2162
   89c3c     H8 1091   2.858   2.977   0.377  0.5866 -0.9450 -1.4492
   89c3c     H9 1092   2.369   3.003   0.273 -0.7135  1.4889  2.8352
   89c3c    H10 1093   2.488   3.118   0.237 -2.6307 -0.4641 -0.0991
   89c3c    H11 1094   2.522   2.957   0.188  1.1759 -0.2031  0.1456
   89c3c    H12 1095   2.400   3.123   0.471 -0.1728  0.2276 -0.2258
   89c3c    H13 1096   2.344   2.964   0.495  0.0160  1.2606  0.0369
   89c3c     C7 1097   2.475   3.015   0.652  0.0608  1.2065  0.8287
   89c3c    H14 1098   2.550   3.093   0.667  0.7752  0.3402  1.8287
   89c3c    H15 1099   2.510   2.917   0.684  1.2686  1.2121 -0.4246
   89c3c     C8 1100   2.364   3.057   0.747  0.1190 -0.2675 -0.2453
   89c3c    H16 1101   2.315   3.145   0.707  4.2249  1.8379 -0.8781
   89c3c    H17 1102   2.399   3.080   0.848  2.8701 -3.1081 -0.4336
   89c3c    H18 1103   2.295   2.977   0.772  0.6930 -0.7877 -0.2942
   90c3c      N 1104   1.282   2.528   1.902 -0.6138  0.2370  0.6807
   90c3c     C1 1105   1.186   2.450   1.984 -0.4608 -0.1645 -0.2547
   90c3c     C2 1106   1.209   2.650   1.866  0.3277 -0.5196 -0.3083
   90c3c     C3 1107   1.108   2.548   2.066  0.1510  0.4467  0.1652
   90c3c     C4 1108   1.117   2.679   1.984  0.0753  0.9872 -0.2714
   90c3c     C5 1109   1.403   2.560   1.983  0.0779  0.3100  0.7862
   90c3c     C6 1110   1.328   2.448   1.779  0.0714  0.3717 -0.3343
   90c3c     H1 1111   1.237   2.388   2.058 -1.1416 -2.7267 -1.8965
   90c3c     H2 1112   1.114   2.394   1.925 -1.2629  0.3959  0.1742
   90c3c     H3 1113   1.274   2.737   1.854  0.4765 -0.4636  0.8265
   90c3c     H4 1114   1.157   2.630   1.773 -0.8509 -0.3979  0.3080
   90c3c     H5 1115   1.145   2.555   2.168  0.7443  0.2020 -0.0282
   90c3c     H6 1116   1.005   2.515   2.074  0.3579 -0.3825 -0.4153
   90c3c     H7 1117   1.155   2.762   2.044  0.0664  0.4714  0.4639
   90c3c     H8 1118   1.018   2.706   1.947  0.6883  1.6094 -1.4908
   90c3c     H9 1119   1.453   2.467   2.009  0.2386 -0.1716 -1.1644
   90c3c    H10 1120   1.475   2.620   1.928  0.1715  0.5111  1.1250
   90c3c    H11 1121   1.381   2.616   2.074 -0.8230  0.6478  0.3649
   90c3c    H12 1122   1.371   2.530   1.721  0.6976  0.5944  0.4344
   90c3c    H13 1123   1.393   2.366   1.808  0.1977  0.6529  0.1923
   90c3c     C7 1124   1.223   2.385   1.677 -0.2762  0.9089 -0.9799
   90c3c    H14 1125   1.138   2.452   1.668  0.4518  1.5535 -3.5512
   90c3c    H15 1126   1.183   2.290   1.712  2.4795  0.3355  0.8297
   90c3c     C8 1127   1.285   2.354   1.541  0.1035 -0.2076 -0.4302
   90c3c    H16 1128   1.200   2.335   1.475 -0.0697  2.3686 -1.0027
   90c3c    H17 1129   1.363   2.278   1.543 -0.1516 -0.5129 -1.7387
   90c3c    H18 1130   1.342   2.440   1.505  0.9339  0.3212  2.0512
   91c3c      N 1131   2.326   0.930   2.758 -0.6802 -0.3060  0.0423
   91c3c     C1 1132   2.394   0.840   2.669 -0.1552  0.0672  0.4336
   91c3c     C2 1133   2.368   0.880   2.888  0.1457  0.3269  0.2051
   91c3c     C3 1134   2.534   0.817   2.724 -0.4243  0.3706  0.4709
   91c3c     C4 1135   2.520   0.851   2.869  0.0138  0.1340  0.4262
   91c3c     C5 1136   2.379   1.069   2.743 -0.1278 -0.3057  0.3981
   91c3c     C6 1137   2.187   0.942   2.741  0.2942 -0.4649  0.2657
   91c3c     H1 1138   2.397   0.877   2.566 -3.7755 -4.4379 -1.4067
   91c3c     H2 1139   2.342   0.745   2.669 -0.1634  0.0663  1.4772
   91c3c     H3 1140   2.345   0.942   2.974  1.0525 -0.6456  1.1676
   91c3c     H4 1141   2.313   0.789   2.910 -0.4390  0.2837 -1.4062
   91c3c     H5 1142   2.599   0.882   2.666 -0.9911 -0.2764 -0.9148
   91c3c     H6 1143   2.564   0.713   2.709  0.0753  0.4309  1.0339
   91c3c     H7 1144   2.600   0.909   2.916  0.7278 -0.0943 -0.4967
   91c3c     H8 1145   2.545   0.754   2.911 -0.3035 -1.0348 -2.0062
   91c3c     H9 1146   2.368   1.098   2.638  0.0819 -1.1628  0.1375
   91c3c    H10 1147   2.317   1.143   2.793 -0.8265 -0.9982  0.5599
   91c3c    H11 1148   2.484   1.077   2.771  0.2402 -2.7231 -0.2325
   91c3c    H12 1149   2.156   1.024   2.806  1.0061 -0.0063  0.0347
   91c3c    H13 1150   2.172   0.986   2.643 -2.1009  0.4975  1.0102
   91c3c     C7 1151   2.100   0.815   2.771  0.4039 -0.0055 -0.2634
   91c3c    H14 1152   2.087   0.794   2.878 -2.7885 -0.8744 -0.7480
   91c3c    H15 1153   2.142   0.724   2.728  0.2234 -0.9262  1.4442
   91c3c     C8 1154   1.958   0.825   2.704 -0.3830 -0.6509  0.4852
   91c3c    H16 1155   1.960   0.791   2.600  1.1050  0.1905  0.2334
   91c3c    H17 1156   1.921   0.927   2.702  0.4449 -0.1140  5.2650
   91c3c    H18 1157   1.886   0.768   2.763  0.3402 -2.4481 -0.3358
   92c3c      N 1158   1.055   2.026   0.548 -0.0748 -0.9164  0.0758
   92c3c     C1 1159   1.187   1.968   0.578 -0.3741 -0.3100  0.1434
   92c3c     C2 1160   1.069   2.095   0.418  0.3607 -0.2129 -0.6015
   92c3c     C3 1161   1.236   1.911   0.444 -0.7128 -0.5369 -0.2270
   92c3c     C4 1162   1.155   1.997   0.342  0.0996  0.2348  0.5674
   92c3c     C5 1163   0.954   1.921   0.533  0.1998 -0.6881  0.5742
   92c3c     C6 1164   1.007   2.113   0.661 -0.5056 -0.0301 -0.0713
   92c3c     H1 1165   1.194   1.887   0.651  0.1133 -0.3676  0.0386
   92c3c     H2 1166   1.263   2.039   0.613  1.3042 -2.1908  0.4197
   92c3c     H3 1167   0.970   2.109   0.376  1.1321  0.6507 -2.1674
   92c3c     H4 1168   1.125   2.189   0.415 -0.4429  0.2417 -2.0422
   92c3c     H5 1169   1.217   1.807   0.419  0.8981  0.0448 -4.2511
   92c3c     H6 1170   1.342   1.929   0.425 -1.8046  2.0678 -4.5398
   92c3c     H7 1171   1.095   1.937   0.272 -2.2038 -0.0527  2.7240
   92c3c     H8 1172   1.217   2.044   0.266 -2.6054 -0.5238 -2.2435
   92c3c     H9 1173   0.940   1.850   0.614 -1.9138 -1.3928 -0.3704
   92c3c    H10 1174   0.851   1.955   0.522  0.8149  0.5067 -2.0956
   92c3c    H11 1175   0.974   1.853   0.450 -0.6392  0.5711 -0.7022
   92c3c    H12 1176   0.904   2.137   0.636 -0.4034  0.0617 -0.4169
   92c3c    H13 1177   0.985   2.056   0.751 -2.3994  0.8205  0.0284
   92c3c     C7 1178   1.081   2.238   0.711 -0.0185 -0.7330 -0.1995
   92c3c    H14 1179   1.102   2.305   0.627 -1.7570  0.0121 -0.0662
   92c3c    H15 1180   1.178   2.218   0.758 -0.2628  0.2534  0.7347
   92c3c     C8 1181   0.995   2.326   0.797  0.0643  0.0711 -0.2255
   92c3c    H16 1182   0.976   2.285   0.896  2.6327  1.2213  0.7929
   92c3c    H17 1183   0.899   2.348   0.751 -0.1975  0.5395  0.5352
   92c3c    H18 1184   1.042   2.422   0.815 -1.9863  1.2423 -1.0006
   93c3c      N 1185   0.195   2.808   0.664  1.3176 -0.2022  0.2169
   93c3c     C1 1186   0.276   2.878   0.763 -0.7257 -0.2748 -0.0159
   93c3c     C2 1187   0.165   2.677   0.718 -0.1884  0.3872 -0.3366
   93c3c     C3 1188   0.225   2.827   0.901 -0.1782 -0.1807 -0.2980
   93c3c     C4 1189   0.138   2.706   0.869  0.0608  0.0786  0.3637
   93c3c     C5 1190   0.068   2.872   0.631  0.4459 -0.3779  0.2628
   93c3c     C6 1191   0.259   2.804   0.532 -0.5321 -0.2178  0.3875
   93c3c     H1 1192   0.261   2.985   0.755 -1.3411 -0.1280  2.7844
   93c3c     H2 1193   0.384   2.861   0.767 -0.8502 -0.7669  1.3064
   93c3c     H3 1194   0.075   2.635   0.672 -0.3094 -0.0130  0.2548
   93c3c     H4 1195   0.236   2.597   0.698 -1.3464 -0.7248 -0.1445
   93c3c     H5 1196   0.159   2.904   0.942  0.9486  1.3995 -1.3833
   93c3c     H6 1197   0.296   2.799   0.978 -2.6332 -1.3836  1.6119
   93c3c     H7 1198   0.034   2.736   0.888  0.1605  2.3764 -2.2998
   93c3c     H8 1199   0.154   2.627   0.941  0.7416  1.5327  1.8442
   93c3c     H9 1200   0.092   2.968   0.584 -2.0983  0.3925  0.5003
   93c3c    H10 1201   0.001   2.814   0.569  2.9721 -1.1160 -1.8955
   93c3c    H11 1202   0.021   2.898   0.726  1.6494  0.7179  0.5839
   93c3c    H12 1203   0.188   2.761   0.461 -0.4234 -0.5782  0.4935
   93c3c    H13 1204   0.279   2.904   0.495  0.2343 -1.3694 -2.4263
   93c3c     C7 1205   0.376   2.707   0.519 -0.5997 -0.3079  0.1040
   93c3c    H14 1206   0.344   2.605   0.537 -2.0882  0.3906  1.5750
   93c3c    H15 1207   0.447   2.721   0.600 -0.0411 -0.3569 -0.3761
   93c3c     C8 1208   0.441   2.706   0.377 -0.0081  0.4518 -0.7696
   93c3c    H16 1209   0.500   2.616   0.361 -0.2044  0.5270 -2.0058
   93c3c    H17 1210   0.502   2.796   0.364  0.1109  0.6141  0.8427
   93c3c    H18 1211   0.383   2.705   0.284 -0.4061 -0.1383 -0.5154
   94c3c      N 1212   1.570   0.095   2.024  0.1606  0.6185 -0.4318
   94c3c     C1 1213   1.675   0.003   1.978  0.1905  0.0043 -0.2169
   94c3c     C2 1214   1.547   0.056   2.164 -0.3462 -0.4262  0.3507
   94c3c     C3 1215   1.775   0.002   2.085  0.6860 -0.3086 -0.1228
   94c3c     C4 1216   1.684   0.016   2.212 -0.3615  0.2281 -0.6066
   94c3c     C5 1217   1.609   0.239   2.031 -0.2184 -0.2186  0.3478
   94c3c     C6 1218   1.455   0.085   1.938  0.4437  0.6591 -0.1812
   94c3c     H1 1219   1.714   0.036   1.881 -1.9532  2.1372 -0.4151
   94c3c     H2 1220   1.634  -0.094   1.949  1.5411 -0.9833  1.1449
   94c3c     H3 1221   1.498   0.133   2.223 -1.0700 -2.2681  2.2156
   94c3c     H4 1222   1.475  -0.025   2.174  0.7230 -1.2448  1.6394
   94c3c     H5 1223   1.841   0.087   2.067  0.3990  0.5819  2.8317
   94c3c     H6 1224   1.833  -0.091   2.089  3.5133  1.4105  0.6222
   94c3c     H7 1225   1.738   0.076   2.285  1.7400  3.0173 -4.2748
   94c3c     H8 1226   1.674  -0.078   2.267  0.8528  1.1897  1.3025
   94c3c     H9 1227   1.631   0.287   1.935  0.4806 -1.3924 -0.0875
   94c3c    H10 1228   1.524   0.297   2.065 -1.7631 -1.7666 -0.7865
   94c3c    H11 1229   1.697   0.256   2.092  0.6810  2.3267 -1.5579
   94c3c    H12 1230   1.374   0.153   1.962  0.7445  0.3558  1.8216
   94c3c    H13 1231   1.477   0.121   1.838 -0.6079  0.3442 -0.5386
   94c3c     C7 1232   1.390  -0.059   1.916 -0.4571  0.3525 -0.0598
   94c3c    H14 1233   1.380  -0.109   2.012 -1.0580 -0.1585 -0.3765
   94c3c    H15 1234   1.450  -0.123   1.851 -0.4808 -0.6804  0.9249
   94c3c     C8 1235   1.242  -0.051   1.881 -0.1927 -0.2390 -0.0135
   94c3c    H16 1236   1.219   0.041   1.828 -2.0904  0.8017  2.4939
   94c3c    H17 1237   1.185  -0.054   1.974 -0.7380 -0.5808 -0.3598
   94c3c    H18 1238   1.216  -0.138   1.821 -1.4099 -0.0607  0.2479
   95c3c      N 1239   0.825   1.918   1.704  0.2774  0.0602 -0.2032
   95c3c     C1 1240   0.820   1.784   1.759  0.1277  0.6242  0.2813
   95c3c     C2 1241   0.776   1.999   1.816 -0.3006 -0.5811 -0.5228
   95c3c     C3 1242   0.864   1.795   1.910  0.4504 -0.1425 -0.2709
   95c3c     C4 1243   0.845   1.941   1.943  0.5988 -0.0525  1.2461
   95c3c     C5 1244   0.960   1.963   1.665 -0.2425  0.2533 -0.2169
   95c3c     C6 1245   0.740   1.934   1.580  0.6610  0.7559 -0.0100
   95c3c     H1 1246   0.873   1.710   1.697 -0.4248 -1.6185  2.4085
   95c3c     H2 1247   0.720   1.742   1.761 -0.2930  1.6861  1.2432
   95c3c     H3 1248   0.778   2.107   1.808 -0.2839 -0.6493 -1.5451
   95c3c     H4 1249   0.670   1.972   1.813  0.1538 -2.5871  0.2842
   95c3c     H5 1250   0.964   1.762   1.938 -0.0294 -1.3255  0.0911
   95c3c     H6 1251   0.801   1.734   1.974  0.2527 -1.1633 -1.4223
   95c3c     H7 1252   0.938   1.996   1.954 -0.6400  2.2092  0.7064
   95c3c     H8 1253   0.794   1.976   2.032 -3.0610 -1.2920 -0.2550
   95c3c     H9 1254   0.992   1.908   1.577 -0.6282  0.2669 -0.3643
   95c3c    H10 1255   0.968   2.070   1.649 -1.7831  0.4658  0.3583
   95c3c    H11 1256   1.029   1.943   1.748 -0.8563  2.8341  0.9804
   95c3c    H12 1257   0.749   2.034   1.536  0.6962  1.4992  1.6418
   95c3c    H13 1258   0.766   1.862   1.503  0.1407  1.2381 -0.6376
   95c3c     C7 1259   0.586   1.919   1.596  0.2389 -0.1498 -0.9859
   95c3c    H14 1260   0.551   2.015   1.632 -0.4076 -1.0867  0.9269
   95c3c    H15 1261   0.553   1.841   1.664  0.8927  1.2383  0.9488
   95c3c     C8 1262   0.527   1.900   1.458  1.1093  0.7808  0.2212
   95c3c    H16 1263   0.589   1.841   1.391  0.0220  1.1831 -1.1659
   95c3c    H17 1264   0.502   1.999   1.419  0.0665  0.7995  0.9321
   95c3c    H18 1265   0.438   1.838   1.468  2.0491 -0.7249 -0.5666
   96c3c      N 1266   0.548   1.426   1.167 -0.0316 -0.0363  0.1426
   96c3c     C1 1267   0.515   1.296   1.227 -0.5031 -0.5950  0.1938
   96c3c     C2 1268   0.420   1.474   1.112  0.3095 -0.0790 -0.2004
   96c3c     C3 1269   0.372   1.318   1.279  0.0571  0.7957  0.4183
   96c3c     C4 1270   0.316   1.450   1.225  0.6063  0.1407  0.0354
   96c3c     C5 1271   0.602   1.505   1.277 -0.0212 -0.1872  0.7322
   96c3c     C6 1272   0.649   1.412   1.059  0.6146  1.0277 -0.1714
   96c3c     H1 1273   0.585   1.257   1.300 -1.9780 -0.3203  1.7944
   96c3c     H2 1274   0.514   1.220   1.149 -1.6229  0.4157 -0.7990
   96c3c     H3 1275   0.432   1.582   1.106  0.2176 -0.0412  0.2680
   96c3c     H4 1276   0.388   1.436   1.015 -2.5544 -0.1837  0.7275
   96c3c     H5 1277   0.389   1.321   1.387  0.0216 -1.7415  0.5455
   96c3c     H6 1278   0.308   1.230   1.263 -0.7073  1.5149 -0.5367
   96c3c     H7 1279   0.308   1.519   1.309 -0.0165  0.6112 -0.4027
   96c3c     H8 1280   0.219   1.440   1.176  0.7459  1.8254 -0.6323
   96c3c     H9 1281   0.691   1.464   1.324  0.9427  0.7107 -0.2989
   96c3c    H10 1282   0.618   1.606   1.240 -0.2768 -0.4020  0.0165
   96c3c    H11 1283   0.531   1.512   1.360 -1.3064 -0.3859 -0.3299
   96c3c    H12 1284   0.673   1.509   1.016  1.1304  0.4512 -1.1811
   96c3c    H13 1285   0.743   1.376   1.101  0.3011 -0.7501 -0.9469
   96c3c     C7 1286   0.619   1.322   0.944 -0.3030  0.0164 -0.0932
   96c3c    H14 1287   0.520   1.342   0.903  0.2467  0.0374 -1.4307
   96c3c    H15 1288   0.628   1.216   0.969  2.3616  0.1046 -0.5271
   96c3c     C8 1289   0.713   1.345   0.825 -0.0122  0.4556  0.6247
   96c3c    H16 1290   0.820   1.339   0.846 -0.1528 -1.3729  0.9194
   96c3c    H17 1291   0.683   1.437   0.776 -1.0224  0.3416  1.0309
   96c3c    H18 1292   0.705   1.269   0.747 -0.2660  2.3089 -1.1905
   97c3c      N 1293   3.051   1.619   2.639  0.0609 -0.3742  0.0988
   97c3c     C1 1294   2.940   1.567   2.554  0.2447  0.1789  0.5092
   97c3c     C2 1295   3.154   1.522   2.632  0.7802  0.3580  0.5890
   97c3c     C3 1296   2.995   1.460   2.456  0.6768  0.4942  0.3962
   97c3c     C4 1297   3.144   1.469   2.488  0.0067  0.0425  0.2515
   97c3c     C5 1298   3.102   1.743   2.581  0.2104 -0.0489  0.2562
   97c3c     C6 1299   3.008   1.662   2.773  0.3264  0.4326  0.8083
   97c3c     H1 1300   2.889   1.644   2.497  1.1088 -0.6988 -1.5292
   97c3c     H2 1301   2.866   1.520   2.619  0.3386 -1.4871 -0.5456
   97c3c     H3 1302   3.251   1.564   2.659  0.1155  1.8843  0.6390
   97c3c     H4 1303   3.131   1.433   2.691  0.3780  1.4628  2.1343
   97c3c     H5 1304   2.964   1.487   2.355  0.0047  0.6761  0.6530
   97c3c     H6 1305   2.955   1.361   2.475 -0.6706  0.9549 -0.0100
   97c3c     H7 1306   3.200   1.523   2.411 -0.6783  0.4707  0.0469
   97c3c     H8 1307   3.178   1.366   2.482  0.2575  0.1823 -0.8722
   97c3c     H9 1308   3.026   1.821   2.573 -0.6964 -1.0431 -1.0304
   97c3c    H10 1309   3.189   1.767   2.642  0.0515 -3.0387  1.7530
   97c3c    H11 1310   3.142   1.724   2.481 -0.8366 -0.7705 -0.0356
   97c3c    H12 1311   3.086   1.722   2.819  0.4466  2.2976 -1.6986
   97c3c    H13 1312   2.932   1.740   2.766  0.4579  0.4839 -0.2090
   97c3c     C7 1313   2.966   1.562   2.878 -0.0951 -0.2568 -0.2771
   97c3c    H14 1314   3.045   1.494   2.909 -0.8163 -1.3608 -0.8458
   97c3c    H15 1315   2.890   1.491   2.844  0.2103 -0.9435  0.4731
   97c3c     C8 1316   2.912   1.635   3.005 -0.5945 -0.4789 -0.0524
   97c3c    H16 1317   2.831   1.695   2.966 -0.8715 -1.4342 -0.9707
   97c3c    H17 1318   2.984   1.700   3.055 -0.4794 -1.8181  1.5773
   97c3c    H18 1319   2.869   1.577   3.087 -0.1660 -0.6464  0.0593
   98c3c      N 1320   1.345   0.859   0.783 -0.1694 -0.5516 -0.6131
   98c3c     C1 1321   1.240   0.945   0.722  0.2584 -0.1964  0.1947
   98c3c     C2 1322   1.465   0.936   0.797 -0.2763 -0.9854 -0.1630
   98c3c     C3 1323   1.265   1.088   0.790  0.1004 -0.1234  0.0123
   98c3c     C4 1324   1.418   1.078   0.826  0.0469 -0.7208  0.1502
   98c3c     C5 1325   1.295   0.811   0.918 -0.0622 -0.3360  0.3398
   98c3c     C6 1326   1.363   0.733   0.714  0.8116 -0.0241  0.2952
   98c3c     H1 1327   1.138   0.908   0.722  0.5409 -0.9933 -0.4568
   98c3c     H2 1328   1.272   0.948   0.618 -2.1596  0.1351 -0.5557
   98c3c     H3 1329   1.522   0.898   0.882  0.3005 -0.1080 -0.1410
   98c3c     H4 1330   1.531   0.935   0.710 -0.1864 -0.2674 -0.1093
   98c3c     H5 1331   1.212   1.100   0.885  1.5616  0.9079  0.7032
   98c3c     H6 1332   1.241   1.169   0.721  0.9153  0.4122  0.3565
   98c3c     H7 1333   1.438   1.110   0.928 -0.5331 -0.4473  0.1764
   98c3c     H8 1334   1.478   1.146   0.766 -1.6056 -0.0051 -0.7230
   98c3c     H9 1335   1.219   0.733   0.919 -1.3449  0.9001  0.8228
   98c3c    H10 1336   1.376   0.776   0.982 -0.4553 -0.0965  0.9705
   98c3c    H11 1337   1.246   0.884   0.983 -0.0609 -0.6260  0.6701
   98c3c    H12 1338   1.441   0.675   0.764  0.7681  1.1270  1.7443
   98c3c    H13 1339   1.276   0.670   0.730  0.3529  1.1474  2.6259
   98c3c     C7 1340   1.390   0.728   0.560 -0.9065 -0.1164 -0.6495
   98c3c    H14 1341   1.486   0.778   0.543 -0.3873 -0.8672  0.0509
   98c3c    H15 1342   1.313   0.775   0.499 -0.9436  1.7351  0.7757
   98c3c     C8 1343   1.411   0.589   0.507  0.6197 -0.3793 -0.4843
   98c3c    H16 1344   1.432   0.607   0.401 -1.3296 -1.4927 -1.0719
   98c3c    H17 1345   1.313   0.542   0.511 -0.5905  2.1227  0.3947
   98c3c    H18 1346   1.487   0.537   0.565 -0.2715 -1.7552 -0.5202
   99c3c      N 1347   1.386   1.646   1.352  0.1675  0.2267  0.4278
   99c3c     C1 1348   1.340   1.776   1.410 -0.1220 -0.0995 -0.3682
   99c3c     C2 1349   1.414   1.685   1.212 -0.7162  0.6803 -0.0317
   99c3c     C3 1350   1.433   1.888   1.357  0.3825 -0.1600  0.1280
   99c3c     C4 1351   1.474   1.830   1.219 -0.1209  0.0916  0.4989
   99c3c     C5 1352   1.507   1.603   1.417  0.0890 -0.8871 -0.1164
   99c3c     C6 1353   1.286   1.540   1.357  0.1308  0.1654 -0.4891
   99c3c     H1 1354   1.330   1.761   1.518 -2.5768  2.1345 -0.2395
   99c3c     H2 1355   1.243   1.807   1.371 -0.7520  0.1138  1.3235
   99c3c     H3 1356   1.475   1.614   1.156 -0.4782  0.4826  0.4798
   99c3c     H4 1357   1.329   1.705   1.147 -1.7226 -0.1884  1.0052
   99c3c     H5 1358   1.511   1.889   1.433 -0.4366  0.8373  0.9659
   99c3c     H6 1359   1.381   1.983   1.343 -1.6298 -1.6757 -3.1606
   99c3c     H7 1360   1.583   1.821   1.221  0.2107  3.4407 -0.7857
   99c3c     H8 1361   1.443   1.895   1.138 -0.5314 -0.4948  0.1753
   99c3c     H9 1362   1.495   1.603   1.525 -1.0070  3.0711 -0.1549
   99c3c    H10 1363   1.537   1.506   1.377  2.5740 -0.4273  0.5134
   99c3c    H11 1364   1.591   1.670   1.395  0.6986 -0.9126  2.0818
   99c3c    H12 1365   1.302   1.468   1.277  2.0354  0.4961 -0.4341
   99c3c    H13 1366   1.292   1.483   1.450  2.0936  0.7237 -0.2430
   99c3c     C7 1367   1.139   1.576   1.336 -0.8424 -0.2566  0.0645
   99c3c    H14 1368   1.141   1.641   1.248 -1.7834 -0.1237  0.1422
   99c3c    H15 1369   1.103   1.645   1.413  2.7149  2.3358 -0.4536
   99c3c     C8 1370   1.052   1.450   1.321  0.5458 -0.0084 -0.9955
   99c3c    H16 1371   1.069   1.411   1.221  1.2274  2.6934 -1.9818
   99c3c    H17 1372   0.946   1.476   1.316  0.7338  1.2156  0.8538
   99c3c    H18 1373   1.067   1.363   1.385 -0.2916  1.4759  1.3042
  100c3c      N 1374   0.530   0.161   0.228 -0.1983  0.4191 -0.2778
  100c3c     C1 1375   0.620   0.102   0.128 -0.1399 -0.5570 -0.1695
  100c3c     C2 1376   0.441   0.255   0.152  0.4528  0.2333  0.0303
  100c3c     C3 1377   0.555   0.118  -0.013  1.2044 -0.2405  0.2528
  100c3c     C4 1378   0.432   0.190   0.013 -0.1002 -0.9548 -0.3792
  100c3c     C5 1379   0.444   0.051   0.275  0.1554  0.0409  0.3569
  100c3c     C6 1380   0.594   0.221   0.348 -0.2351  0.1645 -0.2068
  100c3c     H1 1381   0.638  -0.004   0.146  1.8238 -0.3849 -0.9930
  100c3c     H2 1382   0.721   0.142   0.118 -0.8357  0.7096 -2.3889
  100c3c     H3 1383   0.344   0.275   0.199 -0.5152 -0.1780 -1.7627
  100c3c     H4 1384   0.487   0.353   0.137  0.1840  0.2478 -0.7469
  100c3c     H5 1385   0.552   0.024  -0.067  0.1659  1.5753 -2.9720
  100c3c     H6 1386   0.616   0.185  -0.074  0.7184 -1.1376 -1.2333
  100c3c     H7 1387   0.354   0.114   0.006 -0.4851 -0.6069  0.0780
  100c3c     H8 1388   0.401   0.255  -0.068  0.3424 -0.3104 -0.0387
  100c3c     H9 1389   0.489  -0.028   0.334  0.0085 -1.8323 -1.9843
  100c3c    H10 1390   0.352   0.089   0.320  0.9577  0.1043  1.9870
  100c3c    H11 1391   0.408  -0.005   0.189  0.8589  0.4249 -0.1901
  100c3c    H12 1392   0.523   0.253   0.423 -0.3010 -0.6099  0.0651
  100c3c    H13 1393   0.660   0.149   0.397  0.1547  0.5099 -0.2175
  100c3c     C7 1394   0.698   0.332   0.312  0.4937  0.0718  0.0076
  100c3c    H14 1395   0.647   0.393   0.238  1.1551 -1.1196 -1.4678
  100c3c    H15 1396   0.782   0.287   0.258 -0.6126 -1.1598 -0.7383
  100c3c     C8 1397   0.745   0.419   0.423 -0.1187 -0.5123 -0.0239
  100c3c    H16 1398   0.782   0.363   0.508  0.0068 -1.9380 -0.9877
  100c3c    H17 1399   0.665   0.475   0.470  2.0154  1.4991  1.3122
  100c3c    H18 1400   0.825   0.484   0.386  0.4649 -0.1246  1.8825
  101fsi     F1 1401   1.986   2.469   1.109 -0.2057  0.6506 -0.4783
  101fsi     S1 1402   1.836   2.433   1.080  0.2160  0.1814  0.0385
  101fsi      N 1403   1.759   2.551   1.150  0.1080  0.4036 -0.2398
  101fsi     O1 1404   1.821   2.434   0.934 -0.0794 -0.7182  0.4359
  101fsi     O2 1405   1.820   2.304   1.144 -0.0402 -0.2496  0.0122
  101fsi     S2 1406   1.728   2.689   1.080  0.6228  0.2044 -0.0104
  101fsi     O3 1407   1.623   2.759   1.148  0.7937  0.3200  0.0947
  101fsi     O4 1408   1.709   2.681   0.936 -0.2404 -0.0275  0.8733
  101fsi     F2 1409   1.855   2.779   1.100  0.1220  0.2355  0.3200
  102fsi     F1 1410   1.714   3.023   2.582  0.4907 -0.6599 -0.0420
  102fsi     S1 1411   1.612   3.101   2.674 -0.1098  0.2408  0.1407
  102fsi      N 1412   1.590   3.242   2.611  0.4895  0.1336  0.2837
  102fsi     O1 1413   1.496   3.012   2.671  0.3143 -0.0407 -0.0042
  102fsi     O2 1414   1.683   3.092   2.798  0.7879 -0.3386 -0.7177
  102fsi     S2 1415   1.458   3.305   2.548  0.4724  0.2978  0.4638
  102fsi     O3 1416   1.349   3.211   2.527  0.0368 -0.8293 -0.3276
  102fsi     O4 1417   1.491   3.404   2.449  0.0147  0.2088 -0.4505
  102fsi     F2 1418   1.407   3.391   2.668  0.2075 -0.1736 -0.4031
  103fsi     F1 1419   0.188   0.628   0.952 -0.3560 -0.3035 -0.3331
  103fsi     S1 1420   0.191   0.686   1.102  0.4483 -0.3071  0.1614
  103fsi      N 1421   0.332   0.759   1.113 -0.2579 -0.6191 -0.4655
  103fsi     O1 1422   0.083   0.783   1.103  0.1393 -0.1719  0.2343
  103fsi     O2 1423   0.172   0.571   1.181  0.4727 -0.1231  0.1571
  103fsi     S2 1424   0.372   0.909   1.128 -0.3243  0.0771  0.1110
  103fsi     O3 1425   0.316   0.985   1.021 -0.0743  0.4594  0.2369
  103fsi     O4 1426   0.502   0.939   1.174  0.1190  0.2468  0.1585
  103fsi     F2 1427   0.294   0.961   1.243 -0.5466  0.4001 -0.1359
  104fsi     F1 1428   0.476   1.837   1.016 -0.3515 -0.3524 -0.5828
  104fsi     S1 1429   0.485   1.932   0.890  0.2185 -0.5289  0.3018
  104fsi      N 1430   0.481   1.830   0.771  0.4100  0.1913  0.5377
  104fsi     O1 1431   0.369   2.011   0.909 -0.2625  0.5819  0.0481
  104fsi     O2 1432   0.614   1.997   0.909  0.0135 -0.0642 -0.2467
  104fsi     S2 1433   0.592   1.720   0.724  0.3665 -0.0848 -0.2642
  104fsi     O3 1434   0.539   1.613   0.645  0.5126  0.3614  0.1329
  104fsi     O4 1435   0.694   1.697   0.815 -0.1906  0.7714  0.4531
  104fsi     F2 1436   0.670   1.801   0.612  0.3156  0.7244 -0.2611
  105fsi     F1 1437   0.862   2.079   3.027 -0.6365  0.0867  0.3610
  105fsi     S1 1438   0.933   1.942   2.993 -0.2912 -0.0624  0.4251
  105fsi      N 1439   0.823   1.837   3.051 -0.1485  0.1698  0.0953
  105fsi     O1 1440   0.939   1.944   2.849 -0.1239  0.6597  0.0181
  105fsi     O2 1441   1.055   1.939   3.069 -0.0591 -0.5043 -0.5303
  105fsi     S2 1442   0.769   1.826   3.198  0.2569  0.0831  0.1506
  105fsi     O3 1443   0.624   1.817   3.210 -0.2251  0.0600  0.1646
  105fsi     O4 1444   0.827   1.918   3.291 -0.1554  0.6295  0.3605
  105fsi     F2 1445   0.811   1.677   3.248 -0.0389  0.1011  0.1034
  106fsi     F1 1446   0.243   1.786   2.034 -0.1151 -0.5481  0.4890
  106fsi     S1 1447   0.293   1.924   1.987 -0.1733  0.3727  0.0024
  106fsi      N 1448   0.306   1.999   2.125 -0.5880 -0.5223  0.0310
  106fsi     O1 1449   0.424   1.898   1.934 -0.2054 -0.2919 -0.0572
  106fsi     O2 1450   0.195   1.972   1.893 -0.2172 -0.2273 -0.5613
  106fsi     S2 1451   0.201   2.059   2.233  0.0094 -0.3179  0.3864
  106fsi     O3 1452   0.056   2.043   2.197 -0.2396 -0.9457  0.1759
  106fsi     O4 1453   0.240   2.183   2.292 -0.2527 -0.7734 -0.4350
  106fsi     F2 1454   0.221   1.950   2.346 -0.2504 -0.6820 -0.3240
  107fsi     F1 1455   1.460   0.163   0.405  0.3910 -0.1634  0.4617
  107fsi     S1 1456   1.337   0.118   0.481 -0.2786 -0.0151  0.0063
  107fsi      N 1457   1.260   0.256   0.523 -0.5527  0.1284 -0.0824
  107fsi     O1 1458   1.268   0.043   0.380  0.7061 -0.1072 -0.2010
  107fsi     O2 1459   1.392   0.054   0.596  0.7731 -0.0639 -0.0296
  107fsi     S2 1460   1.126   0.310   0.475  0.0702 -0.3453  0.1584
  107fsi     O3 1461   1.106   0.310   0.333  0.3914 -0.5892 -0.2645
  107fsi     O4 1462   1.084   0.430   0.544  0.4988 -0.3233 -0.0564
  107fsi     F2 1463   1.025   0.193   0.526  0.5297  0.2695  0.2259
  108fsi     F1 1464   1.847   2.340   2.659  0.1742 -0.4349  0.1636
  108fsi     S1 1465   1.798   2.454   2.568  0.1663  0.3549  0.2574
  108fsi      N 1466   1.805   2.573   2.664  0.3278  0.8549  0.6381
  108fsi     O1 1467   1.902   2.459   2.468 -0.2255 -0.4677 -0.2801
  108fsi     O2 1468   1.664   2.417   2.519 -0.4095 -0.0665 -0.5701
  108fsi     S2 1469   1.929   2.664   2.694  0.2225 -0.1780 -0.1404
  108fsi     O3 1470   2.002   2.714   2.586  0.1393 -0.5078 -0.7229
  108fsi     O4 1471   2.014   2.629   2.807 -0.2877 -0.4810 -0.1942
  108fsi     F2 1472   1.854   2.797   2.735  0.3676 -0.0337 -0.0093
  109fsi     F1 1473   2.416   0.603   2.017  0.0707 -0.1531 -0.2910
  109fsi     S1 1474   2.540   0.514   2.061  0.2954  0.2773 -0.0184
  109fsi      N 1475   2.599   0.584   2.185  0.0002 -0.1217 -0.4373
  109fsi     O1 1476   2.480   0.384   2.082 -0.6709  0.2703  0.0701
  109fsi     O2 1477   2.625   0.526   1.947  0.0294 -0.0662  0.0567
  109fsi     S2 1478   2.543   0.605   2.326  0.2368  0.3297 -0.2871
  109fsi     O3 1479   2.404   0.567   2.339 -0.6029 -0.4331 -0.1293
  109fsi     O4 1480   2.586   0.732   2.379  0.0767 -0.1833  0.2581
  109fsi     F2 1481   2.622   0.504   2.411  0.1668  0.4074  0.5167
  110fsi     F1 1482   2.696   2.482   1.859 -0.3129  0.0875  0.1010
  110fsi     S1 1483   2.772   2.476   1.995  0.2096 -0.0999  0.3200
  110fsi      N 1484   2.862   2.348   1.985 -0.1279 -0.0914 -0.0632
  110fsi     O1 1485   2.847   2.598   1.996  0.2215 -0.1458 -0.2106
  110fsi     O2 1486   2.665   2.465   2.087 -0.2432 -0.6872 -0.0719
  110fsi     S2 1487   3.019   2.346   1.977 -0.4194  0.0619  0.1984
  110fsi     O3 1488   3.090   2.454   1.913 -0.3924 -0.5323  0.4898
  110fsi     O4 1489   3.071   2.222   1.936  0.1852  0.2370  0.2813
  110fsi     F2 1490   3.066   2.349   2.125  0.4428  0.0421 -0.2979
  111fsi     F1 1491   1.106   2.597   1.379 -0.3400  0.5944 -0.7352
  111fsi     S1 1492   1.118   2.694   1.256 -0.3364 -0.2753 -0.5177
  111fsi      N 1493   1.032   2.636   1.138 -0.3031  0.1851 -0.7942
  111fsi     O1 1494   1.078   2.816   1.308  0.0858 -0.2974 -0.4249
  111fsi     O2 1495   1.255   2.682   1.223 -0.3231 -0.5920 -0.5875
  111fsi     S2 1496   0.882   2.594   1.135 -0.0342 -0.2740  0.3039
  111fsi     O3 1497   0.812   2.574   1.261 -0.0731 -0.0224  0.2993
  111fsi     O4 1498   0.861   2.490   1.034  0.3577 -0.0847 -0.2844
  111fsi     F2 1499   0.806   2.715   1.063 -0.1039 -0.4100  0.4924
  112fsi     F1 1500   2.952   1.632   0.529 -0.1068 -0.2203  0.5146
  112fsi     S1 1501   2.814   1.608   0.445 -0.5732  0.4629 -0.1471
  112fsi      N 1502   2.759   1.755   0.429  0.0906  0.4566 -0.1695
  112fsi     O1 1503   2.858   1.545   0.321 -0.6700  0.6277  0.1418
  112fsi     O2 1504   2.728   1.528   0.533  0.0830  0.2769  0.4302
  112fsi     S2 1505   2.643   1.827   0.512 -0.6098  0.4704  0.0994
  112fsi     O3 1506   2.631   1.964   0.473  0.2670 -0.4694 -0.0577
  112fsi     O4 1507   2.631   1.788   0.651 -0.3090 -0.6182 -0.0111
  112fsi     F2 1508   2.521   1.765   0.440 -0.0812 -0.5531 -0.0951
  113fsi     F1 1509   1.297   1.091   1.165  0.1851 -0.0174  0.1214
  113fsi     S1 1510   1.394   1.130   1.281 -0.2638  0.2411  0.2633
  113fsi      N 1511   1.454   0.996   1.323  0.6561 -0.5064 -0.1538
  113fsi     O1 1512   1.484   1.221   1.216 -0.8150  0.5378 -0.5862
  113fsi     O2 1513   1.304   1.179   1.386  0.8170 -0.2984 -0.0532
  113fsi     S2 1514   1.555   0.900   1.255 -0.0190  0.1651  0.3815
  113fsi     O3 1515   1.615   0.939   1.127  0.0760 -0.0420 -0.1453
  113fsi     O4 1516   1.505   0.763   1.260 -0.1017  0.4855 -0.2260
  113fsi     F2 1517   1.673   0.901   1.363  0.2052 -0.4442  0.1298
  114fsi     F1 1518   1.462   2.322   0.234 -0.1036  0.7419  0.1334
  114fsi     S1 1519   1.559   2.263   0.352 -0.4883  0.5746 -0.2376
  114fsi      N 1520   1.584   2.387   0.444 -0.6467  0.6931  0.1010
  114fsi     O1 1521   1.487   2.153   0.415  0.3658 -0.2782 -0.1781
  114fsi     O2 1522   1.673   2.231   0.271  0.8795 -0.6660  0.5681
  114fsi     S2 1523   1.476   2.479   0.518  0.6426 -0.0489  0.0118
  114fsi     O3 1524   1.388   2.556   0.435 -0.0453 -0.1790 -0.1688
  114fsi     O4 1525   1.541   2.556   0.620  0.5308 -0.2236 -0.6107
  114fsi     F2 1526   1.375   2.392   0.599  0.4582  0.0746  0.1319
  115fsi     F1 1527   0.767   1.046   1.627  0.3148 -0.1999  0.5431
  115fsi     S1 1528   0.793   1.153   1.520 -0.1694 -0.7803 -0.1274
  115fsi      N 1529   0.707   1.269   1.583  0.4613 -0.1905 -0.4655
  115fsi     O1 1530   0.933   1.181   1.521  0.7596 -0.0379 -0.3860
  115fsi     O2 1531   0.745   1.092   1.403  0.6420 -0.0884  0.2396
  115fsi     S2 1532   0.732   1.372   1.702  0.1921  0.2842  0.0132
  115fsi     O3 1533   0.771   1.305   1.819 -0.0898 -0.0117 -0.0396
  115fsi     O4 1534   0.626   1.468   1.713  0.8500 -0.2360  0.1634
  115fsi     F2 1535   0.857   1.458   1.651 -0.7859  0.4062 -0.6897
  116fsi     F1 1536   1.831   2.546   0.409  0.3576 -0.3492 -0.2385
  116fsi     S1 1537   1.924   2.459   0.499 -0.1037 -0.2901  0.3043
  116fsi      N 1538   2.053   2.543   0.520 -0.1856  0.1243  0.1894
  116fsi     O1 1539   1.847   2.435   0.621 -0.2836 -0.2814  0.5954
  116fsi     O2 1540   1.937   2.343   0.418 -0.0654  0.6817 -1.0152
  116fsi     S2 1541   2.087   2.655   0.623 -0.3810  0.3627  0.0331
  116fsi     O3 1542   1.980   2.699   0.704 -0.4399 -0.1723 -0.0843
  116fsi     O4 1543   2.183   2.750   0.570 -0.0105  0.4557  0.2826
  116fsi     F2 1544   2.168   2.571   0.725  0.0395  0.5688  0.2492
  117fsi     F1 1545   2.591   2.597   2.858 -0.1394  0.4507 -0.0682
  117fsi     S1 1546   2.475   2.704   2.878 -0.1683  0.2356  0.0287
  117fsi      N 1547   2.532   2.804   2.986 -0.5131 -0.0975 -0.4385
  117fsi     O1 1548   2.467   2.751   2.740  0.5629  0.0993  0.0397
  117fsi     O2 1549   2.360   2.634   2.927  0.7543  0.1471 -0.1470
  117fsi     S2 1550   2.648   2.903   2.963 -0.5907 -0.4884  0.3186
  117fsi     O3 1551   2.736   2.858   2.863 -0.1027 -0.1925 -0.3787
  117fsi     O4 1552   2.712   2.946   3.086  0.5833 -0.1550  0.3682
  117fsi     F2 1553   2.581   3.030   2.898  0.1827  0.4002 -0.3611
  118fsi     F1 1554   2.084   2.762   3.060 -0.0506  0.0170 -0.3812
  118fsi     S1 1555   2.021   2.856   3.177  0.1682 -0.2749  0.1864
  118fsi      N 1556   2.140   2.959   3.199  0.5079  0.4362 -0.3618
  118fsi     O1 1557   1.907   2.916   3.112 -0.0134 -0.1246 -0.0904
  118fsi     O2 1558   1.997   2.765   3.285 -0.2408 -0.1783 -0.3600
  118fsi     S2 1559   2.191   3.065   3.102  0.0411  0.3728  0.2747
  118fsi     O3 1560   2.249   3.180   3.175  0.0685  1.2864 -0.7086
  118fsi     O4 1561   2.104   3.091   2.994 -0.0834  0.0421  0.1124
  118fsi     F2 1562   2.312   2.996   3.041  0.6999  0.1327  0.0833
  119fsi     F1 1563   1.839   0.489   2.869 -0.5262  0.2971  0.2822
  119fsi     S1 1564   1.951   0.391   2.930 -0.1692  0.1058 -0.0829
  119fsi      N 1565   2.082   0.426   2.850 -0.2042  0.2816  0.3911
  119fsi     O1 1566   1.949   0.434   3.064 -0.6104  0.0310 -0.4273
  119fsi     O2 1567   1.903   0.262   2.900 -0.0394 -0.1254 -0.2066
  119fsi     S2 1568   2.234   0.423   2.907  0.7239  0.0837  0.3642
  119fsi     O3 1569   2.248   0.401   3.047 -0.1611 -0.3578 -0.3263
  119fsi     O4 1570   2.318   0.533   2.852  0.2146 -0.0395 -0.2181
  119fsi     F2 1571   2.289   0.291   2.838 -0.2407  0.2116 -0.0929
  120fsi     F1 1572   1.458   0.289   3.014  0.2860  0.3358 -0.0768
  120fsi     S1 1573   1.476   0.289   3.171  0.1927 -0.2421 -0.0808
  120fsi      N 1574   1.563   0.163   3.193  0.0654 -0.5828 -0.2213
  120fsi     O1 1575   1.541   0.415   3.202  0.3477  0.2644 -0.0131
  120fsi     O2 1576   1.345   0.267   3.222 -0.0902  0.2439  0.1084
  120fsi     S2 1577   1.715   0.154   3.213  0.1240  0.2612 -0.1896
  120fsi     O3 1578   1.786   0.261   3.281  0.4026 -0.1292 -0.2496
  120fsi     O4 1579   1.775   0.082   3.101 -0.6462 -0.4014 -0.2846
  120fsi     F2 1580   1.726   0.049   3.333 -0.7295 -0.1015 -0.4651
  121fsi     F1 1581   2.880   1.197   2.693  0.1703  0.5202 -0.2010
  121fsi     S1 1582   2.885   1.076   2.799  0.2811  0.2350 -0.2234
  121fsi      N 1583   3.031   1.078   2.861 -0.1885  0.1406 -0.2690
  121fsi     O1 1584   2.781   1.105   2.896 -0.3388 -0.1979  0.3421
  121fsi     O2 1585   2.873   0.956   2.724  0.5499 -0.3733 -0.2714
  121fsi     S2 1586   3.098   1.170   2.973 -0.0236 -0.1504 -0.0300
  121fsi     O3 1587   3.192   1.093   3.048  0.1394 -0.1873 -0.1717
  121fsi     O4 1588   3.017   1.259   3.045  0.8736 -0.1399  0.2935
  121fsi     F2 1589   3.199   1.269   2.900 -0.5582  0.4158 -0.2839
  122fsi     F1 1590   2.187   2.071   0.963 -0.3277  0.2893 -0.0115
  122fsi     S1 1591   2.243   2.009   0.831 -0.6123  0.2079 -0.2026
  122fsi      N 1592   2.177   1.865   0.834 -0.6767  0.2824  0.4220
  122fsi     O1 1593   2.193   2.095   0.727 -0.1313  0.4787  0.2068
  122fsi     O2 1594   2.384   2.008   0.849  0.0063  0.4590  0.0668
  122fsi     S2 1595   2.237   1.720   0.857  0.3595  0.2259 -0.0790
  122fsi     O3 1596   2.380   1.703   0.837  0.0867  0.3581 -0.0603
  122fsi     O4 1597   2.149   1.618   0.806 -0.2045  0.0542  0.3412
  122fsi     F2 1598   2.227   1.703   1.011 -0.2548 -0.2879  0.1851
  123fsi     F1 1599   1.850   0.904   0.616  0.0719  0.8343 -0.5143
  123fsi     S1 1600   1.844   0.865   0.775  0.2941  0.1767  0.0037
  123fsi      N 1601   1.983   0.786   0.785 -0.0324 -0.5306  0.3415
  123fsi     O1 1602   1.837   0.995   0.844  0.6884  0.0259  0.1921
  123fsi     O2 1603   1.733   0.771   0.792 -1.1620 -0.2583  0.3544
  123fsi     S2 1604   2.133   0.846   0.803  0.2418 -0.2349  0.3091
  123fsi     O3 1605   2.154   0.979   0.743 -0.4222 -0.1311  0.1454
  123fsi     O4 1606   2.238   0.749   0.782  0.0854 -0.1272 -0.1220
  123fsi     F2 1607   2.143   0.873   0.965 -0.3476  0.4932 -0.0858
  124fsi     F1 1608   1.976   1.171   2.036  0.0633 -0.1273 -0.1465
  124fsi     S1 1609   2.055   1.298   2.039 -0.0226 -0.0392 -0.0754
  124fsi      N 1610   1.977   1.370   2.152 -0.3014 -0.2676  0.6512
  124fsi     O1 1611   2.187   1.253   2.070 -0.3084 -0.7516  0.1246
  124fsi     O2 1612   2.033   1.366   1.916 -0.3850 -0.6223 -0.1116
  124fsi     S2 1613   2.028   1.412   2.291 -0.2942  0.0145 -0.3209
  124fsi     O3 1614   2.163   1.368   2.324 -1.2769  0.0020 -0.9587
  124fsi     O4 1615   1.930   1.395   2.392  0.5352 -0.1964 -0.4369
  124fsi     F2 1616   2.041   1.567   2.277  0.1746  0.3012 -0.3183
  125fsi     F1 1617   0.604   0.617   1.336  0.4295  0.4112 -0.1595
  125fsi     S1 1618   0.639   0.623   1.491  0.3766 -0.0416  0.2363
  125fsi      N 1619   0.793   0.604   1.494 -1.0932 -0.0034 -0.3949
  125fsi     O1 1620   0.607   0.760   1.523 -0.2634 -0.3358 -0.0793
  125fsi     O2 1621   0.557   0.522   1.543  0.1371  0.4887  0.1288
  125fsi     S2 1622   0.883   0.485   1.548 -0.2332  0.1302 -0.4169
  125fsi     O3 1623   0.825   0.358   1.568 -0.7213  0.0142 -0.1660
  125fsi     O4 1624   0.972   0.537   1.647  0.1010  0.1706  0.6485
  125fsi     F2 1625   0.981   0.464   1.426 -0.3691 -0.3466  0.7962
  126fsi     F1 1626   2.978   0.835   3.060 -0.1383 -0.1358 -0.2151
  126fsi     S1 1627   3.069   0.729   2.985  0.0680  0.2170  0.0310
  126fsi      N 1628   3.054   0.603   3.074  0.3978 -0.5882 -0.2792
  126fsi     O1 1629   3.002   0.714   2.863 -0.0901  0.2309  0.7815
  126fsi     O2 1630   3.201   0.794   2.974  0.1344 -0.5489  0.3663
  126fsi     S2 1631   3.140   0.559   3.207  0.1033  0.0258  0.2662
  126fsi     O3 1632   3.075   0.453   3.287 -0.5739 -0.8042 -0.3569
  126fsi     O4 1633   3.193   0.670   3.277 -0.1407 -0.6359 -0.7152
  126fsi     F2 1634   3.271   0.494   3.145  0.0241 -0.1097 -0.2494
  127fsi     F1 1635   0.124   2.756   0.134 -0.5485  0.0295  0.2784
  127fsi     S1 1636  -0.023   2.795   0.163  0.1257 -0.4596 -0.1348
  127fsi      N 1637  -0.029   2.952   0.130 -0.6528 -0.9126  0.3772
  127fsi     O1 1638  -0.100   2.722   0.068 -0.0251  0.7387 -0.1223
  127fsi     O2 1639  -0.052   2.764   0.299 -0.2088  0.0177  0.1559
  127fsi     S2 1640   0.022   3.071   0.221  0.0206  0.3675  0.1929
  127fsi     O3 1641   0.122   3.156   0.164 -0.0103  0.0727  0.1700
  127fsi     O4 1642   0.034   3.048   0.360 -0.5093  0.3718 -0.0229
  127fsi     F2 1643  -0.110   3.158   0.215  0.5741  0.2520  0.1831
  128fsi     F1 1644   2.952   2.432   0.921  0.1910 -0.3105  0.1986
  128fsi     S1 1645   2.967   2.304   0.837  0.1914  0.6784 -0.1232
  128fsi      N 1646   2.822   2.254   0.817  0.1866  0.4789  0.4826
  128fsi     O1 1647   3.016   2.368   0.720  0.1215 -0.7417  0.6211
  128fsi     O2 1648   3.054   2.216   0.918 -0.2281  0.3412  0.2118
  128fsi     S2 1649   2.750   2.143   0.912  0.2566 -0.0576 -0.2460
  128fsi     O3 1650   2.779   2.162   1.053 -0.5529  0.3211 -0.8169
  128fsi     O4 1651   2.751   2.012   0.854  0.6178  0.0369 -0.4004
  128fsi     F2 1652   2.603   2.194   0.899 -0.3215  0.1485  0.0157
  129fsi     F1 1653   1.097   2.295   2.608  0.2253  0.4009 -0.1616
  129fsi     S1 1654   1.197   2.261   2.498  0.0543 -0.0277 -0.0241
  129fsi      N 1655   1.163   2.117   2.472  0.3231 -0.1772 -0.5337
  129fsi     O1 1656   1.150   2.345   2.396 -0.4488 -0.1482  0.8411
  129fsi     O2 1657   1.328   2.288   2.551  0.0258 -0.3587  0.1185
  129fsi     S2 1658   1.255   1.990   2.512 -0.2044  0.1339 -0.0834
  129fsi     O3 1659   1.387   2.000   2.462  0.4386  0.5419  0.2658
  129fsi     O4 1660   1.189   1.861   2.497 -0.0948 -0.8623  0.3988
  129fsi     F2 1661   1.286   1.997   2.661 -0.3581 -0.2048 -0.0572
  130fsi     F1 1662   2.405   2.528   2.262  0.9982 -0.6182 -0.2418
  130fsi     S1 1663   2.313   2.545   2.393  0.0798  0.3277 -0.3373
  130fsi      N 1664   2.319   2.397   2.454  0.2833  0.0979 -0.1237
  130fsi     O1 1665   2.378   2.651   2.464  0.1303  0.6509  0.2061
  130fsi     O2 1666   2.184   2.577   2.342  0.6806  0.0657 -0.4667
  130fsi     S2 1667   2.306   2.356   2.604 -0.1359  0.2425 -0.3917
  130fsi     O3 1668   2.269   2.470   2.685  0.1924 -0.5506 -0.3233
  130fsi     O4 1669   2.413   2.272   2.653 -0.1098  0.3300  0.2068
  130fsi     F2 1670   2.174   2.275   2.606 -0.4784  0.5551 -0.1397
  131fsi     F1 1671   1.483   2.091   1.619 -0.0271 -0.2133 -0.0646
  131fsi     S1 1672   1.631   2.084   1.669 -0.4722  0.0543  0.2645
  131fsi      N 1673   1.653   2.237   1.719  0.1386  0.0257 -0.0529
  131fsi     O1 1674   1.625   1.997   1.785  0.4365 -0.1015 -0.1290
  131fsi     O2 1675   1.705   2.044   1.558  0.0786  0.7922  0.4432
  131fsi     S2 1676   1.707   2.368   1.652  0.1204 -0.0428  0.3366
  131fsi     O3 1677   1.650   2.494   1.701 -0.1449 -0.2947  0.1510
  131fsi     O4 1678   1.718   2.354   1.509  0.6704  0.1117 -0.5790
  131fsi     F2 1679   1.859   2.372   1.702  0.4559  0.6095  0.1307
  132fsi     F1 1680   2.012   0.466   1.646 -0.2848  0.2118  0.2595
  132fsi     S1 1681   2.083   0.340   1.588 -0.2080  0.0077 -0.1185
  132fsi      N 1682   2.110   0.252   1.712  0.3890  0.3083  0.4916
  132fsi     O1 1683   1.985   0.279   1.504  0.5198 -0.5036  0.0549
  132fsi     O2 1684   2.202   0.388   1.523  0.1259 -0.4271  0.4938
  132fsi     S2 1685   2.008   0.180   1.807 -0.1418 -0.2780 -0.2463
  132fsi     O3 1686   1.878   0.233   1.793 -0.7253 -0.2261 -0.5500
  132fsi     O4 1687   2.065   0.161   1.937  0.1824 -0.0489 -0.0272
  132fsi     F2 1688   1.998   0.026   1.756  0.2578  0.3749 -0.2719
  133fsi     F1 1689   1.164   1.824   1.022 -0.1724 -0.0842  0.1864
  133fsi     S1 1690   1.006   1.829   0.993 -0.8906 -0.0734  0.2311
  133fsi      N 1691   0.972   1.980   1.028  0.0494  0.0308  0.6849
  133fsi     O1 1692   0.997   1.804   0.857 -0.5147 -0.2696 -0.0914
  133fsi     O2 1693   0.943   1.733   1.079 -0.2267 -0.2239  0.1542
  133fsi     S2 1694   0.945   2.039   1.170 -0.2977 -0.0183 -0.1423
  133fsi     O3 1695   1.009   1.966   1.280 -0.6884  1.0504 -0.6320
  133fsi     O4 1696   0.813   2.087   1.195 -0.0706  0.0248 -0.1201
  133fsi     F2 1697   1.032   2.161   1.168  0.0963 -0.4327 -0.1991
  134fsi     F1 1698   0.407   2.873   2.869 -0.3299 -0.3317 -0.5386
  134fsi     S1 1699   0.324   2.935   2.760 -0.0229  0.1738  0.0417
  134fsi      N 1700   0.179   2.920   2.820 -0.5582  0.2101 -0.1778
  134fsi     O1 1701   0.366   3.074   2.766 -0.3417  0.3515 -0.0662
  134fsi     O2 1702   0.363   2.862   2.642 -0.2722 -0.2141  0.2457
  134fsi     S2 1703   0.092   2.789   2.816  0.2263  0.1717  0.1275
  134fsi     O3 1704   0.109   2.695   2.707  0.3071  0.1622 -0.2618
  134fsi     O4 1705  -0.042   2.823   2.853 -0.2879 -0.2646  0.0241
  134fsi     F2 1706   0.140   2.710   2.941  0.2758 -0.3065 -0.8787
  135fsi     F1 1707   0.377   2.583   2.541  0.0289  0.0476  0.1671
  135fsi     S1 1708   0.502   2.511   2.486  0.1477  0.0556  0.2113
  135fsi      N 1709   0.607   2.542   2.594  0.0136  0.1590 -0.2113
  135fsi     O1 1710   0.469   2.374   2.474  0.0102 -0.2283  0.5843
  135fsi     O2 1711   0.534   2.580   2.366 -0.6341  0.3848  0.0913
  135fsi     S2 1712   0.739   2.465   2.633  0.0666  0.2046 -0.3580
  135fsi     O3 1713   0.719   2.326   2.666  0.1536 -0.1991 -0.0624
  135fsi     O4 1714   0.819   2.545   2.718 -0.1730  0.4240 -0.2785
  135fsi     F2 1715   0.820   2.463   2.501 -0.1102  0.6316  0.3241
  136fsi     F1 1716   3.014   2.939   2.083  0.2305 -0.3933  0.3645
  136fsi     S1 1717   3.159   2.925   2.045 -0.0490 -0.2859  0.1479
  136fsi      N 1718   3.233   2.921   2.183 -0.0334  0.0624 -0.3027
  136fsi     O1 1719   3.159   2.799   1.972 -0.1565 -0.0534  0.3712
  136fsi     O2 1720   3.183   3.045   1.968 -0.3466  0.2888 -0.6831
  136fsi     S2 1721   3.251   2.792   2.282 -0.0130 -0.1070 -0.3730
  136fsi     O3 1722   3.390   2.772   2.317 -0.1504 -0.1104 -0.2039
  136fsi     O4 1723   3.176   2.679   2.240  0.3958 -0.5384 -1.2978
  136fsi     F2 1724   3.170   2.840   2.406  0.0457 -0.3614 -0.2360
  137fsi     F1 1725   2.199   0.076   2.636 -0.0010  0.1939 -0.1658
  137fsi     S1 1726   2.108  -0.043   2.613  0.2836 -0.2413 -0.0994
  137fsi      N 1727   2.069  -0.034   2.468  0.1583 -0.3166  0.6218
  137fsi     O1 1728   2.204  -0.153   2.638 -0.4562  0.0741  0.0731
  137fsi     O2 1729   1.999  -0.015   2.702  0.2331  0.1995 -0.3035
  137fsi     S2 1730   2.134  -0.099   2.341 -0.1118  0.3593  0.4370
  137fsi     O3 1731   2.051  -0.199   2.277  0.1107  0.1572 -0.0774
  137fsi     O4 1732   2.272  -0.134   2.352 -0.3347 -0.0820 -0.1802
  137fsi     F2 1733   2.135   0.027   2.246  0.0558 -0.3121  0.0418
  138fsi     F1 1734   0.185   0.145   0.699  0.2590  0.0569  0.0356
  138fsi     S1 1735   0.312   0.226   0.651 -0.2941  0.1517  0.2488
  138fsi      N 1736   0.411   0.118   0.604 -0.1091 -0.0738  0.3609
  138fsi     O1 1737   0.268   0.304   0.543  0.2922 -0.2564  0.3147
  138fsi     O2 1738   0.361   0.291   0.771 -0.2166  0.3645 -0.1633
  138fsi     S2 1739   0.523   0.029   0.669  0.0971  0.1242  0.3071
  138fsi     O3 1740   0.561  -0.077   0.577 -0.0498 -0.4290  0.3153
  138fsi     O4 1741   0.513   0.009   0.810  0.5228 -0.1317 -0.0236
  138fsi     F2 1742   0.639   0.133   0.657  0.1757 -0.2417  0.6751
  139fsi     F1 1743   0.944   1.546   0.412 -0.4751  0.5793  0.0032
  139fsi     S1 1744   1.022   1.513   0.545 -0.0482  0.1271 -0.1281
  139fsi      N 1745   1.064   1.365   0.517  0.4623 -0.2430 -0.6083
  139fsi     O1 1746   1.140   1.600   0.540  0.3989 -0.0815  0.2967
  139fsi     O2 1747   0.924   1.542   0.651 -0.2292  0.2822  0.0869
  139fsi     S2 1748   0.979   1.237   0.494 -0.0880  0.0483  0.1275
  139fsi     O3 1749   0.842   1.257   0.462  1.1766 -0.0301  0.3806
  139fsi     O4 1750   1.012   1.136   0.590  0.0853 -0.0203 -0.0340
  139fsi     F2 1751   1.045   1.182   0.364 -0.3213  0.3337 -0.3880
  140fsi     F1 1752   1.322   1.099   2.825 -0.4831 -0.0899  0.7550
  140fsi     S1 1753   1.299   1.253   2.836  0.4366  0.0634  0.5443
  140fsi      N 1754   1.436   1.310   2.800 -0.6455 -0.0671 -0.3295
  140fsi     O1 1755   1.194   1.274   2.742 -0.3467  0.0830 -0.2760
  140fsi     O2 1756   1.274   1.271   2.973  0.1731 -0.4773 -0.3584
  140fsi     S2 1757   1.468   1.433   2.709  0.1062  0.0808 -0.2872
  140fsi     O3 1758   1.356   1.514   2.670 -0.8300 -0.0395  0.8868
  140fsi     O4 1759   1.564   1.403   2.606  0.4292 -0.1580 -0.8420
  140fsi     F2 1760   1.562   1.511   2.800  0.0510 -0.5015 -0.6095
  141fsi     F1 1761   1.821   2.189   2.935 -0.5062 -0.4490 -0.2060
  141fsi     S1 1762   1.901   2.088   3.022 -0.4250  0.2101 -0.1518
  141fsi      N 1763   2.052   2.135   3.003  0.0003 -0.1787 -0.0411
  141fsi     O1 1764   1.855   2.105   3.152 -0.4768 -0.4003 -0.5995
  141fsi     O2 1765   1.883   1.965   2.954  0.1916 -0.2519  0.4152
  141fsi     S2 1766   2.118   2.261   3.073 -0.3469 -0.5934 -0.1430
  141fsi     O3 1767   2.075   2.273   3.212  0.2839 -0.2968  0.6142
  141fsi     O4 1768   2.125   2.381   2.993  0.1878  0.0303 -0.6335
  141fsi     F2 1769   2.266   2.219   3.093  0.6038  0.0799 -0.2305
  142fsi     F1 1770   2.680   3.038   0.876 -0.3548  0.3191 -0.3508
  142fsi     S1 1771   2.800   2.939   0.849 -0.0088  0.6186 -0.1388
  142fsi      N 1772   2.883   2.953   0.985  0.5107  1.2032 -0.2339
  142fsi     O1 1773   2.733   2.816   0.828  0.2000 -0.2144  0.4759
  142fsi     O2 1774   2.862   3.006   0.736 -0.6459 -0.0763 -0.5497
  142fsi     S2 1775   2.868   2.873   1.115  0.1396  0.2988  0.5925
  142fsi     O3 1776   2.734   2.889   1.172 -0.0208  0.5029 -0.5779
  142fsi     O4 1777   2.979   2.882   1.205  0.4755 -0.2332  0.3675
  142fsi     F2 1778   2.885   2.718   1.069 -0.0926  0.0432  0.8041
  143fsi     F1 1779   0.783   0.848   1.804 -0.1661 -0.6762  0.1638
  143fsi     S1 1780   0.880   0.794   1.921 -0.2356  0.3391  0.0157
  143fsi      N 1781   1.023   0.833   1.878 -0.2523 -0.5788  0.7159
  143fsi     O1 1782   0.825   0.863   2.038  0.5042 -0.4835  0.2537
  143fsi     O2 1783   0.862   0.650   1.924  0.1523  0.7491  0.1456
  143fsi     S2 1784   1.077   0.981   1.851  0.2402 -0.0065 -0.2761
  143fsi     O3 1785   0.995   1.090   1.897 -0.4675 -1.0810 -0.3876
  143fsi     O4 1786   1.141   0.996   1.720  0.5945 -0.5331 -0.0437
  143fsi     F2 1787   1.203   0.979   1.948 -0.1186 -0.2592  0.2652
  144fsi     F1 1788   1.496   2.842   2.444  0.3529 -0.1794  0.1386
  144fsi     S1 1789   1.381   2.768   2.374  0.5949  0.1039 -0.4226
  144fsi      N 1790   1.263   2.780   2.477 -0.2102  0.3998  0.5343
  144fsi     O1 1791   1.357   2.850   2.262 -0.0859 -0.7058 -0.3803
  144fsi     O2 1792   1.432   2.633   2.352 -0.3638  0.5139 -0.5810
  144fsi     S2 1793   1.226   2.690   2.603  0.1354 -0.0260  0.3562
  144fsi     O3 1794   1.184   2.764   2.720 -0.2577 -0.2545  0.0433
  144fsi     O4 1795   1.318   2.585   2.623  0.1973  0.8625  0.0513
  144fsi     F2 1796   1.090   2.617   2.559 -0.0766 -0.0742 -0.1568
  145fsi     F1 1797   0.962   1.043   2.491  0.3736 -0.1516 -0.2594
  145fsi     S1 1798   1.000   1.050   2.335 -0.6363  0.2663 -0.4096
  145fsi      N 1799   1.093   1.177   2.335  0.3338 -0.2197 -0.2381
  145fsi     O1 1800   1.066   0.923   2.315  0.3730 -0.5045  0.7339
  145fsi     O2 1801   0.873   1.072   2.267 -0.1303 -0.0788 -0.6304
  145fsi     S2 1802   1.247   1.192   2.311  0.0219  0.0389  0.3254
  145fsi     O3 1803   1.322   1.076   2.339  0.1078 -0.1410  0.0541
  145fsi     O4 1804   1.291   1.312   2.375 -0.9063 -0.0407  0.4336
  145fsi     F2 1805   1.268   1.217   2.158  0.0139 -0.1531 -0.1317
  146fsi     F1 1806   2.667   1.907   2.284 -0.4628  0.6854  0.1391
  146fsi     S1 1807   2.822   1.910   2.303 -0.1863 -0.0020  0.2880
  146fsi      N 1808   2.872   1.767   2.261 -0.5666  0.2137  0.3243
  146fsi     O1 1809   2.857   2.018   2.219 -0.3663 -0.0182  0.0856
  146fsi     O2 1810   2.839   1.925   2.446 -0.3261 -0.1833  0.0114
  146fsi     S2 1811   2.967   1.725   2.138  0.2405 -0.3038 -0.2509
  146fsi     O3 1812   2.983   1.829   2.040 -0.4828  0.6461  0.0263
  146fsi     O4 1813   2.925   1.599   2.086  0.1613 -0.5571  0.0130
  146fsi     F2 1814   3.109   1.705   2.204 -0.1012 -0.0743  0.1536
  147fsi     F1 1815   1.138   0.274   2.035 -0.2794 -0.3191  0.3789
  147fsi     S1 1816   1.188   0.419   2.012 -0.1677  0.2802 -0.2637
  147fsi      N 1817   1.069   0.498   2.079 -0.5365 -0.3035  0.0434
  147fsi     O1 1818   1.316   0.426   2.087 -0.1363  0.6375  0.1289
  147fsi     O2 1819   1.180   0.437   1.870 -0.4563  0.1456  0.0558
  147fsi     S2 1820   1.056   0.541   2.228 -0.5963  0.0546 -0.1713
  147fsi     O3 1821   0.943   0.629   2.257  0.0410  0.0027  0.2821
  147fsi     O4 1822   1.182   0.573   2.289  0.8061  0.1540 -0.1040
  147fsi     F2 1823   1.019   0.403   2.293  0.2316 -1.0164  0.0996
  148fsi     F1 1824   1.204   1.650   1.935 -0.0213  0.3761  0.6243
  148fsi     S1 1825   1.243   1.643   1.780 -0.3144  0.3602 -0.3200
  148fsi      N 1826   1.292   1.498   1.742 -0.5619 -0.4462  0.2791
  148fsi     O1 1827   1.128   1.683   1.705  0.0335  0.2378  0.0322
  148fsi     O2 1828   1.355   1.732   1.777  0.9695  0.2532  0.1573
  148fsi     S2 1829   1.205   1.373   1.765  0.1496 -0.0286  0.1911
  148fsi     O3 1830   1.190   1.284   1.651 -0.3821  0.1818 -0.7069
  148fsi     O4 1831   1.083   1.400   1.843 -0.4247 -0.0925  0.4278
  148fsi     F2 1832   1.296   1.290   1.872  0.4322  0.0205 -0.2978
  149fsi     F1 1833   0.045   1.991   2.907  0.2633  0.0884  0.9920
  149fsi     S1 1834   0.170   1.958   2.993  0.1428 -0.1826 -0.3619
  149fsi      N 1835   0.266   1.898   2.887  0.0633 -0.2310  0.0835
  149fsi     O1 1836   0.218   2.083   3.043  0.5913 -0.0508  0.9150
  149fsi     O2 1837   0.116   1.864   3.092  0.0792  0.0162  0.1370
  149fsi     S2 1838   0.325   1.755   2.859 -0.3643 -0.1545 -0.0563
  149fsi     O3 1839   0.359   1.735   2.722 -0.0367  0.1834  0.3231
  149fsi     O4 1840   0.258   1.647   2.922 -0.2844 -0.3111 -0.8520
  149fsi     F2 1841   0.465   1.760   2.928  0.3963  0.2932  0.3097
  150fsi     F1 1842   0.335   2.432   1.482  0.3599  0.2146 -0.4361
  150fsi     S1 1843   0.441   2.368   1.386  0.1368 -0.1562  0.1585
  150fsi      N 1844   0.347   2.317   1.269 -0.0033 -0.3574  0.2405
  150fsi     O1 1845   0.533   2.475   1.355  0.1913 -0.1551 -0.0896
  150fsi     O2 1846   0.491   2.263   1.461  0.1766  0.0047 -0.1255
  150fsi     S2 1847   0.359   2.346   1.117 -0.1676 -0.2813  0.2537
  150fsi     O3 1848   0.255   2.279   1.033 -0.7669 -0.0770 -0.1362
  150fsi     O4 1849   0.490   2.350   1.069 -0.0671  0.7371  0.9393
  150fsi     F2 1850   0.312   2.496   1.111  0.6875  0.3910 -0.0511
  151fsi     F1 1851   2.967   1.878   0.749  0.4707  0.0712  0.0610
  151fsi     S1 1852   3.112   1.818   0.762  0.5478  0.2374  0.1528
  151fsi      N 1853   3.175   1.902   0.879  0.3956  0.0832  0.0582
  151fsi     O1 1854   3.096   1.679   0.789 -0.3002  0.0605  0.0247
  151fsi     O2 1855   3.178   1.850   0.642 -0.5550 -0.5663  0.0775
  151fsi     S2 1856   3.140   1.896   1.035 -0.0500 -0.3025 -0.0686
  151fsi     O3 1857   3.002   1.873   1.063  0.0351  0.2092 -0.4181
  151fsi     O4 1858   3.213   1.992   1.115 -0.0129 -0.0938  0.1773
  151fsi     F2 1859   3.221   1.762   1.074  0.1997 -0.2846 -0.1180
  152fsi     F1 1860   0.651   2.847   3.031 -0.1654 -0.1718 -0.1251
  152fsi     S1 1861   0.773   2.908   2.954 -0.0769  0.3858 -0.1703
  152fsi      N 1862   0.839   3.006   3.053 -0.3653  0.1618  0.0051
  152fsi     O1 1863   0.851   2.789   2.931  0.4728  0.3179 -0.6441
  152fsi     O2 1864   0.719   2.977   2.840  0.3682  0.2437 -0.0239
  152fsi     S2 1865   0.918   2.959   3.183  0.4256  0.0693 -0.3619
  152fsi     O3 1866   0.844   2.878   3.276 -0.0997 -0.7215 -0.4218
  152fsi     O4 1867   1.002   3.062   3.243 -0.4865  0.3271 -0.2389
  152fsi     F2 1868   1.028   2.867   3.125 -0.7680  0.2074 -0.0205
  153fsi     F1 1869   0.576   0.712   2.549 -0.1625 -0.4274 -0.6021
  153fsi     S1 1870   0.579   0.789   2.415 -0.0259 -0.1087 -0.0659
  153fsi      N 1871   0.488   0.706   2.322  0.3150 -0.3057 -0.1583
  153fsi     O1 1872   0.512   0.908   2.447  0.4217  0.0823  0.1478
  153fsi     O2 1873   0.721   0.808   2.386 -0.1184 -0.3928 -0.3134
  153fsi     S2 1874   0.530   0.604   2.215  0.1829  0.3458 -0.2561
  153fsi     O3 1875   0.434   0.497   2.191  0.0221 -0.9308  0.1784
  153fsi     O4 1876   0.664   0.566   2.232  0.0312  0.3813 -0.7781
  153fsi     F2 1877   0.529   0.690   2.079  0.8274  0.1547 -0.0084
  154fsi     F1 1878   2.652   1.003   0.667 -0.0305 -0.7823  0.1549
  154fsi     S1 1879   2.606   0.883   0.761  0.6907 -0.0562  0.2911
  154fsi      N 1880   2.747   0.855   0.832 -0.5485  0.1206  0.1006
  154fsi     O1 1881   2.501   0.940   0.848  0.1195  0.0545 -0.2176
  154fsi     O2 1882   2.563   0.776   0.670 -0.5351 -0.4120  0.0810
  154fsi     S2 1883   2.785   0.874   0.984 -0.0864 -0.1747 -0.1842
  154fsi     O3 1884   2.675   0.882   1.077 -0.0148 -0.0125  0.6067
  154fsi     O4 1885   2.890   0.970   0.998 -0.0954  0.8585  0.1232
  154fsi     F2 1886   2.857   0.750   1.021 -0.2405 -0.3865  0.0869
  155fsi     F1 1887   1.368   1.754   0.736  0.2772 -0.2085 -0.1922
  155fsi     S1 1888   1.435   1.642   0.823 -0.1802  0.3233 -0.0638
  155fsi      N 1889   1.320   1.590   0.921  0.1487 -0.2194 -0.4844
  155fsi     O1 1890   1.476   1.560   0.716  0.2931  0.2211  0.0150
  155fsi     O2 1891   1.538   1.712   0.895  0.3019  0.4846  0.2772
  155fsi     S2 1892   1.223   1.468   0.911 -0.1958  0.1788  0.1818
  155fsi     O3 1893   1.228   1.396   0.784 -0.1179  0.5123  0.0235
  155fsi     O4 1894   1.092   1.500   0.960 -0.0440 -0.3515  0.0472
  155fsi     F2 1895   1.278   1.366   1.013 -0.0733  0.2727  0.2004
  156fsi     F1 1896   1.144   0.408   0.952 -0.1810 -0.6552  0.2361
  156fsi     S1 1897   1.092   0.470   1.090  0.1507 -0.1973  0.1076
  156fsi      N 1898   1.000   0.588   1.041 -0.0647  0.2757  0.0688
  156fsi     O1 1899   1.027   0.355   1.155  0.2061 -0.1578  0.1214
  156fsi     O2 1900   1.212   0.522   1.143  0.2315  0.1391 -0.6165
  156fsi     S2 1901   0.853   0.587   0.988  0.4361 -0.1493 -0.3521
  156fsi     O3 1902   0.764   0.671   1.068 -0.2124  0.6221  0.3026
  156fsi     O4 1903   0.798   0.461   0.952 -0.5884  0.0483  0.5332
  156fsi     F2 1904   0.853   0.666   0.855  0.2502  0.6099  0.0635
  157fsi     F1 1905   1.360   1.688   0.236 -0.8150  0.6863  0.0949
  157fsi     S1 1906   1.428   1.543   0.254 -0.1989  0.8198 -0.0315
  157fsi      N 1907   1.576   1.576   0.220 -0.4046  0.3293  0.0512
  157fsi     O1 1908   1.411   1.526   0.391  0.9036  0.3810 -0.2197
  157fsi     O2 1909   1.356   1.462   0.160 -0.0067 -0.0262  0.2056
  157fsi     S2 1910   1.660   1.532   0.094 -0.0554  0.0868 -0.2365
  157fsi     O3 1911   1.735   1.641   0.034 -0.1066  0.0027  0.3214
  157fsi     O4 1912   1.595   1.441   0.001  0.2813  0.5204 -0.0073
  157fsi     F2 1913   1.777   1.437   0.149  0.0748 -0.4327 -0.1507
  158fsi     F1 1914   0.290   2.342   0.548  0.1531  0.1583 -0.1095
  158fsi     S1 1915   0.341   2.242   0.646  0.1336  0.0625  0.5461
  158fsi      N 1916   0.406   2.334   0.756  0.6278  0.3428 -0.1526
  158fsi     O1 1917   0.226   2.180   0.707  0.2279  0.2294 -0.0053
  158fsi     O2 1918   0.437   2.165   0.570  0.3842 -0.0308 -0.2380
  158fsi     S2 1919   0.545   2.412   0.736  0.7401 -0.0639 -0.4604
  158fsi     O3 1920   0.573   2.445   0.600  0.1604  0.3794 -0.3454
  158fsi     O4 1921   0.653   2.372   0.822 -0.0402 -0.2373 -0.1888
  158fsi     F2 1922   0.513   2.554   0.797  0.4435 -0.5446  0.1340
  159fsi     F1 1923   2.175   1.176   1.659 -0.3978  0.2235 -0.6827
  159fsi     S1 1924   2.219   1.305   1.585  0.6459  0.1129 -0.5112
  159fsi      N 1925   2.091   1.321   1.499 -0.0466  0.0628  0.4559
  159fsi     O1 1926   2.240   1.405   1.683 -0.2605  0.1953 -1.1354
  159fsi     O2 1927   2.333   1.260   1.508 -0.6713 -0.4737  0.6094
  159fsi     S2 1928   1.971   1.429   1.507  0.5270  0.1649  0.4503
  159fsi     O3 1929   1.953   1.484   1.639 -0.4818  0.0774 -0.2561
  159fsi     O4 1930   1.852   1.379   1.444 -0.4918 -0.0213 -0.0606
  159fsi     F2 1931   2.018   1.551   1.420  0.4082 -0.4034 -0.1999
  160fsi     F1 1932   2.408   0.906   1.981 -0.4189 -0.3081  0.1035
  160fsi     S1 1933   2.475   1.049   1.969  0.2437  0.1290  0.2183
  160fsi      N 1934   2.628   1.003   1.933  1.0333  0.1219 -0.4135
  160fsi     O1 1935   2.412   1.105   1.855 -0.1439  0.0998  0.2804
  160fsi     O2 1936   2.444   1.103   2.101 -0.2715 -0.3981 -0.0368
  160fsi     S2 1937   2.750   0.991   2.030 -0.0520  0.1867  0.1533
  160fsi     O3 1938   2.712   0.979   2.167  0.1650  0.4538  0.2251
  160fsi     O4 1939   2.862   1.073   1.997  0.0624  0.1230  0.3032
  160fsi     F2 1940   2.797   0.839   1.995  0.0090  0.1912 -0.0146
  161fsi     F1 1941   1.049   2.965   2.218  0.3848  0.1341  0.4968
  161fsi     S1 1942   0.994   3.059   2.336  0.1082  0.1723  0.3739
  161fsi      N 1943   0.856   2.985   2.367  0.7448 -0.4133 -0.0736
  161fsi     O1 1944   1.092   3.055   2.443 -0.4316 -0.4113  0.1419
  161fsi     O2 1945   0.976   3.184   2.269  0.2199 -0.1728 -0.0109
  161fsi     S2 1946   0.823   2.864   2.465 -0.1814  0.4237  0.1902
  161fsi     O3 1947   0.685   2.860   2.512 -0.0894  1.0299  0.0033
  161fsi     O4 1948   0.921   2.849   2.570 -0.0476 -0.2984 -0.1598
  161fsi     F2 1949   0.842   2.739   2.367  0.0777 -0.3358 -0.1136
  162fsi     F1 1950   1.312   2.867   1.583  0.1001  0.3082 -0.4371
  162fsi     S1 1951   1.468   2.842   1.562  0.5134 -0.1317 -0.0822
  162fsi      N 1952   1.525   2.987   1.550  0.0095  0.1611  0.7469
  162fsi     O1 1953   1.494   2.773   1.686  0.2062  0.1186  0.3577
  162fsi     O2 1954   1.470   2.766   1.443  0.5291  0.3584  0.3410
  162fsi     S2 1955   1.667   3.035   1.586  0.0689 -0.0292  0.4653
  162fsi     O3 1956   1.738   2.951   1.679  0.4707  0.4008 -0.3671
  162fsi     O4 1957   1.674   3.178   1.605  0.7830  0.0029  0.3819
  162fsi     F2 1958   1.732   3.017   1.446  0.0385  0.0388  0.0760
  163fsi     F1 1959   2.108   0.308   0.494  0.3682  0.0718 -0.2792
  163fsi     S1 1960   2.120   0.460   0.460 -0.1670 -0.3411  0.2096
  163fsi      N 1961   1.982   0.485   0.391 -0.1872 -0.1650 -0.8995
  163fsi     O1 1962   2.136   0.525   0.590  0.2479 -0.5066  0.4583
  163fsi     O2 1963   2.231   0.470   0.381 -0.4624  0.0134  0.4754
  163fsi     S2 1964   1.847   0.540   0.453 -0.5812 -0.0181 -0.1566
  163fsi     O3 1965   1.834   0.526   0.597  0.2284  0.4873 -0.1981
  163fsi     O4 1966   1.732   0.522   0.369 -0.5249 -0.4110 -0.2357
  163fsi     F2 1967   1.869   0.694   0.443 -0.2643  0.4257  0.2011
  164fsi     F1 1968   2.259   1.017   0.457  0.1150 -0.3985 -0.0612
  164fsi     S1 1969   2.222   0.890   0.381  0.1529 -0.1672 -0.6562
  164fsi      N 1970   2.313   0.882   0.255 -0.1573  0.4021  0.3073
  164fsi     O1 1971   2.241   0.782   0.474 -0.3237  0.4211  0.1451
  164fsi     O2 1972   2.087   0.917   0.335 -0.0086 -0.0436  0.4596
  164fsi     S2 1973   2.426   0.782   0.215  0.1591 -0.0450  0.1815
  164fsi     O3 1974   2.520   0.835   0.121  0.0522 -0.4068  0.0779
  164fsi     O4 1975   2.383   0.643   0.191  0.1805  0.1957 -0.4238
  164fsi     F2 1976   2.514   0.772   0.344  0.7546 -0.0887  0.5247
  165fsi     F1 1977   1.703   0.640   1.045  0.6973 -0.1470  0.0265
  165fsi     S1 1978   1.651   0.498   1.018 -0.3786 -0.2376 -0.1552
  165fsi      N 1979   1.690   0.407   1.138 -0.1385  0.5684 -0.7527
  165fsi     O1 1980   1.508   0.523   1.013  0.3070 -0.0287 -0.5399
  165fsi     O2 1981   1.716   0.467   0.897  0.1723  0.3732 -0.2799
  165fsi     S2 1982   1.632   0.412   1.281  0.0517  0.0113  0.6708
  165fsi     O3 1983   1.678   0.304   1.361  0.4401 -0.7902 -0.0740
  165fsi     O4 1984   1.491   0.440   1.285 -0.2125  0.2218  0.0290
  165fsi     F2 1985   1.700   0.536   1.343  0.4121 -0.2279 -0.0504
  166fsi     F1 1986   2.134   2.980   1.474 -0.5108 -0.1925  0.1348
  166fsi     S1 1987   2.188   2.850   1.405 -0.2569 -0.5868  0.0943
  166fsi      N 1988   2.058   2.767   1.376 -0.1681 -0.1250 -0.4126
  166fsi     O1 1989   2.237   2.901   1.283  0.1303  0.0665  0.8675
  166fsi     O2 1990   2.278   2.802   1.502  0.1865 -0.1089 -0.2051
  166fsi     S2 1991   1.977   2.682   1.473  0.5561  0.0874 -0.3431
  166fsi     O3 1992   1.841   2.722   1.476  0.3082 -0.0431  0.4076
  166fsi     O4 1993   2.041   2.657   1.601  0.0332  0.7015  0.2973
  166fsi     F2 1994   1.969   2.551   1.398 -0.1799  0.2095  0.1602
  167fsi     F1 1995   0.569   1.208   2.512  0.3037  0.2180 -0.0349
  167fsi     S1 1996   0.448   1.250   2.596  0.1167 -0.0511 -0.1429
  167fsi      N 1997   0.504   1.259   2.740 -0.1641  0.6498 -0.2094
  167fsi     O1 1998   0.415   1.375   2.532  0.7224 -0.8235  0.1319
  167fsi     O2 1999   0.350   1.146   2.570  0.4323  0.0775 -0.6632
  167fsi     S2 2000   0.498   1.146   2.847  0.0330  0.4483  0.3892
  167fsi     O3 2001   0.383   1.059   2.855  0.0816 -0.5446  0.1671
  167fsi     O4 2002   0.541   1.193   2.974 -0.6258 -0.0807 -0.3194
  167fsi     F2 2003   0.617   1.050   2.803 -0.3784  0.3898  0.2268
  168fsi     F1 2004   0.349   2.963   1.461  0.0111 -0.6733 -0.4742
  168fsi     S1 2005   0.361   2.821   1.397 -0.3870 -0.1797 -0.1591
  168fsi      N 2006   0.277   2.736   1.492 -0.1996  0.5765 -0.6083
  168fsi     O1 2007   0.304   2.834   1.264  0.2875  0.8002  0.2787
  168fsi     O2 2008   0.500   2.788   1.409 -1.0902 -0.5050 -0.7438
  168fsi     S2 2009   0.127   2.730   1.518 -0.2641 -0.2080 -0.1164
  168fsi     O3 2010   0.068   2.857   1.487 -0.1554 -0.1051 -0.0016
  168fsi     O4 2011   0.096   2.664   1.645 -0.0098 -0.2835  0.1285
  168fsi     F2 2012   0.073   2.639   1.407 -0.3596  0.2103  0.1786
  169fsi     F1 2013   1.494   1.010   0.388 -0.0292 -0.2469  0.0646
  169fsi     S1 2014   1.478   1.167   0.354 -0.5164  0.2063 -0.0265
  169fsi      N 2015   1.628   1.205   0.321  0.1828  0.3670  0.5415
  169fsi     O1 2016   1.397   1.173   0.236 -0.5826  0.1200 -0.4069
  169fsi     O2 2017   1.436   1.231   0.476 -0.6340  0.1704  0.1648
  169fsi     S2 2018   1.754   1.218   0.415 -0.2030 -0.5154 -0.3283
  169fsi     O3 2019   1.879   1.182   0.349  0.1188  0.6476  0.0020
  169fsi     O4 2020   1.731   1.188   0.556  0.3852  0.3418 -0.3771
  169fsi     F2 2021   1.765   1.378   0.424 -0.3334  0.2188 -0.4562
  170fsi     F1 2022   2.058   2.156   1.231  0.1770 -0.6099 -0.3810
  170fsi     S1 2023   2.064   2.109   1.374  0.1347  0.7114 -0.2410
  170fsi      N 2024   2.044   1.952   1.351  0.0173 -0.2788  0.2743
  170fsi     O1 2025   2.196   2.150   1.402  0.2900  0.4632  0.1953
  170fsi     O2 2026   1.960   2.189   1.430  0.1297 -0.1344 -0.4142
  170fsi     S2 2027   1.914   1.879   1.300 -0.2890 -0.5042  0.2485
  170fsi     O3 2028   1.924   1.768   1.209  0.3325  0.3021  0.1351
  170fsi     O4 2029   1.807   1.972   1.268 -0.8105 -0.0383  0.1662
  170fsi     F2 2030   1.854   1.812   1.435 -0.2734 -0.3660 -0.0125
  171fsi     F1 2031   2.485   2.169   1.849  0.0290 -0.0011  0.3672
  171fsi     S1 2032   2.543   2.132   1.707 -1.0141 -0.1818  0.3484
  171fsi      N 2033   2.605   1.992   1.738  0.5288 -0.2893 -0.4942
  171fsi     O1 2034   2.418   2.125   1.632  0.1236  0.5554  0.5305
  171fsi     O2 2035   2.635   2.234   1.677 -0.4359 -0.0596 -0.0834
  171fsi     S2 2036   2.740   1.954   1.809  0.0867  0.1169 -0.5681
  171fsi     O3 2037   2.816   2.066   1.861 -0.2464 -0.2727  0.1016
  171fsi     O4 2038   2.817   1.856   1.736 -0.1386  0.1212  0.2699
  171fsi     F2 2039   2.692   1.882   1.941 -0.2534 -0.3031  0.1017
  172fsi     F1 2040   1.546   2.224   2.045  0.4402 -0.4112 -0.0146
  172fsi     S1 2041   1.498   2.184   2.190  0.1454  0.1937  0.0937
  172fsi      N 2042   1.346   2.178   2.159  0.3139 -0.5173  0.1410
  172fsi     O1 2043   1.559   2.054   2.217  0.4895 -0.1429 -0.0252
  172fsi     O2 2044   1.535   2.296   2.271  0.0445 -0.2207  0.5977
  172fsi     S2 2045   1.261   2.065   2.089 -0.7006  0.1590  0.1390
  172fsi     O3 2046   1.339   1.975   2.014  0.1316 -0.0242 -0.0411
  172fsi     O4 2047   1.152   2.130   2.026  0.3087  0.0339 -0.3822
  172fsi     F2 2048   1.201   1.981   2.203  0.4410  0.1984 -0.5457
  173fsi     F1 2049   0.123   1.471   1.474  0.4214 -0.1992  0.1200
  173fsi     S1 2050   0.109   1.323   1.522 -0.0957  0.0760 -0.0883
  173fsi      N 2051   0.092   1.244   1.385 -0.4953 -0.2478 -0.1093
  173fsi     O1 2052   0.234   1.291   1.591  0.2479  0.5459 -0.5641
  173fsi     O2 2053  -0.003   1.319   1.610 -0.0892 -0.3725 -0.6784
  173fsi     S2 2054  -0.033   1.180   1.310  0.4311 -0.2645 -0.0927
  173fsi     O3 2055  -0.146   1.136   1.386 -0.2303  0.0474 -0.5171
  173fsi     O4 2056   0.006   1.089   1.205 -0.6104  0.4749 -0.3223
  173fsi     F2 2057  -0.082   1.308   1.228  0.2755  0.0684 -0.1407
  174fsi     F1 2058   0.994   2.350   0.240 -0.2674  0.3352  0.1269
  174fsi     S1 2059   0.979   2.488   0.176  0.6479 -0.2688  0.2368
  174fsi      N 2060   0.982   2.459   0.018  0.2459 -0.0534 -0.1278
  174fsi     O1 2061   0.842   2.523   0.206  0.1582 -0.0812  0.5093
  174fsi     O2 2062   1.084   2.570   0.231  0.5650 -0.0694 -0.6569
  174fsi     S2 2063   1.106   2.470  -0.079 -0.1103 -0.3052  0.1752
  174fsi     O3 2064   1.232   2.456  -0.020 -0.1642  0.1768  0.3112
  174fsi     O4 2065   1.083   2.584  -0.169 -0.0248 -0.2337 -0.5016
  174fsi     F2 2066   1.085   2.337  -0.172 -0.2453  0.0128  0.0548
  175fsi     F1 2067   2.014   1.591   0.140 -0.5012 -0.2936 -0.0700
  175fsi     S1 2068   2.091   1.725   0.105  0.0567  0.2624  0.0088
  175fsi      N 2069   2.036   1.823   0.209 -0.4361 -0.0958 -0.0221
  175fsi     O1 2070   2.225   1.675   0.126  0.1372 -0.8276 -0.2653
  175fsi     O2 2071   2.046   1.766  -0.026  0.3781  1.0320  0.1528
  175fsi     S2 2072   2.110   1.941   0.284 -0.1690  0.2571 -0.0940
  175fsi     O3 2073   2.004   2.030   0.325 -0.4945  0.8330  0.5766
  175fsi     O4 2074   2.214   1.998   0.205  0.0908 -0.3754  0.6233
  175fsi     F2 2075   2.165   1.878   0.418  0.0402  0.0192  0.3001
  176fsi     F1 2076   2.604   2.405   0.091  0.8054  0.2318  0.1120
  176fsi     S1 2077   2.740   2.486   0.105 -0.2147  0.3087  0.2979
  176fsi      N 2078   2.842   2.384   0.039  0.1610  0.2264  0.4277
  176fsi     O1 2079   2.714   2.606   0.032 -0.4830  0.3670  0.4418
  176fsi     O2 2080   2.760   2.498   0.248 -0.1812  0.0944  0.7382
  176fsi     S2 2081   2.913   2.390  -0.102 -0.2102 -0.0366  0.4349
  176fsi     O3 2082   3.016   2.289  -0.119  0.7036 -0.2561  0.1197
  176fsi     O4 2083   2.940   2.518  -0.160 -0.1963 -0.5547 -0.1197
  176fsi     F2 2084   2.797   2.336  -0.194 -0.3136  0.0695 -0.0772
  177fsi     F1 2085   2.973   1.140   2.291  0.0632 -0.1663 -0.4084
  177fsi     S1 2086   3.034   1.009   2.349 -0.0429 -0.0070 -0.3012
  177fsi      N 2087   3.080   0.938   2.223 -0.1614  0.0493  0.5573
  177fsi     O1 2088   3.135   1.054   2.443 -0.4035  0.1744 -0.0019
  177fsi     O2 2089   2.922   0.949   2.410 -0.5013 -0.5143  0.2332
  177fsi     S2 2090   3.223   0.900   2.179  0.0902  0.3336  0.0207
  177fsi     O3 2091   3.329   0.936   2.271  0.2862 -1.1506  0.4418
  177fsi     O4 2092   3.249   0.926   2.040 -0.3912 -0.1580  0.5623
  177fsi     F2 2093   3.228   0.737   2.177 -0.1152 -0.1539  0.0177
  178fsi     F1 2094   1.985   1.842   1.789 -0.7918  0.1283  0.3361
  178fsi     S1 2095   2.133   1.842   1.746  0.3209  0.5322  0.1113
  178fsi      N 2096   2.205   1.866   1.882 -0.3938 -0.1534  0.3820
  178fsi     O1 2097   2.164   1.712   1.698  0.1045  0.0488 -0.1262
  178fsi     O2 2098   2.148   1.955   1.655  0.3433 -0.5952 -0.7165
  178fsi     S2 2099   2.247   1.764   1.993 -0.1453  0.2850 -0.5067
  178fsi     O3 2100   2.227   1.625   1.956  0.2934 -0.4862  0.6100
  178fsi     O4 2101   2.212   1.800   2.127 -0.5584  0.3397 -0.3128
  178fsi     F2 2102   2.400   1.795   1.990 -0.0704 -0.4951  0.4275
  179fsi     F1 2103   1.126   0.778   1.249  0.1002 -0.3142 -0.5312
  179fsi     S1 2104   1.027   0.893   1.274  0.1506  0.1696  0.6277
  179fsi      N 2105   1.042   0.978   1.140 -0.0842  0.4313  0.0574
  179fsi     O1 2106   0.902   0.826   1.298  0.5473 -0.0831  0.4182
  179fsi     O2 2107   1.093   0.958   1.389  0.8970 -0.5244  0.8965
  179fsi     S2 2108   0.932   1.020   1.038  0.0139 -0.2793  0.4140
  179fsi     O3 2109   0.795   0.995   1.079 -0.5866 -0.4836  0.0841
  179fsi     O4 2110   0.962   0.986   0.902 -0.5094 -0.1250  0.2022
  179fsi     F2 2111   0.941   1.173   1.032  0.0989  0.2434  0.2519
  180fsi     F1 2112   1.401   0.835   1.566  0.1847  0.4221  0.1265
  180fsi     S1 2113   1.365   0.686   1.586 -0.0288  0.1912  0.2360
  180fsi      N 2114   1.506   0.615   1.569  0.0343 -0.1475 -0.1663
  180fsi     O1 2115   1.303   0.679   1.721  0.1392  0.2828  0.5639
  180fsi     O2 2116   1.280   0.659   1.476  0.4575  0.5456 -0.0393
  180fsi     S2 2117   1.616   0.575   1.670 -0.2352 -0.1495  0.2795
  180fsi     O3 2118   1.691   0.693   1.713  0.2248  0.6321  0.3457
  180fsi     O4 2119   1.689   0.462   1.628 -0.0905 -0.2439 -0.0241
  180fsi     F2 2120   1.547   0.527   1.805  0.2744 -0.8694 -0.0314
  181fsi     F1 2121   1.762   1.615   2.580 -0.2824 -0.6715  0.1614
  181fsi     S1 2122   1.743   1.758   2.644 -0.1033 -0.3747 -0.1007
  181fsi      N 2123   1.872   1.827   2.594 -0.8881  0.6588 -0.1784
  181fsi     O1 2124   1.617   1.805   2.589 -0.0689  0.1761 -0.4850
  181fsi     O2 2125   1.747   1.733   2.784  0.0620 -0.3681 -0.4288
  181fsi     S2 2126   1.892   1.963   2.522  0.1114  0.1688  0.1517
  181fsi     O3 2127   1.774   2.025   2.472 -0.1001  0.2476 -0.5394
  181fsi     O4 2128   2.009   1.961   2.438  0.1977  0.1720  0.0863
  181fsi     F2 2129   1.920   2.050   2.644 -0.1002  0.0781  0.2637
  182fsi     F1 2130   2.932   0.662   2.352 -0.0622  0.4368  0.2505
  182fsi     S1 2131   2.962   0.596   2.490 -0.0839  0.1229  0.1113
  182fsi      N 2132   3.093   0.668   2.531  0.4971 -0.5957  0.3100
  182fsi     O1 2133   2.851   0.635   2.579  0.2457 -0.1278 -0.2141
  182fsi     O2 2134   2.966   0.452   2.460  0.2050 -0.0647 -0.1082
  182fsi     S2 2135   3.245   0.632   2.505 -0.1666 -0.1700  0.0731
  182fsi     O3 2136   3.330   0.746   2.525  0.3768  0.6552  0.1704
  182fsi     O4 2137   3.270   0.532   2.402 -0.5516  0.1452  0.1659
  182fsi     F2 2138   3.265   0.560   2.646  0.2286  0.3265  0.7070
  183fsi     F1 2139   2.634   2.789   1.510  0.1212 -0.1371  0.1678
  183fsi     S1 2140   2.792   2.761   1.546  0.3603  0.1866 -0.3268
  183fsi      N 2141   2.842   2.907   1.584 -0.6946  0.2912  0.0871
  183fsi     O1 2142   2.789   2.666   1.653 -0.1063 -0.2383 -0.6283
  183fsi     O2 2143   2.848   2.723   1.420 -0.2533 -0.0923  0.6280
  183fsi     S2 2144   2.864   2.981   1.716  0.1337 -0.2359 -0.0506
  183fsi     O3 2145   2.878   2.894   1.829  0.4760  0.0943 -1.0734
  183fsi     O4 2146   2.791   3.102   1.727 -0.6954  0.5901  0.5118
  183fsi     F2 2147   3.008   3.027   1.688 -0.4274 -0.1532 -0.1773
  184fsi     F1 2148   1.333   2.350   0.899  0.3666 -0.3225 -0.0693
  184fsi     S1 2149   1.462   2.402   0.965 -0.7024 -0.2114  0.3470
  184fsi      N 2150   1.491   2.285   1.067  0.9254 -0.4301  0.4252
  184fsi     O1 2151   1.555   2.397   0.851 -0.0330  0.6530 -0.1789
  184fsi     O2 2152   1.434   2.528   1.018  0.0841 -0.2940 -0.1792
  184fsi     S2 2153   1.478   2.293   1.223  0.0168  0.0469  0.1511
  184fsi     O3 2154   1.501   2.424   1.282 -0.7743 -0.1990  0.2640
  184fsi     O4 2155   1.528   2.180   1.301 -0.5900 -0.0487  0.0321
  184fsi     F2 2156   1.323   2.292   1.241 -0.3891 -0.5836  0.0672
  185fsi     F1 2157   2.420   1.364   2.713  0.3908 -0.5113 -0.1654
  185fsi     S1 2158   2.558   1.413   2.676  0.1256  0.1217  0.1344
  185fsi      N 2159   2.613   1.285   2.599  0.8841  0.3605  0.5198
  185fsi     O1 2160   2.530   1.529   2.591  0.4061  0.1872 -0.4306
  185fsi     O2 2161   2.623   1.433   2.804  0.3814  0.3940 -0.5867
  185fsi     S2 2162   2.577   1.207   2.461 -0.5299 -0.3893  0.2686
  185fsi     O3 2163   2.465   1.262   2.390  0.1661  0.3059 -0.0718
  185fsi     O4 2164   2.572   1.062   2.473 -0.4303  0.2091 -0.2355
  185fsi     F2 2165   2.694   1.237   2.357  0.3450  0.2691 -0.1071
  186fsi     F1 2166   1.013   2.774   1.639  0.1599  0.2742  0.2726
  186fsi     S1 2167   0.866   2.734   1.669  0.0600 -0.2831 -0.0934
  186fsi      N 2168   0.888   2.590   1.722  0.2185 -0.2179 -0.4178
  186fsi     O1 2169   0.827   2.827   1.774 -0.2955  0.0113  0.7802
  186fsi     O2 2170   0.805   2.737   1.537  0.3785 -0.0120  0.2133
  186fsi     S2 2171   0.809   2.461   1.691 -0.2652 -0.4802 -0.2835
  186fsi     O3 2172   0.672   2.478   1.647 -0.2546  0.4006  0.1683
  186fsi     O4 2173   0.832   2.364   1.793 -0.0572 -0.4901 -0.1512
  186fsi     F2 2174   0.877   2.394   1.566 -0.1761 -0.0980  0.3986
  187fsi     F1 2175   1.745   1.056   2.928 -0.2814 -0.1163 -0.2494
  187fsi     S1 2176   1.681   1.033   3.074 -0.2484 -0.0172  0.4977
  187fsi      N 2177   1.668   0.881   3.095 -0.1362 -0.4006  0.0447
  187fsi     O1 2178   1.770   1.104   3.160  0.3739  0.4366  0.2173
  187fsi     O2 2179   1.548   1.088   3.058 -0.1671 -0.2241 -0.7137
  187fsi     S2 2180   1.760   0.785   3.180 -0.0378 -0.3504  0.2852
  187fsi     O3 2181   1.894   0.834   3.206 -0.1599  0.4789  0.2228
  187fsi     O4 2182   1.752   0.645   3.134 -0.0446  0.5734 -0.2127
  187fsi     F2 2183   1.687   0.781   3.317  0.2078 -0.2510 -0.2297
  188fsi     F1 2184   0.040   0.294   1.354  0.0559  0.0584 -0.4610
  188fsi     S1 2185  -0.088   0.233   1.427 -0.3498  0.1403 -0.2527
  188fsi      N 2186  -0.113   0.325   1.548 -0.2870  0.1043 -0.0245
  188fsi     O1 2187  -0.187   0.225   1.328  0.2990  0.4069 -0.4872
  188fsi     O2 2188  -0.034   0.106   1.470  0.5659  0.1428 -0.6854
  188fsi     S2 2189  -0.194   0.464   1.545  0.1004 -0.1235 -0.1001
  188fsi     O3 2190  -0.209   0.528   1.416 -0.3271  0.4418 -0.2017
  188fsi     O4 2191  -0.158   0.542   1.663 -0.2334 -0.4259 -0.3837
  188fsi     F2 2192  -0.335   0.424   1.592 -0.0849 -0.2797  0.1493
  189fsi     F1 2193   2.536   0.501   0.364 -1.1173 -0.2094 -0.1501
  189fsi     S1 2194   2.566   0.346   0.371  0.0046  0.6056 -0.1574
  189fsi      N 2195   2.586   0.315   0.525 -0.1664 -0.2171 -0.7885
  189fsi     O1 2196   2.453   0.280   0.315 -0.2646 -0.0808 -0.0561
  189fsi     O2 2197   2.685   0.317   0.298 -0.0718 -0.8457  0.0021
  189fsi     S2 2198   2.495   0.350   0.648  0.6544 -0.2344 -0.4410
  189fsi     O3 2199   2.466   0.490   0.665  0.0519 -0.1217  0.3891
  189fsi     O4 2200   2.539   0.281   0.768  0.7844 -0.0558 -0.3598
  189fsi     F2 2201   2.357   0.280   0.601  0.2079 -0.1802  0.1476
  190fsi     F1 2202   1.842   1.697   2.102 -0.3518  0.3953 -0.2131
  190fsi     S1 2203   1.692   1.706   2.144 -0.3815 -0.2265 -0.0763
  190fsi      N 2204   1.651   1.554   2.146 -0.2827 -0.3384  0.0498
  190fsi     O1 2205   1.694   1.769   2.271 -0.0079  1.0628 -0.2928
  190fsi     O2 2206   1.621   1.769   2.035 -0.4106 -0.5308  0.1768
  190fsi     S2 2207   1.569   1.471   2.248 -0.0479 -0.0145  0.3722
  190fsi     O3 2208   1.466   1.554   2.308 -0.2568 -0.9348  0.2364
  190fsi     O4 2209   1.645   1.378   2.333 -0.1797  0.2842 -0.3988
  190fsi     F2 2210   1.484   1.380   2.151  0.1142  0.0682 -0.4153
  191fsi     F1 2211   0.106   1.391   0.749 -0.3249 -0.2654 -0.1286
  191fsi     S1 2212   0.170   1.247   0.767  0.0619  0.1806  0.3266
  191fsi      N 2213   0.108   1.181   0.635 -0.1011 -0.6116  0.4394
  191fsi     O1 2214   0.309   1.272   0.752 -0.6042  0.0490  0.2526
  191fsi     O2 2215   0.115   1.204   0.895 -0.1102  0.2730 -0.0785
  191fsi     S2 2216   0.006   1.068   0.623  0.2910 -0.5545  0.0037
  191fsi     O3 2217  -0.118   1.108   0.564 -0.1684  0.0612  0.0063
  191fsi     O4 2218   0.011   0.977   0.730 -0.2491 -0.1239 -0.4466
  191fsi     F2 2219   0.074   0.993   0.506  0.4294  0.2834 -0.2227
  192fsi     F1 2220   1.698   2.542   2.226  0.1195  0.9621  0.1767
  192fsi     S1 2221   1.749   2.676   2.178 -0.2901  0.0589  0.0641
  192fsi      N 2222   1.901   2.656   2.139  0.9362 -0.0476  0.1910
  192fsi     O1 2223   1.663   2.721   2.072  0.2342  0.4460 -0.0605
  192fsi     O2 2224   1.754   2.760   2.293  0.2381  0.3343 -0.3001
  192fsi     S2 2225   1.970   2.648   1.999  0.2440 -0.2366  0.0119
  192fsi     O3 2226   1.884   2.600   1.891 -0.4379  0.3656  0.2881
  192fsi     O4 2227   2.103   2.595   1.998 -0.4793  0.5600 -0.4281
  192fsi     F2 2228   1.984   2.802   1.966  0.0844 -0.2623 -0.0050
  193fsi     F1 2229   2.021   1.353   0.016  0.1753 -0.1889  0.0133
  193fsi     S1 2230   2.089   1.257  -0.080  0.0539 -0.5829 -0.4116
  193fsi      N 2231   2.007   1.265  -0.212  0.6913 -0.3266 -0.2078
  193fsi     O1 2232   2.222   1.308  -0.094 -0.3053  0.1827  0.5549
  193fsi     O2 2233   2.077   1.131  -0.016 -0.7012  0.2937 -0.0724
  193fsi     S2 2234   1.963   1.398  -0.278 -0.5819  0.4553 -0.0149
  193fsi     O3 2235   1.968   1.511  -0.192  0.6710 -0.1261  0.2490
  193fsi     O4 2236   1.853   1.379  -0.368  0.3883  0.2058  0.1306
  193fsi     F2 2237   2.079   1.422  -0.376  0.0902 -0.0287 -0.2336
  194fsi     F1 2238   1.230   0.418   2.903 -0.0238 -0.1515  0.2823
  194fsi     S1 2239   1.082   0.372   2.924  0.2077  0.0304 -0.0747
  194fsi      N 2240   1.082   0.240   2.838  1.0102 -0.3356  0.3112
  194fsi     O1 2241   1.062   0.348   3.066 -0.0631  0.6099  0.0200
  194fsi     O2 2242   1.003   0.478   2.868  0.1898  0.3383 -0.3624
  194fsi     S2 2243   1.134   0.097   2.883  0.3499 -0.3144 -0.0974
  194fsi     O3 2244   1.186   0.086   3.019 -0.0605  0.1860 -0.5872
  194fsi     O4 2245   1.217   0.044   2.783  0.1611 -0.0168 -0.5531
  194fsi     F2 2246   1.016  -0.001   2.879 -0.0082 -0.8084 -0.0351
  195fsi     F1 2247   2.702   1.906   1.288 -0.4610  0.3669  0.0538
  195fsi     S1 2248   2.553   1.923   1.248  0.0122  0.0043 -0.0514
  195fsi      N 2249   2.507   1.778   1.262 -0.0105 -0.1400  0.7807
  195fsi     O1 2250   2.496   2.028   1.336 -0.0803  0.3189 -0.2300
  195fsi     O2 2251   2.557   1.944   1.107  0.6062  0.1721  0.5269
  195fsi     S2 2252   2.430   1.701   1.373 -0.2981 -0.4616  0.0818
  195fsi     O3 2253   2.410   1.778   1.495  0.1332 -0.1576 -0.2839
  195fsi     O4 2254   2.466   1.565   1.383 -0.5265 -0.1762 -0.1760
  195fsi     F2 2255   2.284   1.698   1.308  0.0082  0.1727 -0.0096
  196fsi     F1 2256   2.125   0.865   2.412  0.5348 -0.4576 -0.2612
  196fsi     S1 2257   2.122   0.967   2.307  0.0220  0.4988 -0.0087
  196fsi      N 2258   2.020   1.063   2.375  0.5326 -0.7373 -0.1074
  196fsi     O1 2259   2.256   1.013   2.314 -0.2183  0.0521  0.2176
  196fsi     O2 2260   2.086   0.905   2.183  0.1149 -0.0751  0.2138
  196fsi     S2 2261   1.868   1.039   2.399  0.2152 -0.3092  0.7241
  196fsi     O3 2262   1.825   1.107   2.519 -0.2509 -0.6696  0.1844
  196fsi     O4 2263   1.819   0.909   2.382 -0.4318  0.9025 -0.0444
  196fsi     F2 2264   1.804   1.126   2.278  0.1263  0.0102  0.0231
  197fsi     F1 2265   1.056   1.700   2.182 -0.3116  0.5516  0.8380
  197fsi     S1 2266   1.009   1.556   2.240  0.1907 -0.1580 -0.3054
  197fsi      N 2267   0.853   1.567   2.265  0.1401 -0.2069  0.0089
  197fsi     O1 2268   1.053   1.466   2.136 -0.2526 -0.6867  0.1308
  197fsi     O2 2269   1.080   1.549   2.365  0.2944  0.0509 -0.0607
  197fsi     S2 2270   0.731   1.502   2.189  0.0155  0.1096 -0.2673
  197fsi     O3 2271   0.773   1.411   2.084  0.3434 -0.2719 -0.3176
  197fsi     O4 2272   0.622   1.588   2.161 -0.1041 -0.4006  0.5874
  197fsi     F2 2273   0.668   1.413   2.307  0.2120  0.3903 -0.2177
  198fsi     F1 2274   2.609   0.176   2.544 -0.2880  0.9080  0.0636
  198fsi     S1 2275   2.537   0.073   2.448 -0.0345 -0.2859  0.7506
  198fsi      N 2276   2.656   0.000   2.370 -0.1675  0.3339 -0.2071
  198fsi     O1 2277   2.478  -0.009   2.545 -0.0344 -0.1714 -0.0908
  198fsi     O2 2278   2.460   0.163   2.361 -0.1869  0.7959 -0.2371
  198fsi     S2 2279   2.712  -0.143   2.387 -0.0311 -0.0899 -0.1140
  198fsi     O3 2280   2.813  -0.180   2.298  0.1917 -0.3492 -0.4272
  198fsi     O4 2281   2.608  -0.243   2.424 -0.4848  0.2981  0.1445
  198fsi     F2 2282   2.789  -0.132   2.520 -1.0616 -0.1818  0.4311
  199fsi     F1 2283   0.496   0.674   0.235 -0.3556  0.5753  0.1483
  199fsi     S1 2284   0.555   0.767   0.127  0.1172  0.0745  0.5755
  199fsi      N 2285   0.665   0.676   0.059  0.4932 -0.1854  0.0048
  199fsi     O1 2286   0.443   0.793   0.042  0.0855  0.5336 -0.0439
  199fsi     O2 2287   0.615   0.880   0.206  0.0856  0.6580 -0.3555
  199fsi     S2 2288   0.673   0.605  -0.082  0.3539  0.2586  0.0633
  199fsi     O3 2289   0.544   0.596  -0.152 -0.2809 -0.0504  0.3183
  199fsi     O4 2290   0.745   0.481  -0.074  0.3898  0.4576  0.7853
  199fsi     F2 2291   0.768   0.695  -0.166 -0.0713  0.0935  0.1718
  200fsi     F1 2292   2.262   0.475   0.886  0.3653  0.3574 -0.4624
  200fsi     S1 2293   2.157   0.375   0.934 -0.1681 -0.5716  0.0641
  200fsi      N 2294   2.144   0.399   1.091 -0.4289 -0.4204  0.0497
  200fsi     O1 2295   2.039   0.400   0.852 -0.3122  0.0661 -0.4776
  200fsi     O2 2296   2.235   0.255   0.916 -0.0333 -0.0539  0.1567
  200fsi     S2 2297   2.077   0.520   1.160 -0.5531 -0.6973  0.0411
  200fsi     O3 2298   2.002   0.602   1.069 -0.1372  0.6827 -0.2734
  200fsi     O4 2299   2.174   0.586   1.249  0.7376  0.5213  0.5585
  200fsi     F2 2300   1.970   0.453   1.254 -0.1334  0.6432  0.1947
   3.08570   3.08570   3.08570
