simbox
 2300
    1Li      Li    1   1.868   1.975   2.651
    2Li      Li    2   0.561   2.808   2.813
    3Li      Li    3   2.288   0.855   0.891
    4Li      Li    4   1.835   0.599   0.240
    5Li      Li    5   1.780   0.424   2.896
    6Li      Li    6   1.218   0.875   1.477
    7Li      Li    7   1.545   2.643   2.990
    8Li      Li    8   1.370   0.006   0.599
    9Li      Li    9   0.952   1.792   2.193
   10Li      Li   10   2.941   2.259   2.206
   11Li      Li   11   2.454   1.766   2.067
   12Li      Li   12   2.533   0.652   2.998
   13Li      Li   13   0.809   2.740   1.431
   14Li      Li   14   1.747   0.587   1.466
   15Li      Li   15   0.464   2.827   2.227
   16Li      Li   16   1.768   2.522   1.861
   17Li      Li   17   0.181   0.969   2.245
   18Li      Li   18   2.399   2.543   2.322
   19Li      Li   19   0.523   1.852   1.032
   20Li      Li   20   2.666   0.726   0.521
   21Li      Li   21   0.687   1.016   0.462
   22Li      Li   22   2.821   2.829   2.105
   23Li      Li   23   1.721   0.888   1.224
   24Li      Li   24   2.053   2.582   2.958
   25Li      Li   25   1.226   2.042   2.132
   26Li      Li   26   2.262   0.369   0.597
   27Li      Li   27   1.819   2.799   1.283
   28Li      Li   28   0.909   1.586   3.045
   29Li      Li   29   0.998   0.963   2.204
   30Li      Li   30   2.630   1.442   0.683
   31Li      Li   31   2.632   1.222   2.177
   32Li      Li   32   1.224   1.590   0.531
   33Li      Li   33   0.630   1.274   1.631
   34Li      Li   34   1.051   3.056   0.015
   35Li      Li   35   2.678   2.199   0.979
   36Li      Li   36   2.525   0.624   2.273
   37Li      Li   37   1.191   2.763   1.163
   38Li      Li   38   0.463   2.297   0.696
   39Li      Li   39   1.572   1.504   0.060
   40Li      Li   40   0.020   0.614   0.170
   41Li      Li   41   1.533   2.737   2.564
   42Li      Li   42   1.891   1.442   2.324
   43Li      Li   43   0.405   1.016   1.353
   44Li      Li   44   1.410   2.542   1.045
   45Li      Li   45   1.840   1.896   1.923
   46Li      Li   46   2.161   2.887   0.327
   47Li      Li   47   0.660   0.627   1.328
   48Li      Li   48   1.037   1.233   1.536
   49Li      Li   49   1.968   2.909   2.388
   50Li      Li   50   2.014   2.413   1.372
   51c3c      N   51   2.557   2.844   2.682
   51c3c     C1   52   2.595   2.703   2.701
   51c3c     C2   53   2.653   2.921   2.763
   51c3c     C3   54   2.652   2.689   2.842
   51c3c     C4   55   2.704   2.829   2.875
   51c3c     C5   56   2.575   2.880   2.540
   51c3c     C6   57   2.416   2.873   2.714
   51c3c     H1   58   2.676   2.676   2.634
   51c3c     H2   59   2.512   2.634   2.682
   51c3c     H3   60   2.739   2.952   2.705
   51c3c     H4   61   2.609   3.013   2.802
   51c3c     H5   62   2.731   2.615   2.846
   51c3c     H6   63   2.577   2.658   2.915
   51c3c     H7   64   2.813   2.828   2.877
   51c3c     H8   65   2.669   2.862   2.973
   51c3c     H9   66   2.508   2.824   2.476
   51c3c    H10   67   2.554   2.986   2.524
   51c3c    H11   68   2.676   2.862   2.505
   51c3c    H12   69   2.394   2.977   2.691
   51c3c    H13   70   2.352   2.814   2.648
   51c3c     C7   71   2.367   2.848   2.858
   51c3c    H14   72   2.422   2.910   2.929
   51c3c    H15   73   2.383   2.745   2.888
   51c3c     C8   74   2.217   2.877   2.872
   51c3c    H16   75   2.159   2.819   2.801
   51c3c    H17   76   2.195   2.982   2.854
   51c3c    H18   77   2.181   2.852   2.972
   52c3c      N   78   1.672   0.272   1.061
   52c3c     C1   79   1.719   0.383   1.144
   52c3c     C2   80   1.667   0.158   1.154
   52c3c     C3   81   1.819   0.327   1.241
   52c3c     C4   82   1.780   0.180   1.255
   52c3c     C5   83   1.537   0.303   1.013
   52c3c     C6   84   1.757   0.248   0.943
   52c3c     H1   85   1.638   0.419   1.207
   52c3c     H2   86   1.757   0.467   1.086
   52c3c     H3   87   1.574   0.158   1.210
   52c3c     H4   88   1.673   0.061   1.104
   52c3c     H5   89   1.808   0.384   1.333
   52c3c     H6   90   1.923   0.340   1.209
   52c3c     H7   91   1.742   0.158   1.355
   52c3c     H8   92   1.866   0.116   1.237
   52c3c     H9   93   1.538   0.382   0.937
   52c3c    H10   94   1.488   0.216   0.970
   52c3c    H11   95   1.471   0.339   1.092
   52c3c    H12   96   1.712   0.169   0.883
   52c3c    H13   97   1.755   0.339   0.884
   52c3c     C7   98   1.906   0.213   0.961
   52c3c    H14   99   1.919   0.127   1.026
   52c3c    H15  100   1.957   0.299   1.005
   52c3c     C8  101   1.976   0.183   0.828
   52c3c    H16  102   1.977   0.271   0.764
   52c3c    H17  103   1.926   0.103   0.774
   52c3c    H18  104   2.080   0.153   0.844
   53c3c      N  105   2.824   1.292   1.062
   53c3c     C1  106   2.766   1.427   1.077
   53c3c     C2  107   2.710   1.208   1.025
   53c3c     C3  108   2.623   1.406   1.127
   53c3c     C4  109   2.584   1.265   1.091
   53c3c     C5  110   2.921   1.292   0.953
   53c3c     C6  111   2.898   1.242   1.180
   53c3c     H1  112   2.759   1.478   0.981
   53c3c     H2  113   2.825   1.492   1.142
   53c3c     H3  114   2.691   1.215   0.918
   53c3c     H4  115   2.724   1.101   1.042
   53c3c     H5  116   2.552   1.476   1.082
   53c3c     H6  117   2.620   1.420   1.236
   53c3c     H7  118   2.500   1.265   1.022
   53c3c     H8  119   2.554   1.210   1.181
   53c3c     H9  120   3.010   1.351   0.975
   53c3c    H10  121   2.954   1.190   0.933
   53c3c    H11  122   2.879   1.332   0.861
   53c3c    H12  123   2.929   1.140   1.159
   53c3c    H13  124   2.991   1.299   1.192
   53c3c     C7  125   2.828   1.243   1.317
   53c3c    H14  126   2.730   1.198   1.308
   53c3c    H15  127   2.813   1.345   1.352
   53c3c     C8  128   2.908   1.162   1.420
   53c3c    H16  129   3.003   1.209   1.444
   53c3c    H17  130   2.931   1.062   1.384
   53c3c    H18  131   2.853   1.149   1.513
   54c3c      N  132   0.308   1.288   0.504
   54c3c     C1  133   0.393   1.189   0.437
   54c3c     C2  134   0.192   1.217   0.558
   54c3c     C3  135   0.307   1.066   0.407
   54c3c     C4  136   0.179   1.083   0.487
   54c3c     C5  137   0.378   1.345   0.618
   54c3c     C6  138   0.273   1.399   0.414
   54c3c     H1  139   0.475   1.158   0.502
   54c3c     H2  140   0.442   1.229   0.348
   54c3c     H3  141   0.201   1.196   0.664
   54c3c     H4  142   0.102   1.278   0.548
   54c3c     H5  143   0.357   0.974   0.438
   54c3c     H6  144   0.284   1.057   0.301
   54c3c     H7  145   0.168   1.002   0.560
   54c3c     H8  146   0.092   1.080   0.421
   54c3c     H9  147   0.469   1.399   0.591
   54c3c    H10  148   0.310   1.413   0.671
   54c3c    H11  149   0.405   1.270   0.692
   54c3c    H12  150   0.215   1.473   0.469
   54c3c    H13  151   0.365   1.451   0.386
   54c3c     C7  152   0.196   1.359   0.287
   54c3c    H14  153   0.100   1.315   0.312
   54c3c    H15  154   0.252   1.285   0.230
   54c3c     C8  155   0.174   1.480   0.196
   54c3c    H16  156   0.269   1.524   0.166
   54c3c    H17  157   0.116   1.557   0.246
   54c3c    H18  158   0.121   1.451   0.105
   55c3c      N  159   0.813   2.456   0.621
   55c3c     C1  160   0.763   2.403   0.748
   55c3c     C2  161   0.959   2.449   0.630
   55c3c     C3  162   0.866   2.440   0.854
   55c3c     C4  163   0.997   2.445   0.778
   55c3c     C5  164   0.768   2.368   0.513
   55c3c     C6  165   0.766   2.593   0.591
   55c3c     H1  166   0.761   2.294   0.748
   55c3c     H2  167   0.664   2.439   0.774
   55c3c     H3  168   0.998   2.357   0.585
   55c3c     H4  169   1.008   2.530   0.578
   55c3c     H5  170   0.868   2.369   0.937
   55c3c     H6  171   0.844   2.538   0.896
   55c3c     H7  172   1.053   2.354   0.796
   55c3c     H8  173   1.057   2.530   0.809
   55c3c     H9  174   0.659   2.367   0.502
   55c3c    H10  175   0.808   2.399   0.416
   55c3c    H11  176   0.801   2.265   0.527
   55c3c    H12  177   0.806   2.622   0.494
   55c3c    H13  178   0.658   2.592   0.577
   55c3c     C7  179   0.799   2.705   0.692
   55c3c    H14  180   0.905   2.707   0.714
   55c3c    H15  181   0.746   2.688   0.786
   55c3c     C8  182   0.757   2.844   0.643
   55c3c    H16  183   0.650   2.849   0.624
   55c3c    H17  184   0.810   2.871   0.551
   55c3c    H18  185   0.781   2.920   0.718
   56c3c      N  186   1.799   1.986   0.929
   56c3c     C1  187   1.661   1.934   0.927
   56c3c     C2  188   1.786   2.132   0.940
   56c3c     C3  189   1.566   2.053   0.930
   56c3c     C4  190   1.650   2.169   0.883
   56c3c     C5  191   1.873   1.935   1.044
   56c3c     C6  192   1.877   1.948   0.809
   56c3c     H1  193   1.640   1.864   1.008
   56c3c     H2  194   1.642   1.878   0.836
   56c3c     H3  195   1.789   2.163   1.045
   56c3c     H4  196   1.869   2.182   0.890
   56c3c     H5  197   1.536   2.072   1.033
   56c3c     H6  198   1.476   2.038   0.870
   56c3c     H7  199   1.613   2.265   0.920
   56c3c     H8  200   1.648   2.174   0.774
   56c3c     H9  201   1.883   1.827   1.039
   56c3c    H10  202   1.974   1.975   1.050
   56c3c    H11  203   1.825   1.960   1.139
   56c3c    H12  204   1.981   1.979   0.821
   56c3c    H13  205   1.879   1.840   0.800
   56c3c     C7  206   1.826   2.006   0.676
   56c3c    H14  207   1.831   2.115   0.676
   56c3c    H15  208   1.722   1.978   0.661
   56c3c     C8  209   1.906   1.961   0.556
   56c3c    H16  210   1.900   1.853   0.544
   56c3c    H17  211   2.010   1.992   0.565
   56c3c    H18  212   1.868   2.006   0.464
   57c3c      N  213   0.396   0.281   1.682
   57c3c     C1  214   0.427   0.424   1.665
   57c3c     C2  215   0.268   0.257   1.614
   57c3c     C3  216   0.294   0.496   1.648
   57c3c     C4  217   0.195   0.391   1.607
   57c3c     C5  218   0.502   0.203   1.617
   57c3c     C6  219   0.394   0.237   1.823
   57c3c     H1  220   0.484   0.443   1.574
   57c3c     H2  221   0.486   0.466   1.747
   57c3c     H3  222   0.282   0.223   1.511
   57c3c     H4  223   0.207   0.180   1.661
   57c3c     H5  224   0.299   0.574   1.572
   57c3c     H6  225   0.260   0.542   1.742
   57c3c     H7  226   0.161   0.411   1.505
   57c3c     H8  227   0.109   0.395   1.674
   57c3c     H9  228   0.598   0.216   1.668
   57c3c    H10  229   0.478   0.097   1.615
   57c3c    H11  230   0.516   0.233   1.513
   57c3c    H12  231   0.383   0.129   1.827
   57c3c    H13  232   0.491   0.260   1.869
   57c3c     C7  233   0.284   0.296   1.915
   57c3c    H14  234   0.185   0.273   1.877
   57c3c    H15  235   0.291   0.405   1.918
   57c3c     C8  236   0.297   0.242   2.058
   57c3c    H16  237   0.397   0.262   2.099
   57c3c    H17  238   0.281   0.135   2.062
   57c3c    H18  239   0.224   0.290   2.124
   58c3c      N  240   2.802   1.790   0.280
   58c3c     C1  241   2.937   1.829   0.323
   58c3c     C2  242   2.718   1.802   0.400
   58c3c     C3  243   2.949   1.800   0.473
   58c3c     C4  244   2.808   1.776   0.521
   58c3c     C5  245   2.752   1.884   0.179
   58c3c     C6  246   2.798   1.655   0.219
   58c3c     H1  247   2.952   1.936   0.310
   58c3c     H2  248   3.016   1.780   0.266
   58c3c     H3  249   2.679   1.903   0.412
   58c3c     H4  250   2.630   1.739   0.395
   58c3c     H5  251   2.993   1.885   0.525
   58c3c     H6  252   3.011   1.712   0.494
   58c3c     H7  253   2.784   1.844   0.603
   58c3c     H8  254   2.797   1.674   0.558
   58c3c     H9  255   2.812   1.881   0.088
   58c3c    H10  256   2.649   1.861   0.151
   58c3c    H11  257   2.752   1.987   0.214
   58c3c    H12  258   2.700   1.640   0.174
   58c3c    H13  259   2.868   1.652   0.135
   58c3c     C7  260   2.823   1.533   0.308
   58c3c    H14  261   2.750   1.529   0.389
   58c3c    H15  262   2.922   1.536   0.354
   58c3c     C8  263   2.807   1.403   0.228
   58c3c    H16  264   2.879   1.398   0.146
   58c3c    H17  265   2.707   1.396   0.186
   58c3c    H18  266   2.823   1.316   0.292
   59c3c      N  267   0.963   2.495   2.205
   59c3c     C1  268   0.829   2.476   2.261
   59c3c     C2  269   1.055   2.441   2.305
   59c3c     C3  270   0.844   2.482   2.413
   59c3c     C4  271   0.988   2.446   2.442
   59c3c     C5  272   0.980   2.414   2.085
   59c3c     C6  273   0.997   2.634   2.165
   59c3c     H1  274   0.790   2.377   2.237
   59c3c     H2  275   0.756   2.548   2.223
   59c3c     H3  276   1.080   2.337   2.287
   59c3c     H4  277   1.147   2.499   2.301
   59c3c     H5  278   0.778   2.410   2.462
   59c3c     H6  279   0.822   2.581   2.453
   59c3c     H7  280   0.995   2.348   2.490
   59c3c     H8  281   1.035   2.519   2.508
   59c3c     H9  282   0.919   2.449   2.001
   59c3c    H10  283   1.084   2.420   2.054
   59c3c    H11  284   0.957   2.309   2.099
   59c3c    H12  285   1.096   2.633   2.120
   59c3c    H13  286   0.930   2.666   2.086
   59c3c     C7  287   0.999   2.741   2.276
   59c3c    H14  288   1.062   2.711   2.359
   59c3c    H15  289   0.898   2.757   2.315
   59c3c     C8  290   1.053   2.874   2.221
   59c3c    H16  291   0.995   2.911   2.137
   59c3c    H17  292   1.157   2.864   2.188
   59c3c    H18  293   1.052   2.951   2.299
   60c3c      N  294   2.287   0.319   1.110
   60c3c     C1  295   2.315   0.374   1.243
   60c3c     C2  296   2.207   0.200   1.141
   60c3c     C3  297   2.336   0.258   1.338
   60c3c     C4  298   2.259   0.143   1.274
   60c3c     C5  299   2.209   0.417   1.035
   60c3c     C6  300   2.408   0.291   1.029
   60c3c     H1  301   2.236   0.437   1.282
   60c3c     H2  302   2.407   0.434   1.238
   60c3c     H3  303   2.104   0.228   1.160
   60c3c     H4  304   2.207   0.127   1.060
   60c3c     H5  305   2.304   0.281   1.440
   60c3c     H6  306   2.443   0.235   1.344
   60c3c     H7  307   2.176   0.111   1.338
   60c3c     H8  308   2.323   0.056   1.259
   60c3c     H9  309   2.266   0.509   1.019
   60c3c    H10  310   2.179   0.379   0.937
   60c3c    H11  311   2.118   0.448   1.087
   60c3c    H12  312   2.376   0.248   0.934
   60c3c    H13  313   2.456   0.386   1.002
   60c3c     C7  314   2.520   0.203   1.087
   60c3c    H14  315   2.482   0.112   1.132
   60c3c    H15  316   2.574   0.258   1.165
   60c3c     C8  317   2.620   0.160   0.981
   60c3c    H16  318   2.655   0.244   0.921
   60c3c    H17  319   2.576   0.086   0.914
   60c3c    H18  320   2.708   0.113   1.027
   61c3c      N  321   2.155   1.070   1.454
   61c3c     C1  322   2.010   1.064   1.427
   61c3c     C2  323   2.219   0.965   1.374
   61c3c     C3  324   1.983   0.934   1.352
   61c3c     C4  325   2.114   0.859   1.345
   61c3c     C5  326   2.201   1.203   1.412
   61c3c     C6  327   2.195   1.053   1.595
   61c3c     H1  328   1.975   1.145   1.363
   61c3c     H2  329   1.947   1.076   1.515
   61c3c     H3  330   2.256   1.004   1.279
   61c3c     H4  331   2.307   0.920   1.419
   61c3c     H5  332   1.950   0.957   1.251
   61c3c     H6  333   1.906   0.873   1.400
   61c3c     H7  334   2.128   0.814   1.246
   61c3c     H8  335   2.118   0.779   1.419
   61c3c     H9  336   2.153   1.279   1.472
   61c3c    H10  337   2.309   1.216   1.423
   61c3c    H11  338   2.176   1.226   1.309
   61c3c    H12  339   2.301   1.028   1.600
   61c3c    H13  340   2.189   1.149   1.648
   61c3c     C7  341   2.118   0.950   1.678
   61c3c    H14  342   2.118   0.853   1.629
   61c3c    H15  343   2.013   0.978   1.690
   61c3c     C8  344   2.177   0.939   1.818
   61c3c    H16  345   2.188   1.036   1.866
   61c3c    H17  346   2.276   0.894   1.816
   61c3c    H18  347   2.111   0.879   1.881
   62c3c      N  348   2.598   1.242   1.715
   62c3c     C1  349   2.552   1.379   1.705
   62c3c     C2  350   2.502   1.171   1.801
   62c3c     C3  351   2.472   1.410   1.828
   62c3c     C4  352   2.441   1.276   1.894
   62c3c     C5  353   2.594   1.186   1.581
   62c3c     C6  354   2.738   1.233   1.762
   62c3c     H1  355   2.479   1.384   1.624
   62c3c     H2  356   2.629   1.454   1.682
   62c3c     H3  357   2.419   1.130   1.744
   62c3c     H4  358   2.545   1.087   1.856
   62c3c     H5  359   2.380   1.459   1.796
   62c3c     H6  360   2.525   1.476   1.897
   62c3c     H7  361   2.334   1.259   1.907
   62c3c     H8  362   2.486   1.270   1.993
   62c3c     H9  363   2.644   1.251   1.509
   62c3c    H10  364   2.642   1.088   1.575
   62c3c    H11  365   2.492   1.174   1.544
   62c3c    H12  366   2.767   1.128   1.763
   62c3c    H13  367   2.803   1.283   1.690
   62c3c     C7  368   2.766   1.293   1.900
   62c3c    H14  369   2.705   1.240   1.974
   62c3c    H15  370   2.736   1.397   1.906
   62c3c     C8  371   2.914   1.281   1.937
   62c3c    H16  372   2.977   1.341   1.872
   62c3c    H17  373   2.948   1.177   1.930
   62c3c    H18  374   2.930   1.313   2.040
   63c3c      N  375   2.034   2.307   2.180
   63c3c     C1  376   1.990   2.174   2.139
   63c3c     C2  377   2.001   2.397   2.068
   63c3c     C3  378   2.010   2.170   1.987
   63c3c     C4  379   1.980   2.311   1.944
   63c3c     C5  380   1.960   2.354   2.296
   63c3c     C6  381   2.177   2.310   2.218
   63c3c     H1  382   1.884   2.162   2.161
   63c3c     H2  383   2.041   2.093   2.191
   63c3c     H3  384   1.906   2.448   2.086
   63c3c     H4  385   2.076   2.474   2.055
   63c3c     H5  386   1.946   2.100   1.935
   63c3c     H6  387   2.111   2.144   1.959
   63c3c     H7  388   1.877   2.316   1.910
   63c3c     H8  389   2.045   2.339   1.861
   63c3c     H9  390   1.981   2.298   2.387
   63c3c    H10  391   1.985   2.458   2.317
   63c3c    H11  392   1.852   2.350   2.280
   63c3c    H12  393   2.202   2.412   2.245
   63c3c    H13  394   2.188   2.249   2.308
   63c3c     C7  395   2.281   2.257   2.118
   63c3c    H14  396   2.268   2.303   2.020
   63c3c    H15  397   2.269   2.150   2.105
   63c3c     C8  398   2.425   2.283   2.164
   63c3c    H16  399   2.443   2.239   2.263
   63c3c    H17  400   2.449   2.389   2.169
   63c3c    H18  401   2.497   2.236   2.097
   64c3c      N  402   2.567   2.428   1.452
   64c3c     C1  403   2.572   2.282   1.460
   64c3c     C2  404   2.446   2.474   1.522
   64c3c     C3  405   2.436   2.235   1.509
   64c3c     C4  406   2.383   2.352   1.590
   64c3c     C5  407   2.686   2.479   1.522
   64c3c     C6  408   2.572   2.476   1.313
   64c3c     H1  409   2.644   2.248   1.534
   64c3c     H2  410   2.599   2.233   1.366
   64c3c     H3  411   2.468   2.557   1.588
   64c3c     H4  412   2.369   2.516   1.457
   64c3c     H5  413   2.445   2.145   1.569
   64c3c     H6  414   2.371   2.211   1.424
   64c3c     H7  415   2.417   2.345   1.693
   64c3c     H8  416   2.274   2.354   1.589
   64c3c     H9  417   2.778   2.441   1.478
   64c3c    H10  418   2.693   2.588   1.519
   64c3c    H11  419   2.687   2.451   1.627
   64c3c    H12  420   2.580   2.585   1.314
   64c3c    H13  421   2.663   2.441   1.266
   64c3c     C7  422   2.452   2.439   1.224
   64c3c    H14  423   2.359   2.483   1.259
   64c3c    H15  424   2.433   2.332   1.226
   64c3c     C8  425   2.471   2.489   1.081
   64c3c    H16  426   2.548   2.432   1.028
   64c3c    H17  427   2.498   2.595   1.079
   64c3c    H18  428   2.380   2.477   1.022
   65c3c      N  429   2.841   1.783   1.487
   65c3c     C1  430   2.926   1.904   1.483
   65c3c     C2  431   2.701   1.826   1.488
   65c3c     C3  432   2.834   2.021   1.517
   65c3c     C4  433   2.702   1.974   1.459
   65c3c     C5  434   2.867   1.706   1.364
   65c3c     C6  435   2.872   1.694   1.600
   65c3c     H1  436   2.964   1.924   1.383
   65c3c     H2  437   3.013   1.900   1.548
   65c3c     H3  438   2.635   1.772   1.420
   65c3c     H4  439   2.651   1.812   1.584
   65c3c     H5  440   2.867   2.115   1.472
   65c3c     H6  441   2.825   2.035   1.624
   65c3c     H7  442   2.697   1.993   1.352
   65c3c     H8  443   2.618   2.023   1.507
   65c3c     H9  444   2.970   1.672   1.357
   65c3c    H10  445   2.802   1.618   1.359
   65c3c    H11  446   2.847   1.767   1.276
   65c3c    H12  447   2.806   1.607   1.595
   65c3c    H13  448   2.974   1.656   1.590
   65c3c     C7  449   2.858   1.757   1.740
   65c3c    H14  450   2.755   1.785   1.762
   65c3c    H15  451   2.918   1.847   1.750
   65c3c     C8  452   2.903   1.658   1.848
   65c3c    H16  453   3.009   1.637   1.841
   65c3c    H17  454   2.848   1.564   1.839
   65c3c    H18  455   2.883   1.699   1.947
   66c3c      N  456   1.426   2.624   0.577
   66c3c     C1  457   1.508   2.509   0.617
   66c3c     C2  458   1.287   2.582   0.600
   66c3c     C3  459   1.427   2.387   0.581
   66c3c     C4  460   1.283   2.431   0.577
   66c3c     C5  461   1.454   2.738   0.664
   66c3c     C6  462   1.456   2.667   0.439
   66c3c     H1  463   1.524   2.504   0.725
   66c3c     H2  464   1.606   2.508   0.571
   66c3c     H3  465   1.257   2.595   0.704
   66c3c     H4  466   1.214   2.635   0.539
   66c3c     H5  467   1.444   2.308   0.655
   66c3c     H6  468   1.455   2.350   0.483
   66c3c     H7  469   1.227   2.381   0.656
   66c3c     H8  470   1.238   2.405   0.481
   66c3c     H9  471   1.561   2.762   0.666
   66c3c    H10  472   1.398   2.826   0.635
   66c3c    H11  473   1.423   2.717   0.766
   66c3c    H12  474   1.413   2.766   0.423
   66c3c    H13  475   1.563   2.682   0.429
   66c3c     C7  476   1.408   2.579   0.322
   66c3c    H14  477   1.302   2.555   0.330
   66c3c    H15  478   1.461   2.484   0.320
   66c3c     C8  479   1.429   2.648   0.187
   66c3c    H16  480   1.531   2.684   0.178
   66c3c    H17  481   1.363   2.734   0.176
   66c3c    H18  482   1.408   2.579   0.106
   67c3c      N  483   0.400   0.437   2.432
   67c3c     C1  484   0.303   0.331   2.463
   67c3c     C2  485   0.419   0.513   2.556
   67c3c     C3  486   0.213   0.384   2.575
   67c3c     C4  487   0.287   0.503   2.634
   67c3c     C5  488   0.527   0.373   2.396
   67c3c     C6  489   0.360   0.522   2.318
   67c3c     H1  490   0.353   0.242   2.502
   67c3c     H2  491   0.247   0.298   2.375
   67c3c     H3  492   0.496   0.469   2.619
   67c3c     H4  493   0.450   0.616   2.540
   67c3c     H5  494   0.196   0.308   2.650
   67c3c     H6  495   0.115   0.415   2.537
   67c3c     H7  496   0.305   0.491   2.741
   67c3c     H8  497   0.227   0.594   2.622
   67c3c     H9  498   0.520   0.314   2.305
   67c3c    H10  499   0.607   0.446   2.381
   67c3c    H11  500   0.563   0.307   2.475
   67c3c    H12  501   0.437   0.597   2.304
   67c3c    H13  502   0.361   0.463   2.225
   67c3c     C7  503   0.224   0.595   2.326
   67c3c    H14  504   0.225   0.664   2.410
   67c3c    H15  505   0.143   0.525   2.341
   67c3c     C8  506   0.193   0.676   2.199
   67c3c    H16  507   0.182   0.611   2.112
   67c3c    H17  508   0.273   0.747   2.177
   67c3c    H18  509   0.100   0.731   2.210
   68c3c      N  510   0.306   2.778   1.651
   68c3c     C1  511   0.393   2.696   1.568
   68c3c     C2  512   0.262   2.885   1.559
   68c3c     C3  513   0.466   2.788   1.470
   68c3c     C4  514   0.377   2.910   1.459
   68c3c     C5  515   0.190   2.696   1.692
   68c3c     C6  516   0.370   2.827   1.775
   68c3c     H1  517   0.329   2.632   1.508
   68c3c     H2  518   0.459   2.629   1.624
   68c3c     H3  519   0.177   2.852   1.501
   68c3c     H4  520   0.229   2.975   1.610
   68c3c     H5  521   0.479   2.741   1.372
   68c3c     H6  522   0.566   2.815   1.505
   68c3c     H7  523   0.338   2.921   1.358
   68c3c     H8  524   0.433   3.000   1.482
   68c3c     H9  525   0.221   2.608   1.749
   68c3c    H10  526   0.121   2.753   1.754
   68c3c    H11  527   0.133   2.658   1.608
   68c3c    H12  528   0.300   2.894   1.825
   68c3c    H13  529   0.382   2.742   1.841
   68c3c     C7  530   0.508   2.896   1.763
   68c3c    H14  531   0.503   2.980   1.694
   68c3c    H15  532   0.582   2.826   1.724
   68c3c     C8  533   0.561   2.948   1.898
   68c3c    H16  534   0.565   2.870   1.973
   68c3c    H17  535   0.498   3.028   1.937
   68c3c    H18  536   0.662   2.987   1.886
   69c3c      N  537   2.416   2.287   0.498
   69c3c     C1  538   2.556   2.297   0.454
   69c3c     C2  539   2.405   2.170   0.586
   69c3c     C3  540   2.612   2.155   0.460
   69c3c     C4  541   2.543   2.102   0.583
   69c3c     C5  542   2.386   2.408   0.575
   69c3c     C6  543   2.321   2.283   0.385
   69c3c     H1  544   2.615   2.354   0.526
   69c3c     H2  545   2.569   2.346   0.358
   69c3c     H3  546   2.377   2.193   0.688
   69c3c     H4  547   2.327   2.102   0.552
   69c3c     H5  548   2.720   2.153   0.471
   69c3c     H6  549   2.585   2.096   0.372
   69c3c     H7  550   2.602   2.135   0.668
   69c3c     H8  551   2.536   1.993   0.585
   69c3c     H9  552   2.413   2.498   0.521
   69c3c    H10  553   2.280   2.413   0.599
   69c3c    H11  554   2.440   2.411   0.670
   69c3c    H12  555   2.219   2.279   0.424
   69c3c    H13  556   2.328   2.376   0.328
   69c3c     C7  557   2.332   2.166   0.285
   69c3c    H14  558   2.304   2.071   0.332
   69c3c    H15  559   2.433   2.155   0.246
   69c3c     C8  560   2.242   2.188   0.162
   69c3c    H16  561   2.264   2.283   0.114
   69c3c    H17  562   2.137   2.187   0.190
   69c3c    H18  563   2.258   2.109   0.089
   70c3c      N  564   0.487   2.252   1.852
   70c3c     C1  565   0.428   2.236   1.986
   70c3c     C2  566   0.600   2.158   1.849
   70c3c     C3  567   0.536   2.183   2.081
   70c3c     C4  568   0.653   2.147   1.992
   70c3c     C5  569   0.389   2.214   1.749
   70c3c     C6  570   0.529   2.391   1.822
   70c3c     H1  571   0.348   2.162   1.985
   70c3c     H2  572   0.382   2.328   2.022
   70c3c     H3  573   0.567   2.059   1.818
   70c3c     H4  574   0.677   2.185   1.777
   70c3c     H5  575   0.500   2.093   2.132
   70c3c     H6  576   0.565   2.255   2.157
   70c3c     H7  577   0.686   2.046   2.014
   70c3c     H8  578   0.737   2.214   2.010
   70c3c     H9  579   0.302   2.280   1.751
   70c3c    H10  580   0.432   2.218   1.649
   70c3c    H11  581   0.353   2.113   1.764
   70c3c    H12  582   0.566   2.394   1.720
   70c3c    H13  583   0.441   2.455   1.824
   70c3c     C7  584   0.637   2.452   1.913
   70c3c    H14  585   0.732   2.402   1.894
   70c3c    H15  586   0.614   2.437   2.018
   70c3c     C8  587   0.655   2.601   1.887
   70c3c    H16  588   0.565   2.655   1.915
   70c3c    H17  589   0.675   2.619   1.782
   70c3c    H18  590   0.738   2.641   1.945
   71c3c      N  591   1.125   0.280   1.263
   71c3c     C1  592   1.182   0.154   1.312
   71c3c     C2  593   1.223   0.384   1.299
   71c3c     C3  594   1.277   0.191   1.427
   71c3c     C4  595   1.339   0.318   1.374
   71c3c     C5  596   1.111   0.276   1.116
   71c3c     C6  597   0.988   0.305   1.316
   71c3c     H1  598   1.241   0.106   1.235
   71c3c     H2  599   1.104   0.083   1.342
   71c3c     H3  600   1.269   0.428   1.211
   71c3c     H4  601   1.178   0.467   1.354
   71c3c     H5  602   1.354   0.117   1.447
   71c3c     H6  603   1.225   0.211   1.521
   71c3c     H7  604   1.419   0.292   1.305
   71c3c     H8  605   1.384   0.380   1.451
   71c3c     H9  606   1.045   0.196   1.083
   71c3c    H10  607   1.071   0.370   1.078
   71c3c    H11  608   1.207   0.260   1.067
   71c3c    H12  609   0.955   0.404   1.285
   71c3c    H13  610   0.921   0.235   1.268
   71c3c     C7  611   0.965   0.290   1.468
   71c3c    H14  612   1.015   0.370   1.522
   71c3c    H15  613   1.006   0.196   1.506
   71c3c     C8  614   0.817   0.290   1.506
   71c3c    H16  615   0.764   0.204   1.464
   71c3c    H17  616   0.766   0.380   1.472
   71c3c    H18  617   0.805   0.288   1.614
   72c3c      N  618   1.405   0.700   0.300
   72c3c     C1  619   1.389   0.836   0.248
   72c3c     C2  620   1.283   0.629   0.261
   72c3c     C3  621   1.241   0.868   0.244
   72c3c     C4  622   1.171   0.733   0.255
   72c3c     C5  623   1.520   0.640   0.234
   72c3c     C6  624   1.436   0.694   0.444
   72c3c     H1  625   1.427   0.845   0.146
   72c3c     H2  626   1.444   0.909   0.308
   72c3c     H3  627   1.292   0.589   0.160
   72c3c     H4  628   1.259   0.545   0.326
   72c3c     H5  629   1.214   0.920   0.152
   72c3c     H6  630   1.215   0.934   0.327
   72c3c     H7  631   1.103   0.714   0.172
   72c3c     H8  632   1.110   0.729   0.346
   72c3c     H9  633   1.609   0.701   0.248
   72c3c    H10  634   1.543   0.539   0.269
   72c3c    H11  635   1.502   0.632   0.127
   72c3c    H12  636   1.445   0.589   0.472
   72c3c    H13  637   1.534   0.738   0.462
   72c3c     C7  638   1.338   0.759   0.541
   72c3c    H14  639   1.240   0.714   0.525
   72c3c    H15  640   1.328   0.865   0.522
   72c3c     C8  641   1.385   0.735   0.686
   72c3c    H16  642   1.484   0.775   0.703
   72c3c    H17  643   1.387   0.628   0.709
   72c3c    H18  644   1.319   0.780   0.760
   73c3c      N  645   2.722   2.046   2.778
   73c3c     C1  646   2.643   2.170   2.760
   73c3c     C2  647   2.833   2.075   2.871
   73c3c     C3  648   2.718   2.286   2.827
   73c3c     C4  649   2.845   2.226   2.885
   73c3c     C5  650   2.635   1.946   2.840
   73c3c     C6  651   2.768   1.992   2.648
   73c3c     H1  652   2.543   2.164   2.803
   73c3c     H2  653   2.626   2.191   2.654
   73c3c     H3  654   2.814   2.035   2.971
   73c3c     H4  655   2.927   2.030   2.839
   73c3c     H5  656   2.657   2.329   2.906
   73c3c     H6  657   2.742   2.365   2.755
   73c3c     H7  658   2.857   2.256   2.990
   73c3c     H8  659   2.934   2.263   2.832
   73c3c     H9  660   2.550   1.921   2.776
   73c3c    H10  661   2.688   1.853   2.862
   73c3c    H11  662   2.593   1.981   2.935
   73c3c    H12  663   2.817   1.896   2.664
   73c3c    H13  664   2.680   1.970   2.587
   73c3c     C7  665   2.864   2.081   2.566
   73c3c    H14  666   2.955   2.101   2.623
   73c3c    H15  667   2.817   2.177   2.544
   73c3c     C8  668   2.906   2.019   2.432
   73c3c    H16  669   2.821   2.008   2.364
   73c3c    H17  670   2.951   1.921   2.446
   73c3c    H18  671   2.980   2.081   2.381
   74c3c      N  672   0.640   1.189   2.219
   74c3c     C1  673   0.506   1.132   2.232
   74c3c     C2  674   0.620   1.333   2.235
   74c3c     C3  675   0.408   1.232   2.173
   74c3c     C4  676   0.481   1.365   2.182
   74c3c     C5  677   0.724   1.142   2.330
   74c3c     C6  678   0.705   1.148   2.094
   74c3c     H1  679   0.484   1.128   2.339
   74c3c     H2  680   0.498   1.031   2.191
   74c3c     H3  681   0.623   1.363   2.340
   74c3c     H4  682   0.696   1.394   2.186
   74c3c     H5  683   0.315   1.235   2.230
   74c3c     H6  684   0.384   1.210   2.069
   74c3c     H7  685   0.432   1.433   2.251
   74c3c     H8  686   0.486   1.410   2.084
   74c3c     H9  687   0.742   1.034   2.328
   74c3c    H10  688   0.821   1.192   2.327
   74c3c    H11  689   0.681   1.163   2.428
   74c3c    H12  690   0.809   1.180   2.099
   74c3c    H13  691   0.707   1.040   2.087
   74c3c     C7  692   0.653   1.198   1.959
   74c3c    H14  693   0.638   1.306   1.960
   74c3c    H15  694   0.558   1.151   1.934
   74c3c     C8  695   0.758   1.164   1.854
   74c3c    H16  696   0.775   1.057   1.848
   74c3c    H17  697   0.854   1.210   1.876
   74c3c    H18  698   0.732   1.193   1.752
   75c3c      N  699   2.011   0.691   2.370
   75c3c     C1  700   2.097   0.810   2.385
   75c3c     C2  701   2.096   0.573   2.351
   75c3c     C3  702   2.240   0.761   2.364
   75c3c     C4  703   2.236   0.614   2.394
   75c3c     C5  704   1.941   0.671   2.496
   75c3c     C6  705   1.910   0.708   2.264
   75c3c     H1  706   2.089   0.855   2.484
   75c3c     H2  707   2.073   0.892   2.317
   75c3c     H3  708   2.063   0.485   2.407
   75c3c     H4  709   2.100   0.537   2.248
   75c3c     H5  710   2.312   0.811   2.429
   75c3c     H6  711   2.270   0.780   2.261
   75c3c     H7  712   2.251   0.596   2.500
   75c3c     H8  713   2.313   0.562   2.337
   75c3c     H9  714   1.882   0.760   2.521
   75c3c    H10  715   1.872   0.587   2.495
   75c3c    H11  716   2.012   0.652   2.576
   75c3c    H12  717   1.846   0.621   2.261
   75c3c    H13  718   1.845   0.793   2.288
   75c3c     C7  719   1.966   0.733   2.122
   75c3c    H14  720   2.042   0.659   2.095
   75c3c    H15  721   2.012   0.831   2.113
   75c3c     C8  722   1.859   0.716   2.017
   75c3c    H16  723   1.773   0.779   2.041
   75c3c    H17  724   1.826   0.613   2.012
   75c3c    H18  725   1.898   0.742   1.918
   76c3c      N  726   2.244   2.692   1.870
   76c3c     C1  727   2.387   2.675   1.847
   76c3c     C2  728   2.198   2.807   1.789
   76c3c     C3  729   2.439   2.807   1.792
   76c3c     C4  730   2.320   2.854   1.710
   76c3c     C5  731   2.179   2.570   1.823
   76c3c     C6  732   2.217   2.710   2.014
   76c3c     H1  733   2.408   2.596   1.775
   76c3c     H2  734   2.438   2.641   1.938
   76c3c     H3  735   2.118   2.782   1.719
   76c3c     H4  736   2.159   2.889   1.848
   76c3c     H5  737   2.529   2.794   1.732
   76c3c     H6  738   2.462   2.878   1.871
   76c3c     H7  739   2.320   2.803   1.614
   76c3c     H8  740   2.319   2.962   1.691
   76c3c     H9  741   2.218   2.481   1.873
   76c3c    H10  742   2.071   2.574   1.837
   76c3c    H11  743   2.196   2.554   1.717
   76c3c    H12  744   2.110   2.722   2.029
   76c3c    H13  745   2.244   2.619   2.067
   76c3c     C7  746   2.292   2.827   2.082
   76c3c    H14  747   2.280   2.919   2.025
   76c3c    H15  748   2.400   2.809   2.084
   76c3c     C8  749   2.246   2.852   2.225
   76c3c    H16  750   2.266   2.766   2.290
   76c3c    H17  751   2.139   2.873   2.227
   76c3c    H18  752   2.298   2.938   2.267
   77c3c      N  753   0.388   2.310   2.800
   77c3c     C1  754   0.347   2.251   2.672
   77c3c     C2  755   0.322   2.228   2.904
   77c3c     C3  756   0.204   2.202   2.693
   77c3c     C4  757   0.198   2.165   2.840
   77c3c     C5  758   0.533   2.298   2.814
   77c3c     C6  759   0.359   2.454   2.814
   77c3c     H1  760   0.406   2.163   2.649
   77c3c     H2  761   0.357   2.319   2.587
   77c3c     H3  762   0.386   2.147   2.937
   77c3c     H4  763   0.297   2.286   2.992
   77c3c     H5  764   0.178   2.119   2.627
   77c3c     H6  765   0.132   2.280   2.671
   77c3c     H7  766   0.201   2.057   2.854
   77c3c     H8  767   0.106   2.201   2.886
   77c3c     H9  768   0.586   2.349   2.734
   77c3c    H10  769   0.570   2.337   2.909
   77c3c    H11  770   0.563   2.193   2.811
   77c3c    H12  771   0.395   2.488   2.911
   77c3c    H13  772   0.418   2.506   2.739
   77c3c     C7  773   0.214   2.504   2.798
   77c3c    H14  774   0.148   2.453   2.868
   77c3c    H15  775   0.177   2.484   2.697
   77c3c     C8  776   0.204   2.656   2.820
   77c3c    H16  777   0.261   2.711   2.745
   77c3c    H17  778   0.241   2.684   2.918
   77c3c    H18  779   0.100   2.689   2.812
   78c3c      N  780   2.236   1.828   2.635
   78c3c     C1  781   2.216   1.682   2.624
   78c3c     C2  782   2.106   1.888   2.599
   78c3c     C3  783   2.103   1.657   2.525
   78c3c     C4  784   2.013   1.776   2.549
   78c3c     C5  785   2.263   1.865   2.775
   78c3c     C6  786   2.353   1.873   2.556
   78c3c     H1  787   2.181   1.645   2.721
   78c3c     H2  788   2.306   1.625   2.600
   78c3c     H3  789   2.059   1.938   2.683
   78c3c     H4  790   2.117   1.966   2.523
   78c3c     H5  791   2.050   1.563   2.543
   78c3c     H6  792   2.138   1.654   2.422
   78c3c     H7  793   1.940   1.748   2.625
   78c3c     H8  794   1.956   1.804   2.461
   78c3c     H9  795   2.351   1.815   2.814
   78c3c    H10  796   2.275   1.972   2.785
   78c3c    H11  797   2.181   1.838   2.841
   78c3c    H12  798   2.380   1.974   2.586
   78c3c    H13  799   2.439   1.811   2.579
   78c3c     C7  800   2.336   1.877   2.403
   78c3c    H14  801   2.261   1.952   2.379
   78c3c    H15  802   2.305   1.779   2.366
   78c3c     C8  803   2.455   1.924   2.322
   78c3c    H16  804   2.548   1.926   2.378
   78c3c    H17  805   2.438   2.024   2.281
   78c3c    H18  806   2.466   1.859   2.236
   79c3c      N  807   2.311   1.134   0.318
   79c3c     C1  808   2.244   1.194   0.203
   79c3c     C2  809   2.324   1.242   0.416
   79c3c     C3  810   2.282   1.343   0.200
   79c3c     C4  811   2.335   1.374   0.339
   79c3c     C5  812   2.230   1.028   0.375
   79c3c     C6  813   2.437   1.068   0.279
   79c3c     H1  814   2.136   1.185   0.215
   79c3c     H2  815   2.264   1.144   0.108
   79c3c     H3  816   2.233   1.251   0.477
   79c3c     H4  817   2.404   1.227   0.488
   79c3c     H5  818   2.196   1.406   0.178
   79c3c     H6  819   2.359   1.364   0.126
   79c3c     H7  820   2.276   1.453   0.387
   79c3c     H8  821   2.438   1.409   0.334
   79c3c     H9  822   2.210   0.948   0.303
   79c3c    H10  823   2.276   0.983   0.463
   79c3c    H11  824   2.131   1.062   0.408
   79c3c    H12  825   2.479   1.019   0.366
   79c3c    H13  826   2.413   0.987   0.210
   79c3c     C7  827   2.547   1.152   0.213
   79c3c    H14  828   2.572   1.237   0.276
   79c3c    H15  829   2.513   1.192   0.117
   79c3c     C8  830   2.674   1.069   0.190
   79c3c    H16  831   2.657   0.993   0.113
   79c3c    H17  832   2.705   1.018   0.281
   79c3c    H18  833   2.757   1.130   0.157
   80c3c      N  834   1.639   1.039   1.865
   80c3c     C1  835   1.494   1.038   1.849
   80c3c     C2  836   1.690   1.163   1.803
   80c3c     C3  837   1.452   1.182   1.827
   80c3c     C4  838   1.572   1.252   1.770
   80c3c     C5  839   1.667   1.043   2.008
   80c3c     C6  840   1.705   0.919   1.814
   80c3c     H1  841   1.440   0.997   1.934
   80c3c     H2  842   1.461   0.978   1.764
   80c3c     H3  843   1.757   1.218   1.868
   80c3c     H4  844   1.744   1.148   1.709
   80c3c     H5  845   1.422   1.229   1.920
   80c3c     H6  846   1.369   1.187   1.756
   80c3c     H7  847   1.581   1.351   1.815
   80c3c     H8  848   1.563   1.268   1.663
   80c3c     H9  849   1.616   0.965   2.064
   80c3c    H10  850   1.773   1.032   2.029
   80c3c    H11  851   1.634   1.139   2.049
   80c3c    H12  852   1.811   0.927   1.835
   80c3c    H13  853   1.665   0.832   1.867
   80c3c     C7  854   1.689   0.889   1.664
   80c3c    H14  855   1.714   0.976   1.604
   80c3c    H15  856   1.586   0.862   1.640
   80c3c     C8  857   1.780   0.777   1.619
   80c3c    H16  858   1.761   0.684   1.673
   80c3c    H17  859   1.885   0.801   1.633
   80c3c    H18  860   1.762   0.764   1.512
   81c3c      N  861   0.968   0.804   0.790
   81c3c     C1  862   1.053   0.685   0.774
   81c3c     C2  863   0.834   0.753   0.819
   81c3c     C3  864   0.962   0.566   0.750
   81c3c     C4  865   0.842   0.602   0.834
   81c3c     C5  866   1.013   0.883   0.905
   81c3c     C6  867   0.977   0.898   0.677
   81c3c     H1  868   1.110   0.665   0.865
   81c3c     H2  869   1.126   0.695   0.694
   81c3c     H3  870   0.790   0.798   0.909
   81c3c     H4  871   0.765   0.776   0.738
   81c3c     H5  872   1.008   0.472   0.781
   81c3c     H6  873   0.936   0.558   0.645
   81c3c     H7  874   0.860   0.575   0.938
   81c3c     H8  875   0.752   0.552   0.800
   81c3c     H9  876   1.113   0.924   0.893
   81c3c    H10  877   0.948   0.969   0.923
   81c3c    H11  878   1.010   0.823   0.996
   81c3c    H12  879   0.923   0.990   0.701
   81c3c    H13  880   1.081   0.929   0.666
   81c3c     C7  881   0.929   0.851   0.540
   81c3c    H14  882   0.826   0.816   0.541
   81c3c    H15  883   0.989   0.765   0.509
   81c3c     C8  884   0.941   0.966   0.438
   81c3c    H16  885   1.044   1.001   0.430
   81c3c    H17  886   0.885   1.053   0.470
   81c3c    H18  887   0.909   0.936   0.339
   82c3c      N  888   1.235   0.914   2.461
   82c3c     C1  889   1.358   0.923   2.542
   82c3c     C2  890   1.132   0.990   2.534
   82c3c     C3  891   1.351   1.059   2.612
   82c3c     C4  892   1.206   1.104   2.603
   82c3c     C5  893   1.261   0.985   2.336
   82c3c     C6  894   1.195   0.777   2.426
   82c3c     H1  895   1.449   0.912   2.484
   82c3c     H2  896   1.364   0.847   2.620
   82c3c     H3  897   1.051   1.026   2.471
   82c3c     H4  898   1.086   0.930   2.612
   82c3c     H5  899   1.415   1.131   2.559
   82c3c     H6  900   1.387   1.053   2.714
   82c3c     H7  901   1.199   1.196   2.544
   82c3c     H8  902   1.166   1.125   2.702
   82c3c     H9  903   1.353   0.952   2.289
   82c3c    H10  904   1.182   0.972   2.262
   82c3c    H11  905   1.269   1.093   2.351
   82c3c    H12  906   1.105   0.779   2.365
   82c3c    H13  907   1.272   0.732   2.364
   82c3c     C7  908   1.170   0.684   2.547
   82c3c    H14  909   1.101   0.727   2.619
   82c3c    H15  910   1.263   0.666   2.601
   82c3c     C8  911   1.110   0.549   2.508
   82c3c    H16  912   1.172   0.496   2.436
   82c3c    H17  913   1.010   0.560   2.467
   82c3c    H18  914   1.104   0.489   2.599
   83c3c      N  915   0.366   0.666   0.970
   83c3c     C1  916   0.355   0.723   0.835
   83c3c     C2  917   0.267   0.558   0.976
   83c3c     C3  918   0.228   0.675   0.768
   83c3c     C4  919   0.159   0.594   0.874
   83c3c     C5  920   0.501   0.612   0.988
   83c3c     C6  921   0.351   0.770   1.075
   83c3c     H1  922   0.440   0.697   0.772
   83c3c     H2  923   0.348   0.831   0.842
   83c3c     H3  924   0.309   0.463   0.945
   83c3c     H4  925   0.224   0.542   1.075
   83c3c     H5  926   0.250   0.614   0.680
   83c3c     H6  927   0.165   0.759   0.737
   83c3c     H7  928   0.110   0.507   0.832
   83c3c     H8  929   0.084   0.660   0.918
   83c3c     H9  930   0.577   0.688   0.972
   83c3c    H10  931   0.513   0.573   1.089
   83c3c    H11  932   0.522   0.530   0.919
   83c3c    H12  933   0.369   0.725   1.173
   83c3c    H13  934   0.427   0.846   1.060
   83c3c     C7  935   0.215   0.842   1.083
   83c3c    H14  936   0.141   0.766   1.108
   83c3c    H15  937   0.187   0.886   0.988
   83c3c     C8  938   0.210   0.950   1.191
   83c3c    H16  939   0.284   1.028   1.175
   83c3c    H17  940   0.222   0.907   1.290
   83c3c    H18  941   0.112   0.998   1.190
   84c3c      N  942   1.177   2.221   2.794
   84c3c     C1  943   1.257   2.189   2.913
   84c3c     C2  944   1.272   2.255   2.687
   84c3c     C3  945   1.404   2.224   2.885
   84c3c     C4  946   1.400   2.303   2.756
   84c3c     C5  947   1.105   2.101   2.753
   84c3c     C6  948   1.075   2.325   2.817
   84c3c     H1  949   1.252   2.084   2.942
   84c3c     H2  950   1.222   2.244   3.001
   84c3c     H3  951   1.299   2.168   2.628
   84c3c     H4  952   1.230   2.327   2.617
   84c3c     H5  953   1.461   2.132   2.872
   84c3c     H6  954   1.449   2.279   2.967
   84c3c     H7  955   1.489   2.283   2.695
   84c3c     H8  956   1.397   2.410   2.777
   84c3c     H9  957   1.032   2.068   2.827
   84c3c    H10  958   1.053   2.115   2.658
   84c3c    H11  959   1.176   2.019   2.739
   84c3c    H12  960   1.013   2.334   2.729
   84c3c    H13  961   1.008   2.290   2.896
   84c3c     C7  962   1.126   2.465   2.855
   84c3c    H14  963   1.191   2.505   2.777
   84c3c    H15  964   1.185   2.461   2.946
   84c3c     C8  965   1.011   2.565   2.874
   84c3c    H16  966   0.941   2.529   2.950
   84c3c    H17  967   0.955   2.579   2.781
   84c3c    H18  968   1.048   2.662   2.906
   85c3c      N  969   2.797   0.327   2.005
   85c3c     C1  970   2.905   0.411   1.951
   85c3c     C2  971   2.685   0.419   2.021
   85c3c     C3  972   2.889   0.549   2.015
   85c3c     C4  973   2.745   0.554   2.062
   85c3c     C5  974   2.759   0.226   1.906
   85c3c     C6  975   2.834   0.254   2.128
   85c3c     H1  976   2.890   0.425   1.843
   85c3c     H2  977   3.004   0.368   1.963
   85c3c     H3  978   2.633   0.436   1.926
   85c3c     H4  979   2.608   0.382   2.089
   85c3c     H5  980   2.909   0.628   1.942
   85c3c     H6  981   2.958   0.565   2.098
   85c3c     H7  982   2.691   0.637   2.015
   85c3c     H8  983   2.740   0.571   2.169
   85c3c     H9  984   2.841   0.158   1.881
   85c3c    H10  985   2.675   0.166   1.938
   85c3c    H11  986   2.728   0.271   1.812
   85c3c    H12  987   2.751   0.186   2.152
   85c3c    H13  988   2.919   0.189   2.107
   85c3c     C7  989   2.865   0.333   2.257
   85c3c    H14  990   2.781   0.397   2.284
   85c3c    H15  991   2.951   0.399   2.243
   85c3c     C8  992   2.891   0.243   2.378
   85c3c    H16  993   2.981   0.183   2.365
   85c3c    H17  994   2.807   0.175   2.394
   85c3c    H18  995   2.902   0.302   2.468
   86c3c      N  996   0.860   1.465   2.637
   86c3c     C1  997   0.748   1.454   2.732
   86c3c     C2  998   0.895   1.329   2.597
   86c3c     C3  999   0.747   1.312   2.790
   86c3c     C4 1000   0.846   1.232   2.706
   86c3c     C5 1001   0.816   1.541   2.519
   86c3c     C6 1002   0.977   1.538   2.691
   86c3c     H1 1003   0.652   1.470   2.683
   86c3c     H2 1004   0.752   1.529   2.811
   86c3c     H3 1005   0.844   1.303   2.504
   86c3c     H4 1006   1.001   1.317   2.576
   86c3c     H5 1007   0.648   1.268   2.785
   86c3c     H6 1008   0.778   1.311   2.894
   86c3c     H7 1009   0.796   1.146   2.661
   86c3c     H8 1010   0.927   1.196   2.768
   86c3c     H9 1011   0.793   1.645   2.542
   86c3c    H10 1012   0.891   1.540   2.441
   86c3c    H11 1013   0.725   1.499   2.475
   86c3c    H12 1014   1.053   1.546   2.613
   86c3c    H13 1015   0.947   1.641   2.712
   86c3c     C7 1016   1.046   1.480   2.815
   86c3c    H14 1017   1.089   1.382   2.794
   86c3c    H15 1018   0.975   1.465   2.896
   86c3c     C8 1019   1.159   1.572   2.863
   86c3c    H16 1020   1.124   1.673   2.885
   86c3c    H17 1021   1.236   1.582   2.787
   86c3c    H18 1022   1.208   1.533   2.953
   87c3c      N 1023   0.884   0.257   1.989
   87c3c     C1 1024   1.024   0.303   1.987
   87c3c     C2 1025   0.801   0.375   1.961
   87c3c     C3 1026   1.024   0.452   2.021
   87c3c     C4 1027   0.878   0.495   2.015
   87c3c     C5 1028   0.865   0.159   1.883
   87c3c     C6 1029   0.846   0.190   2.115
   87c3c     H1 1030   1.068   0.295   1.888
   87c3c     H2 1031   1.089   0.247   2.054
   87c3c     H3 1032   0.790   0.391   1.854
   87c3c     H4 1033   0.700   0.370   2.002
   87c3c     H5 1034   1.082   0.508   1.948
   87c3c     H6 1035   1.066   0.473   2.119
   87c3c     H7 1036   0.863   0.580   1.949
   87c3c     H8 1037   0.848   0.524   2.115
   87c3c     H9 1038   0.924   0.069   1.900
   87c3c    H10 1039   0.760   0.130   1.873
   87c3c    H11 1040   0.897   0.198   1.786
   87c3c    H12 1041   0.745   0.152   2.105
   87c3c    H13 1042   0.910   0.104   2.130
   87c3c     C7 1043   0.849   0.273   2.245
   87c3c    H14 1044   0.784   0.360   2.238
   87c3c    H15 1045   0.949   0.309   2.268
   87c3c     C8 1046   0.798   0.187   2.362
   87c3c    H16 1047   0.865   0.105   2.383
   87c3c    H17 1048   0.699   0.145   2.341
   87c3c    H18 1049   0.789   0.248   2.452
   88c3c      N 1050   2.104   1.450   0.935
   88c3c     C1 1051   1.977   1.400   0.881
   88c3c     C2 1052   2.188   1.481   0.820
   88c3c     C3 1053   1.974   1.438   0.733
   88c3c     C4 1054   2.118   1.427   0.695
   88c3c     C5 1055   2.076   1.571   1.013
   88c3c     C6 1056   2.174   1.355   1.023
   88c3c     H1 1057   1.891   1.440   0.935
   88c3c     H2 1058   1.967   1.292   0.888
   88c3c     H3 1059   2.202   1.589   0.814
   88c3c     H4 1060   2.289   1.440   0.828
   88c3c     H5 1061   1.938   1.540   0.719
   88c3c     H6 1062   1.911   1.371   0.674
   88c3c     H7 1063   2.141   1.484   0.604
   88c3c     H8 1064   2.144   1.323   0.679
   88c3c     H9 1065   2.009   1.548   1.096
   88c3c    H10 1066   2.165   1.617   1.054
   88c3c    H11 1067   2.025   1.647   0.953
   88c3c    H12 1068   2.263   1.403   1.063
   88c3c    H13 1069   2.112   1.334   1.111
   88c3c     C7 1070   2.221   1.225   0.954
   88c3c    H14 1071   2.309   1.241   0.892
   88c3c    H15 1072   2.144   1.188   0.885
   88c3c     C8 1073   2.254   1.114   1.053
   88c3c    H16 1074   2.162   1.076   1.098
   88c3c    H17 1075   2.320   1.151   1.131
   88c3c    H18 1076   2.305   1.032   1.003
   89c3c      N 1077   2.266   2.862   0.857
   89c3c     C1 1078   2.369   2.939   0.786
   89c3c     C2 1079   2.299   2.720   0.835
   89c3c     C3 1080   2.486   2.843   0.764
   89c3c     C4 1081   2.416   2.712   0.739
   89c3c     C5 1082   2.279   2.892   0.999
   89c3c     C6 1083   2.127   2.891   0.816
   89c3c     H1 1084   2.400   3.028   0.840
   89c3c     H2 1085   2.335   2.972   0.688
   89c3c     H3 1086   2.326   2.671   0.929
   89c3c     H4 1087   2.214   2.665   0.795
   89c3c     H5 1088   2.548   2.835   0.853
   89c3c     H6 1089   2.550   2.872   0.680
   89c3c     H7 1090   2.479   2.626   0.758
   89c3c     H8 1091   2.379   2.708   0.636
   89c3c     H9 1092   2.253   2.996   1.023
   89c3c    H10 1093   2.215   2.829   1.061
   89c3c    H11 1094   2.380   2.875   1.034
   89c3c    H12 1095   2.059   2.833   0.878
   89c3c    H13 1096   2.104   2.996   0.836
   89c3c     C7 1097   2.091   2.861   0.668
   89c3c    H14 1098   2.116   2.760   0.639
   89c3c    H15 1099   2.151   2.922   0.601
   89c3c     C8 1100   1.941   2.884   0.638
   89c3c    H16 1101   1.908   2.983   0.670
   89c3c    H17 1102   1.880   2.810   0.689
   89c3c    H18 1103   1.920   2.876   0.532
   90c3c      N 1104   1.422   2.560   1.874
   90c3c     C1 1105   1.292   2.596   1.817
   90c3c     C2 1106   1.504   2.682   1.882
   90c3c     C3 1107   1.287   2.746   1.792
   90c3c     C4 1108   1.414   2.802   1.853
   90c3c     C5 1109   1.401   2.507   2.008
   90c3c     C6 1110   1.487   2.454   1.796
   90c3c     H1 1111   1.207   2.562   1.877
   90c3c     H2 1112   1.279   2.546   1.721
   90c3c     H3 1113   1.549   2.693   1.980
   90c3c     H4 1114   1.586   2.685   1.810
   90c3c     H5 1115   1.198   2.792   1.835
   90c3c     H6 1116   1.286   2.765   1.685
   90c3c     H7 1117   1.392   2.857   1.945
   90c3c     H8 1118   1.463   2.871   1.784
   90c3c     H9 1119   1.344   2.414   2.006
   90c3c    H10 1120   1.496   2.485   2.056
   90c3c    H11 1121   1.348   2.577   2.073
   90c3c    H12 1122   1.577   2.418   1.846
   90c3c    H13 1123   1.418   2.369   1.795
   90c3c     C7 1124   1.524   2.483   1.649
   90c3c    H14 1125   1.601   2.559   1.641
   90c3c    H15 1126   1.440   2.520   1.592
   90c3c     C8 1127   1.575   2.355   1.584
   90c3c    H16 1128   1.505   2.272   1.593
   90c3c    H17 1129   1.669   2.324   1.632
   90c3c    H18 1130   1.595   2.368   1.478
   91c3c      N 1131   2.279   1.120   2.790
   91c3c     C1 1132   2.285   1.038   2.669
   91c3c     C2 1133   2.341   1.041   2.898
   91c3c     C3 1134   2.319   0.894   2.709
   91c3c     C4 1135   2.321   0.894   2.861
   91c3c     C5 1136   2.354   1.244   2.769
   91c3c     C6 1137   2.142   1.163   2.823
   91c3c     H1 1138   2.365   1.073   2.603
   91c3c     H2 1139   2.194   1.043   2.609
   91c3c     H3 1140   2.448   1.059   2.904
   91c3c     H4 1141   2.298   1.064   2.995
   91c3c     H5 1142   2.418   0.868   2.671
   91c3c     H6 1143   2.248   0.821   2.669
   91c3c     H7 1144   2.401   0.831   2.900
   91c3c     H8 1145   2.227   0.855   2.900
   91c3c     H9 1146   2.312   1.302   2.687
   91c3c    H10 1147   2.353   1.307   2.857
   91c3c    H11 1148   2.458   1.222   2.743
   91c3c    H12 1149   2.144   1.229   2.910
   91c3c    H13 1150   2.104   1.223   2.740
   91c3c     C7 1151   2.037   1.057   2.851
   91c3c    H14 1152   2.064   0.992   2.934
   91c3c    H15 1153   2.024   0.996   2.761
   91c3c     C8 1154   1.903   1.121   2.883
   91c3c    H16 1155   1.869   1.181   2.798
   91c3c    H17 1156   1.909   1.187   2.969
   91c3c    H18 1157   1.826   1.046   2.902
   92c3c      N 1158   0.759   1.812   0.347
   92c3c     C1 1159   0.778   1.682   0.411
   92c3c     C2 1160   0.890   1.880   0.350
   92c3c     C3 1161   0.900   1.694   0.503
   92c3c     C4 1162   0.968   1.825   0.468
   92c3c     C5 1163   0.719   1.798   0.207
   92c3c     C6 1164   0.653   1.889   0.413
   92c3c     H1 1165   0.797   1.603   0.339
   92c3c     H2 1166   0.690   1.646   0.466
   92c3c     H3 1167   0.949   1.861   0.261
   92c3c     H4 1168   0.878   1.989   0.356
   92c3c     H5 1169   0.968   1.611   0.485
   92c3c     H6 1170   0.870   1.696   0.608
   92c3c     H7 1171   1.072   1.808   0.441
   92c3c     H8 1172   0.967   1.893   0.553
   92c3c     H9 1173   0.624   1.745   0.196
   92c3c    H10 1174   0.708   1.896   0.160
   92c3c    H11 1175   0.793   1.745   0.148
   92c3c    H12 1176   0.645   1.987   0.366
   92c3c    H13 1177   0.557   1.840   0.397
   92c3c     C7 1178   0.669   1.911   0.564
   92c3c    H14 1179   0.763   1.961   0.587
   92c3c    H15 1180   0.668   1.815   0.615
   92c3c     C8 1181   0.556   1.996   0.622
   92c3c    H16 1182   0.459   1.948   0.606
   92c3c    H17 1183   0.556   2.095   0.577
   92c3c    H18 1184   0.570   2.007   0.729
   93c3c      N 1185   0.292   2.758   0.804
   93c3c     C1 1186   0.419   2.758   0.880
   93c3c     C2 1187   0.188   2.817   0.891
   93c3c     C3 1188   0.388   2.814   1.020
   93c3c     C4 1189   0.238   2.805   1.034
   93c3c     C5 1190   0.306   2.843   0.685
   93c3c     C6 1191   0.255   2.623   0.756
   93c3c     H1 1192   0.497   2.819   0.833
   93c3c     H2 1193   0.463   2.659   0.890
   93c3c     H3 1194   0.174   2.923   0.871
   93c3c     H4 1195   0.090   2.771   0.879
   93c3c     H5 1196   0.418   2.919   1.026
   93c3c     H6 1197   0.441   2.760   1.098
   93c3c     H7 1198   0.199   2.883   1.099
   93c3c     H8 1199   0.209   2.709   1.077
   93c3c     H9 1200   0.384   2.806   0.618
   93c3c    H10 1201   0.213   2.847   0.628
   93c3c    H11 1202   0.332   2.945   0.711
   93c3c    H12 1203   0.164   2.631   0.697
   93c3c    H13 1204   0.331   2.587   0.686
   93c3c     C7 1205   0.231   2.514   0.862
   93c3c    H14 1206   0.158   2.547   0.936
   93c3c    H15 1207   0.321   2.489   0.918
   93c3c     C8 1208   0.174   2.387   0.798
   93c3c    H16 1209   0.244   2.340   0.730
   93c3c    H17 1210   0.084   2.409   0.740
   93c3c    H18 1211   0.145   2.314   0.874
   94c3c      N 1212   1.508   0.317   2.267
   94c3c     C1 1213   1.600   0.431   2.285
   94c3c     C2 1214   1.560   0.212   2.355
   94c3c     C3 1215   1.738   0.371   2.317
   94c3c     C4 1216   1.713   0.226   2.355
   94c3c     C5 1217   1.374   0.352   2.315
   94c3c     C6 1218   1.491   0.274   2.127
   94c3c     H1 1219   1.570   0.492   2.370
   94c3c     H2 1220   1.602   0.498   2.199
   94c3c     H3 1221   1.526   0.227   2.457
   94c3c     H4 1222   1.523   0.113   2.328
   94c3c     H5 1223   1.783   0.423   2.401
   94c3c     H6 1224   1.806   0.378   2.232
   94c3c     H7 1225   1.754   0.202   2.454
   94c3c     H8 1226   1.764   0.160   2.285
   94c3c     H9 1227   1.329   0.433   2.257
   94c3c    H10 1228   1.306   0.267   2.312
   94c3c    H11 1229   1.377   0.388   2.418
   94c3c    H12 1230   1.421   0.191   2.125
   94c3c    H13 1231   1.444   0.354   2.072
   94c3c     C7 1232   1.615   0.231   2.046
   94c3c    H14 1233   1.679   0.160   2.098
   94c3c    H15 1234   1.679   0.316   2.023
   94c3c     C8 1235   1.573   0.160   1.917
   94c3c    H16 1236   1.511   0.225   1.856
   94c3c    H17 1237   1.517   0.069   1.938
   94c3c    H18 1238   1.660   0.131   1.859
   95c3c      N 1239   0.949   1.883   1.372
   95c3c     C1 1240   0.988   1.762   1.297
   95c3c     C2 1241   0.987   1.861   1.512
   95c3c     C3 1242   1.081   1.681   1.387
   95c3c     C4 1243   1.035   1.718   1.526
   95c3c     C5 1244   1.026   1.995   1.320
   95c3c     C6 1245   0.807   1.923   1.360
   95c3c     H1 1246   1.043   1.784   1.206
   95c3c     H2 1247   0.904   1.701   1.266
   95c3c     H3 1248   1.069   1.926   1.544
   95c3c     H4 1249   0.907   1.881   1.583
   95c3c     H5 1250   1.184   1.711   1.372
   95c3c     H6 1251   1.078   1.574   1.367
   95c3c     H7 1252   1.117   1.712   1.597
   95c3c     H8 1253   0.954   1.653   1.559
   95c3c     H9 1254   1.002   2.020   1.217
   95c3c    H10 1255   1.009   2.083   1.382
   95c3c    H11 1256   1.133   1.976   1.327
   95c3c    H12 1257   0.792   2.013   1.418
   95c3c    H13 1258   0.787   1.953   1.257
   95c3c     C7 1259   0.703   1.819   1.405
   95c3c    H14 1260   0.722   1.792   1.509
   95c3c    H15 1261   0.711   1.728   1.346
   95c3c     C8 1262   0.559   1.869   1.395
   95c3c    H16 1263   0.534   1.899   1.293
   95c3c    H17 1264   0.542   1.954   1.461
   95c3c    H18 1265   0.490   1.790   1.424
   96c3c      N 1266   0.229   1.472   1.480
   96c3c     C1 1267   0.139   1.358   1.455
   96c3c     C2 1268   0.363   1.421   1.451
   96c3c     C3 1269   0.216   1.231   1.489
   96c3c     C4 1270   0.362   1.270   1.469
   96c3c     C5 1271   0.199   1.580   1.386
   96c3c     C6 1272   0.214   1.528   1.616
   96c3c     H1 1273   0.112   1.352   1.350
   96c3c     H2 1274   0.046   1.368   1.512
   96c3c     H3 1275   0.396   1.443   1.349
   96c3c     H4 1276   0.436   1.470   1.516
   96c3c     H5 1277   0.187   1.148   1.425
   96c3c     H6 1278   0.200   1.199   1.592
   96c3c     H7 1279   0.404   1.223   1.381
   96c3c     H8 1280   0.421   1.241   1.556
   96c3c     H9 1281   0.101   1.624   1.403
   96c3c    H10 1282   0.273   1.660   1.394
   96c3c    H11 1283   0.202   1.545   1.283
   96c3c    H12 1284   0.277   1.617   1.624
   96c3c    H13 1285   0.113   1.566   1.629
   96c3c     C7 1286   0.247   1.439   1.738
   96c3c    H14 1287   0.351   1.408   1.735
   96c3c    H15 1288   0.185   1.349   1.740
   96c3c     C8 1289   0.221   1.513   1.869
   96c3c    H16 1290   0.115   1.524   1.889
   96c3c    H17 1291   0.264   1.614   1.865
   96c3c    H18 1292   0.266   1.461   1.953
   97c3c      N 1293   2.800   1.358   2.769
   97c3c     C1 1294   2.665   1.416   2.758
   97c3c     C2 1295   2.895   1.471   2.776
   97c3c     C3 1296   2.678   1.567   2.773
   97c3c     C4 1297   2.820   1.595   2.728
   97c3c     C5 1298   2.809   1.282   2.894
   97c3c     C6 1299   2.834   1.264   2.660
   97c3c     H1 1300   2.595   1.378   2.832
   97c3c     H2 1301   2.618   1.394   2.661
   97c3c     H3 1302   2.927   1.491   2.878
   97c3c     H4 1303   2.987   1.455   2.719
   97c3c     H5 1304   2.666   1.595   2.878
   97c3c     H6 1305   2.604   1.622   2.715
   97c3c     H7 1306   2.860   1.687   2.769
   97c3c     H8 1307   2.825   1.603   2.619
   97c3c     H9 1308   2.741   1.196   2.894
   97c3c    H10 1309   2.910   1.242   2.910
   97c3c    H11 1310   2.784   1.342   2.981
   97c3c    H12 1311   2.933   1.223   2.678
   97c3c    H13 1312   2.766   1.179   2.662
   97c3c     C7 1313   2.833   1.322   2.517
   97c3c    H14 1314   2.890   1.414   2.511
   97c3c    H15 1315   2.731   1.343   2.486
   97c3c     C8 1316   2.890   1.225   2.415
   97c3c    H16 1317   2.833   1.132   2.415
   97c3c    H17 1318   2.995   1.202   2.435
   97c3c    H18 1319   2.885   1.269   2.315
   98c3c      N 1320   1.407   1.161   0.789
   98c3c     C1 1321   1.285   1.095   0.744
   98c3c     C2 1322   1.402   1.294   0.729
   98c3c     C3 1323   1.252   1.150   0.605
   98c3c     C4 1324   1.308   1.290   0.608
   98c3c     C5 1325   1.403   1.173   0.935
   98c3c     C6 1326   1.532   1.089   0.754
   98c3c     H1 1327   1.203   1.122   0.811
   98c3c     H2 1328   1.294   0.986   0.747
   98c3c     H3 1329   1.365   1.367   0.801
   98c3c     H4 1330   1.501   1.331   0.703
   98c3c     H5 1331   1.145   1.151   0.583
   98c3c     H6 1332   1.298   1.095   0.523
   98c3c     H7 1333   1.228   1.364   0.620
   98c3c     H8 1334   1.358   1.312   0.514
   98c3c     H9 1335   1.399   1.077   0.986
   98c3c    H10 1336   1.489   1.228   0.973
   98c3c    H11 1337   1.317   1.231   0.967
   98c3c    H12 1338   1.616   1.145   0.794
   98c3c    H13 1339   1.534   0.993   0.805
   98c3c     C7 1340   1.562   1.070   0.604
   98c3c    H14 1341   1.569   1.167   0.553
   98c3c    H15 1342   1.483   1.013   0.555
   98c3c     C8 1343   1.690   0.993   0.580
   98c3c    H16 1344   1.688   0.898   0.634
   98c3c    H17 1345   1.778   1.050   0.611
   98c3c    H18 1346   1.701   0.970   0.474
   99c3c      N 1347   1.431   1.934   1.327
   99c3c     C1 1348   1.574   1.909   1.340
   99c3c     C2 1349   1.378   1.896   1.459
   99c3c     C3 1350   1.588   1.786   1.429
   99c3c     C4 1351   1.459   1.776   1.506
   99c3c     C5 1352   1.409   2.078   1.311
   99c3c     C6 1353   1.372   1.862   1.211
   99c3c     H1 1354   1.624   1.992   1.391
   99c3c     H2 1355   1.625   1.898   1.243
   99c3c     H3 1356   1.397   1.975   1.531
   99c3c     H4 1357   1.271   1.879   1.463
   99c3c     H5 1358   1.670   1.799   1.501
   99c3c     H6 1359   1.605   1.695   1.372
   99c3c     H7 1360   1.486   1.783   1.611
   99c3c     H8 1361   1.409   1.680   1.491
   99c3c     H9 1362   1.456   2.117   1.221
   99c3c    H10 1363   1.302   2.102   1.305
   99c3c    H11 1364   1.449   2.137   1.393
   99c3c    H12 1365   1.265   1.878   1.208
   99c3c    H13 1366   1.408   1.909   1.119
   99c3c     C7 1367   1.396   1.710   1.192
   99c3c    H14 1368   1.379   1.653   1.283
   99c3c    H15 1369   1.500   1.692   1.164
   99c3c     C8 1370   1.304   1.650   1.086
   99c3c    H16 1371   1.323   1.694   0.987
   99c3c    H17 1372   1.198   1.665   1.109
   99c3c    H18 1373   1.319   1.543   1.077
  100c3c      N 1374   0.621   0.276   0.581
  100c3c     C1 1375   0.499   0.198   0.558
  100c3c     C2 1376   0.574   0.415   0.593
  100c3c     C3 1377   0.401   0.287   0.480
  100c3c     C4 1378   0.452   0.429   0.502
  100c3c     C5 1379   0.682   0.233   0.708
  100c3c     C6 1380   0.724   0.258   0.476
  100c3c     H1 1381   0.450   0.173   0.652
  100c3c     H2 1382   0.518   0.103   0.507
  100c3c     H3 1383   0.540   0.435   0.695
  100c3c     H4 1384   0.652   0.488   0.571
  100c3c     H5 1385   0.299   0.276   0.517
  100c3c     H6 1386   0.400   0.263   0.373
  100c3c     H7 1387   0.376   0.492   0.547
  100c3c     H8 1388   0.477   0.475   0.406
  100c3c     H9 1389   0.712   0.128   0.704
  100c3c    H10 1390   0.771   0.291   0.732
  100c3c    H11 1391   0.615   0.243   0.793
  100c3c    H12 1392   0.813   0.315   0.503
  100c3c    H13 1393   0.757   0.154   0.476
  100c3c     C7 1394   0.687   0.294   0.331
  100c3c    H14 1395   0.652   0.396   0.322
  100c3c    H15 1396   0.609   0.227   0.294
  100c3c     C8 1397   0.808   0.283   0.239
  100c3c    H16 1398   0.858   0.187   0.254
  100c3c    H17 1399   0.880   0.362   0.259
  100c3c    H18 1400   0.780   0.290   0.134
  101fsi     F1 1401   1.509   2.371   1.124
  101fsi     S1 1402   1.642   2.420   1.189
  101fsi      N 1403   1.716   2.479   1.064
  101fsi     O1 1404   1.601   2.522   1.281
  101fsi     O2 1405   1.694   2.297   1.240
  101fsi     S2 1406   1.693   2.622   1.005
  101fsi     O3 1407   1.720   2.730   1.095
  101fsi     O4 1408   1.569   2.626   0.934
  101fsi     F2 1409   1.803   2.636   0.893
  102fsi     F1 1410   1.632   0.567   2.606
  102fsi     S1 1411   1.555   0.458   2.690
  102fsi      N 1412   1.587   0.495   2.838
  102fsi     O1 1413   1.418   0.472   2.651
  102fsi     O2 1414   1.622   0.336   2.655
  102fsi     S2 1415   1.549   0.626   2.915
  102fsi     O3 1416   1.512   0.737   2.832
  102fsi     O4 1417   1.644   0.647   3.020
  102fsi     F2 1418   1.416   0.586   2.989
  103fsi     F1 1419   0.704   0.771   1.168
  103fsi     S1 1420   0.703   0.925   1.200
  103fsi      N 1421   0.802   0.931   1.319
  103fsi     O1 1422   0.744   0.985   1.077
  103fsi     O2 1423   0.567   0.946   1.243
  103fsi     S2 1424   0.952   0.978   1.321
  103fsi     O3 1425   1.025   0.951   1.202
  103fsi     O4 1426   1.017   0.940   1.443
  103fsi     F2 1427   0.939   1.134   1.332
  104fsi     F1 1428   0.318   1.635   1.086
  104fsi     S1 1429   0.403   1.513   1.035
  104fsi      N 1430   0.388   1.527   0.879
  104fsi     O1 1431   0.533   1.541   1.087
  104fsi     O2 1432   0.331   1.401   1.088
  104fsi     S2 1433   0.451   1.637   0.785
  104fsi     O3 1434   0.477   1.760   0.853
  104fsi     O4 1435   0.385   1.648   0.657
  104fsi     F2 1436   0.593   1.581   0.750
  105fsi     F1 1437   0.890   1.835   2.869
  105fsi     S1 1438   0.737   1.865   2.849
  105fsi      N 1439   0.736   2.014   2.799
  105fsi     O1 1440   0.694   1.769   2.752
  105fsi     O2 1441   0.685   1.849   2.982
  105fsi     S2 1442   0.760   2.066   2.653
  105fsi     O3 1443   0.842   1.981   2.574
  105fsi     O4 1444   0.788   2.207   2.648
  105fsi     F2 1445   0.618   2.055   2.586
  106fsi     F1 1446   0.783   1.678   2.212
  106fsi     S1 1447   0.659   1.763   2.250
  106fsi      N 1448   0.608   1.820   2.114
  106fsi     O1 1449   0.576   1.664   2.314
  106fsi     O2 1450   0.718   1.866   2.330
  106fsi     S2 1451   0.483   1.778   2.029
  106fsi     O3 1452   0.475   1.637   2.003
  106fsi     O4 1453   0.456   1.866   1.920
  106fsi     F2 1454   0.363   1.807   2.126
  107fsi     F1 1455   1.409   3.041   1.107
  107fsi     S1 1456   1.378   2.918   1.014
  107fsi      N 1457   1.225   2.933   0.983
  107fsi     O1 1458   1.467   2.936   0.904
  107fsi     O2 1459   1.396   2.804   1.099
  107fsi     S2 1460   1.152   2.963   0.847
  107fsi     O3 1461   1.235   3.022   0.746
  107fsi     O4 1462   1.021   3.018   0.865
  107fsi     F2 1463   1.125   2.818   0.793
  108fsi     F1 1464   1.706   2.200   0.128
  108fsi     S1 1465   1.784   2.298   0.222
  108fsi      N 1466   1.854   2.397   0.121
  108fsi     O1 1467   1.682   2.364   0.299
  108fsi     O2 1468   1.879   2.215   0.291
  108fsi     S2 1469   1.795   2.532   0.070
  108fsi     O3 1470   1.661   2.524   0.020
  108fsi     O4 1471   1.887   2.607  -0.011
  108fsi     F2 1472   1.783   2.621   0.199
  109fsi     F1 1473   2.326   0.712   1.653
  109fsi     S1 1474   2.262   0.585   1.721
  109fsi      N 1475   2.355   0.562   1.846
  109fsi     O1 1476   2.128   0.627   1.752
  109fsi     O2 1477   2.276   0.485   1.619
  109fsi     S2 1478   2.328   0.600   1.996
  109fsi     O3 1479   2.264   0.726   2.016
  109fsi     O4 1480   2.437   0.574   2.085
  109fsi     F2 1481   2.221   0.494   2.039
  110fsi     F1 1482   2.713   2.153   1.871
  110fsi     S1 1483   2.807   2.087   1.979
  110fsi      N 1484   2.949   2.109   1.916
  110fsi     O1 1485   2.781   2.162   2.099
  110fsi     O2 1486   2.768   1.949   1.979
  110fsi     S2 1487   3.051   2.228   1.936
  110fsi     O3 1488   3.002   2.336   2.016
  110fsi     O4 1489   3.124   2.260   1.816
  110fsi     F2 1490   3.160   2.163   2.029
  111fsi     F1 1491   0.848   2.528   1.142
  111fsi     S1 1492   0.923   2.666   1.137
  111fsi      N 1493   0.830   2.760   1.053
  111fsi     O1 1494   0.933   2.704   1.274
  111fsi     O2 1495   1.047   2.639   1.069
  111fsi     S2 1496   0.754   2.888   1.102
  111fsi     O3 1497   0.695   2.877   1.233
  111fsi     O4 1498   0.676   2.948   0.997
  111fsi     F2 1499   0.870   2.992   1.122
  112fsi     F1 1500   2.953   1.329   0.603
  112fsi     S1 1501   2.925   1.174   0.610
  112fsi      N 1502   2.786   1.172   0.682
  112fsi     O1 1503   2.924   1.133   0.473
  112fsi     O2 1504   3.030   1.126   0.695
  112fsi     S2 1505   2.647   1.201   0.619
  112fsi     O3 1506   2.657   1.285   0.504
  112fsi     O4 1507   2.551   1.245   0.716
  112fsi     F2 1508   2.595   1.063   0.569
  113fsi     F1 1509   1.505   1.392   1.151
  113fsi     S1 1510   1.634   1.404   1.238
  113fsi      N 1511   1.693   1.259   1.230
  113fsi     O1 1512   1.714   1.502   1.168
  113fsi     O2 1513   1.582   1.439   1.366
  113fsi     S2 1514   1.758   1.193   1.105
  113fsi     O3 1515   1.733   1.257   0.980
  113fsi     O4 1516   1.745   1.050   1.106
  113fsi     F2 1517   1.911   1.212   1.130
  114fsi     F1 1518   1.624   2.182   0.514
  114fsi     S1 1519   1.523   2.075   0.460
  114fsi      N 1520   1.428   2.057   0.585
  114fsi     O1 1521   1.463   2.139   0.346
  114fsi     O2 1522   1.608   1.963   0.440
  114fsi     S2 1523   1.274   2.085   0.603
  114fsi     O3 1524   1.206   2.148   0.494
  114fsi     O4 1525   1.247   2.138   0.733
  114fsi     F2 1526   1.212   1.943   0.605
  115fsi     F1 1527   0.655   1.341   1.384
  115fsi     S1 1528   0.762   1.425   1.461
  115fsi      N 1529   0.673   1.538   1.523
  115fsi     O1 1530   0.815   1.329   1.554
  115fsi     O2 1531   0.847   1.474   1.359
  115fsi     S2 1532   0.630   1.569   1.671
  115fsi     O3 1533   0.609   1.448   1.745
  115fsi     O4 1534   0.525   1.667   1.673
  115fsi     F2 1535   0.755   1.641   1.732
  116fsi     F1 1536   1.826   2.408   0.541
  116fsi     S1 1537   1.978   2.436   0.554
  116fsi      N 1538   2.027   2.460   0.406
  116fsi     O1 1539   1.982   2.553   0.637
  116fsi     O2 1540   2.030   2.314   0.610
  116fsi     S2 1541   2.086   2.586   0.335
  116fsi     O3 1542   2.025   2.713   0.364
  116fsi     O4 1543   2.120   2.563   0.198
  116fsi     F2 1544   2.226   2.600   0.404
  117fsi     F1 1545   2.489   2.392   2.620
  117fsi     S1 1546   2.352   2.337   2.569
  117fsi      N 1547   2.272   2.323   2.702
  117fsi     O1 1548   2.305   2.440   2.479
  117fsi     O2 1549   2.388   2.212   2.510
  117fsi     S2 1550   2.226   2.440   2.796
  117fsi     O3 1551   2.252   2.571   2.745
  117fsi     O4 1552   2.255   2.418   2.935
  117fsi     F2 1553   2.070   2.433   2.791
  118fsi     F1 1554   2.122   0.387   0.219
  118fsi     S1 1555   1.992   0.299   0.204
  118fsi      N 1556   2.024   0.175   0.295
  118fsi     O1 1557   1.886   0.383   0.251
  118fsi     O2 1558   1.990   0.265   0.064
  118fsi     S2 1559   2.037   0.168   0.450
  118fsi     O3 1560   2.090   0.286   0.513
  118fsi     O4 1561   2.095   0.043   0.491
  118fsi     F2 1562   1.889   0.159   0.501
  119fsi     F1 1563   2.024   0.766   2.786
  119fsi     S1 1564   1.984   0.643   2.872
  119fsi      N 1565   2.112   0.554   2.859
  119fsi     O1 1566   1.958   0.696   3.003
  119fsi     O2 1567   1.874   0.586   2.800
  119fsi     S2 1568   2.228   0.526   2.962
  119fsi     O3 1569   2.208   0.576   3.094
  119fsi     O4 1570   2.358   0.551   2.906
  119fsi     F2 1571   2.223   0.370   2.979
  120fsi     F1 1572   1.503   0.168   0.515
  120fsi     S1 1573   1.505   0.238   0.654
  120fsi      N 1574   1.650   0.296   0.662
  120fsi     O1 1575   1.398   0.333   0.651
  120fsi     O2 1576   1.487   0.124   0.741
  120fsi     S2 1577   1.705   0.436   0.617
  120fsi     O3 1578   1.671   0.473   0.483
  120fsi     O4 1579   1.840   0.457   0.661
  120fsi     F2 1580   1.624   0.536   0.707
  121fsi     F1 1581   2.665   0.494   2.884
  121fsi     S1 1582   2.707   0.613   2.790
  121fsi      N 1583   2.775   0.712   2.890
  121fsi     O1 1584   2.793   0.551   2.692
  121fsi     O2 1585   2.581   0.668   2.747
  121fsi     S2 1586   2.928   0.739   2.907
  121fsi     O3 1587   3.006   0.623   2.943
  121fsi     O4 1588   2.954   0.860   2.981
  121fsi     F2 1589   2.972   0.776   2.761
  122fsi     F1 1590   2.469   1.556   0.756
  122fsi     S1 1591   2.476   1.649   0.631
  122fsi      N 1592   2.328   1.680   0.599
  122fsi     O1 1593   2.559   1.756   0.677
  122fsi     O2 1594   2.536   1.559   0.536
  122fsi     S2 1595   2.240   1.804   0.640
  122fsi     O3 1596   2.307   1.899   0.725
  122fsi     O4 1597   2.107   1.765   0.677
  122fsi     F2 1598   2.225   1.880   0.505
  123fsi     F1 1599   2.538   0.798   0.689
  123fsi     S1 1600   2.578   0.819   0.839
  123fsi      N 1601   2.720   0.754   0.842
  123fsi     O1 1602   2.575   0.962   0.852
  123fsi     O2 1603   2.476   0.746   0.910
  123fsi     S2 1604   2.845   0.800   0.761
  123fsi     O3 1605   2.812   0.851   0.630
  123fsi     O4 1606   2.955   0.707   0.765
  123fsi     F2 1607   2.897   0.924   0.842
  124fsi     F1 1608   2.154   1.369   1.787
  124fsi     S1 1609   2.018   1.312   1.837
  124fsi      N 1610   2.061   1.226   1.960
  124fsi     O1 1611   1.940   1.426   1.870
  124fsi     O2 1612   1.977   1.228   1.728
  124fsi     S2 1613   2.013   1.240   2.107
  124fsi     O3 1614   2.040   1.366   2.171
  124fsi     O4 1615   2.040   1.119   2.180
  124fsi     F2 1616   1.858   1.240   2.094
  125fsi     F1 1617   0.875   0.779   1.619
  125fsi     S1 1618   0.906   0.635   1.567
  125fsi      N 1619   1.056   0.637   1.523
  125fsi     O1 1620   0.874   0.549   1.677
  125fsi     O2 1621   0.820   0.624   1.452
  125fsi     S2 1622   1.185   0.616   1.609
  125fsi     O3 1623   1.166   0.628   1.750
  125fsi     O4 1624   1.296   0.681   1.546
  125fsi     F2 1625   1.217   0.465   1.594
  126fsi     F1 1626   0.624   0.677   0.258
  126fsi     S1 1627   0.504   0.778   0.254
  126fsi      N 1628   0.571   0.915   0.296
  126fsi     O1 1629   0.456   0.773   0.119
  126fsi     O2 1630   0.415   0.729   0.356
  126fsi     S2 1631   0.633   1.024   0.202
  126fsi     O3 1632   0.719   0.974   0.100
  126fsi     O4 1633   0.682   1.131   0.285
  126fsi     F2 1634   0.509   1.088   0.128
  127fsi     F1 1635   0.647   2.784   0.130
  127fsi     S1 1636   0.521   2.856   0.189
  127fsi      N 1637   0.413   2.744   0.186
  127fsi     O1 1638   0.559   2.898   0.322
  127fsi     O2 1639   0.495   2.959   0.092
  127fsi     S2 1640   0.393   2.624   0.285
  127fsi     O3 1641   0.513   2.581   0.353
  127fsi     O4 1642   0.307   2.524   0.230
  127fsi     F2 1643   0.306   2.687   0.400
  128fsi     F1 1644   2.767   2.378   0.777
  128fsi     S1 1645   2.817   2.472   0.893
  128fsi      N 1646   2.789   2.382   1.019
  128fsi     O1 1647   2.955   2.495   0.861
  128fsi     O2 1648   2.727   2.584   0.884
  128fsi     S2 1649   2.883   2.296   1.110
  128fsi     O3 1650   3.010   2.262   1.053
  128fsi     O4 1651   2.807   2.187   1.167
  128fsi     F2 1652   2.912   2.389   1.233
  129fsi     F1 1653   0.989   1.784   2.430
  129fsi     S1 1654   1.124   1.848   2.480
  129fsi      N 1655   1.227   1.767   2.398
  129fsi     O1 1656   1.114   1.987   2.440
  129fsi     O2 1657   1.123   1.816   2.620
  129fsi     S2 1658   1.238   1.758   2.243
  129fsi     O3 1659   1.149   1.850   2.177
  129fsi     O4 1660   1.237   1.622   2.200
  129fsi     F2 1661   1.378   1.814   2.205
  130fsi     F1 1662   1.791   2.899   2.725
  130fsi     S1 1663   1.774   2.744   2.738
  130fsi      N 1664   1.742   2.701   2.591
  130fsi     O1 1665   1.900   2.698   2.790
  130fsi     O2 1666   1.656   2.730   2.821
  130fsi     S2 1667   1.835   2.629   2.487
  130fsi     O3 1668   1.962   2.694   2.468
  130fsi     O4 1669   1.764   2.591   2.369
  130fsi     F2 1670   1.868   2.492   2.555
  131fsi     F1 1671   1.790   2.599   1.486
  131fsi     S1 1672   1.911   2.656   1.566
  131fsi      N 1673   1.930   2.793   1.494
  131fsi     O1 1674   1.863   2.656   1.702
  131fsi     O2 1675   2.019   2.566   1.535
  131fsi     S2 1676   1.892   2.939   1.536
  131fsi     O3 1677   1.819   2.949   1.659
  131fsi     O4 1678   1.842   3.008   1.420
  131fsi     F2 1679   2.031   3.006   1.565
  132fsi     F1 1680   2.026   0.346   1.690
  132fsi     S1 1681   1.959   0.362   1.550
  132fsi      N 1682   1.831   0.271   1.558
  132fsi     O1 1683   1.927   0.502   1.535
  132fsi     O2 1684   2.052   0.307   1.456
  132fsi     S2 1685   1.692   0.309   1.618
  132fsi     O3 1686   1.705   0.376   1.744
  132fsi     O4 1687   1.591   0.209   1.602
  132fsi     F2 1688   1.640   0.420   1.520
  133fsi     F1 1689   0.826   1.653   0.936
  133fsi     S1 1690   0.802   1.802   0.967
  133fsi      N 1691   0.943   1.857   1.000
  133fsi     O1 1692   0.747   1.855   0.847
  133fsi     O2 1693   0.715   1.797   1.081
  133fsi     S2 1694   1.058   1.886   0.898
  133fsi     O3 1695   1.070   1.787   0.795
  133fsi     O4 1696   1.178   1.931   0.964
  133fsi     F2 1697   1.005   2.014   0.824
  134fsi     F1 1698   3.027   2.578   2.513
  134fsi     S1 1699   2.956   2.438   2.498
  134fsi      N 1700   2.803   2.475   2.499
  134fsi     O1 1701   3.001   2.386   2.372
  134fsi     O2 1702   2.995   2.368   2.617
  134fsi     S2 1703   2.726   2.545   2.383
  134fsi     O3 1704   2.798   2.655   2.326
  134fsi     O4 1705   2.587   2.565   2.410
  134fsi     F2 1706   2.723   2.433   2.273
  135fsi     F1 1707   0.373   2.655   2.528
  135fsi     S1 1708   0.528   2.646   2.510
  135fsi      N 1709   0.558   2.767   2.415
  135fsi     O1 1710   0.581   2.663   2.643
  135fsi     O2 1711   0.546   2.519   2.446
  135fsi     S2 1712   0.574   2.917   2.456
  135fsi     O3 1713   0.523   2.949   2.586
  135fsi     O4 1714   0.537   3.000   2.344
  135fsi     F2 1715   0.729   2.935   2.468
  136fsi     F1 1716   0.082   2.801   2.107
  136fsi     S1 1717   0.212   2.841   2.188
  136fsi      N 1718   0.269   2.706   2.242
  136fsi     O1 1719   0.301   2.900   2.092
  136fsi     O2 1720   0.164   2.925   2.293
  136fsi     S2 1721   0.315   2.579   2.162
  136fsi     O3 1722   0.284   2.582   2.022
  136fsi     O4 1723   0.294   2.457   2.234
  136fsi     F2 1724   0.472   2.596   2.163
  137fsi     F1 1725   1.910   0.297   2.624
  137fsi     S1 1726   2.044   0.216   2.631
  137fsi      N 1727   2.027   0.106   2.520
  137fsi     O1 1728   2.144   0.316   2.605
  137fsi     O2 1729   2.040   0.159   2.763
  137fsi     S2 1730   2.059   0.117   2.366
  137fsi     O3 1731   2.043   0.248   2.310
  137fsi     O4 1732   2.001   0.006   2.296
  137fsi     F2 1733   2.212   0.084   2.360
  138fsi     F1 1734   0.337   0.399   1.258
  138fsi     S1 1735   0.372   0.263   1.185
  138fsi      N 1736   0.496   0.303   1.097
  138fsi     O1 1737   0.404   0.173   1.292
  138fsi     O2 1738   0.257   0.236   1.105
  138fsi     S2 1739   0.642   0.329   1.145
  138fsi     O3 1740   0.648   0.422   1.255
  138fsi     O4 1741   0.733   0.353   1.036
  138fsi     F2 1742   0.688   0.191   1.204
  139fsi     F1 1743   0.945   1.552   0.174
  139fsi     S1 1744   0.936   1.397   0.167
  139fsi      N 1745   1.083   1.362   0.132
  139fsi     O1 1746   0.890   1.358   0.297
  139fsi     O2 1747   0.846   1.382   0.055
  139fsi     S2 1748   1.209   1.376   0.225
  139fsi     O3 1749   1.187   1.455   0.344
  139fsi     O4 1750   1.330   1.399   0.151
  139fsi     F2 1751   1.223   1.229   0.280
  140fsi     F1 1752   1.415   1.550   2.440
  140fsi     S1 1753   1.443   1.405   2.490
  140fsi      N 1754   1.394   1.314   2.372
  140fsi     O1 1755   1.585   1.403   2.512
  140fsi     O2 1756   1.357   1.394   2.605
  140fsi     S2 1757   1.481   1.245   2.260
  140fsi     O3 1758   1.593   1.320   2.213
  140fsi     O4 1759   1.404   1.175   2.162
  140fsi     F2 1760   1.547   1.126   2.337
  141fsi     F1 1761   1.630   1.904   2.933
  141fsi     S1 1762   1.783   1.928   2.915
  141fsi      N 1763   1.789   2.054   2.823
  141fsi     O1 1764   1.837   1.946   3.046
  141fsi     O2 1765   1.829   1.817   2.837
  141fsi     S2 1766   1.833   2.201   2.848
  141fsi     O3 1767   1.742   2.280   2.926
  141fsi     O4 1768   1.876   2.255   2.723
  141fsi     F2 1769   1.966   2.191   2.932
  142fsi     F1 1770   2.421   2.979   1.412
  142fsi     S1 1771   2.472   2.836   1.374
  142fsi      N 1772   2.535   2.853   1.231
  142fsi     O1 1773   2.564   2.801   1.478
  142fsi     O2 1774   2.350   2.761   1.370
  142fsi     S2 1775   2.685   2.872   1.188
  142fsi     O3 1776   2.772   2.925   1.289
  142fsi     O4 1777   2.695   2.926   1.055
  142fsi     F2 1778   2.735   2.724   1.170
  143fsi     F1 1779   0.831   0.824   1.900
  143fsi     S1 1780   0.973   0.866   1.949
  143fsi      N 1781   1.054   0.872   1.818
  143fsi     O1 1782   0.951   0.994   2.009
  143fsi     O2 1783   1.011   0.762   2.040
  143fsi     S2 1784   1.116   0.998   1.752
  143fsi     O3 1785   1.018   1.090   1.700
  143fsi     O4 1786   1.223   0.962   1.665
  143fsi     F2 1787   1.185   1.071   1.871
  144fsi     F1 1788   1.433   2.175   2.397
  144fsi     S1 1789   1.402   2.295   2.304
  144fsi      N 1790   1.334   2.397   2.401
  144fsi     O1 1791   1.530   2.340   2.257
  144fsi     O2 1792   1.309   2.241   2.207
  144fsi     S2 1793   1.390   2.532   2.455
  144fsi     O3 1794   1.509   2.523   2.535
  144fsi     O4 1795   1.289   2.620   2.507
  144fsi     F2 1796   1.434   2.607   2.325
  145fsi     F1 1797   0.957   1.428   1.877
  145fsi     S1 1798   0.913   1.496   2.011
  145fsi      N 1799   0.933   1.386   2.122
  145fsi     O1 1800   0.997   1.612   2.026
  145fsi     O2 1801   0.774   1.521   1.988
  145fsi     S2 1802   1.063   1.311   2.167
  145fsi     O3 1803   1.168   1.319   2.071
  145fsi     O4 1804   1.035   1.181   2.222
  145fsi     F2 1805   1.109   1.392   2.293
  146fsi     F1 1806   2.609   1.676   2.244
  146fsi     S1 1807   2.700   1.643   2.368
  146fsi      N 1808   2.819   1.566   2.301
  146fsi     O1 1809   2.734   1.770   2.424
  146fsi     O2 1810   2.619   1.560   2.451
  146fsi     S2 1811   2.949   1.629   2.239
  146fsi     O3 1812   2.935   1.765   2.196
  146fsi     O4 1813   3.015   1.537   2.150
  146fsi     F2 1814   3.044   1.638   2.363
  147fsi     F1 1815   1.383   0.476   1.855
  147fsi     S1 1816   1.488   0.593   1.856
  147fsi      N 1817   1.409   0.717   1.908
  147fsi     O1 1818   1.588   0.550   1.950
  147fsi     O2 1819   1.525   0.606   1.718
  147fsi     S2 1820   1.353   0.738   2.052
  147fsi     O3 1821   1.297   0.621   2.112
  147fsi     O4 1822   1.279   0.860   2.065
  147fsi     F2 1823   1.483   0.766   2.138
  148fsi     F1 1824   1.435   1.617   1.761
  148fsi     S1 1825   1.320   1.586   1.863
  148fsi      N 1826   1.204   1.551   1.766
  148fsi     O1 1827   1.371   1.477   1.940
  148fsi     O2 1828   1.297   1.711   1.928
  148fsi     S2 1829   1.203   1.429   1.670
  148fsi     O3 1830   1.328   1.395   1.610
  148fsi     O4 1831   1.088   1.427   1.584
  148fsi     F2 1832   1.172   1.313   1.766
  149fsi     F1 1833   0.394   1.513   2.493
  149fsi     S1 1834   0.250   1.561   2.453
  149fsi      N 1835   0.223   1.680   2.551
  149fsi     O1 1836   0.259   1.599   2.314
  149fsi     O2 1837   0.168   1.446   2.483
  149fsi     S2 1838   0.284   1.825   2.549
  149fsi     O3 1839   0.407   1.842   2.479
  149fsi     O4 1840   0.273   1.887   2.678
  149fsi     F2 1841   0.180   1.907   2.462
  150fsi     F1 1842   0.644   2.166   1.180
  150fsi     S1 1843   0.632   2.168   1.024
  150fsi      N 1844   0.519   2.062   0.996
  150fsi     O1 1845   0.594   2.302   0.987
  150fsi     O2 1846   0.761   2.124   0.980
  150fsi     S2 1847   0.368   2.087   0.962
  150fsi     O3 1848   0.305   2.194   1.034
  150fsi     O4 1849   0.295   1.965   0.950
  150fsi     F2 1850   0.375   2.141   0.815
  151fsi     F1 1851   2.350   1.986   0.999
  151fsi     S1 1852   2.500   2.029   1.013
  151fsi      N 1853   2.572   1.923   1.101
  151fsi     O1 1854   2.556   2.032   0.880
  151fsi     O2 1855   2.497   2.157   1.077
  151fsi     S2 1856   2.594   1.773   1.068
  151fsi     O3 1857   2.502   1.714   0.976
  151fsi     O4 1858   2.628   1.696   1.184
  151fsi     F2 1859   2.730   1.775   0.989
  152fsi     F1 1860   0.868   2.828   0.310
  152fsi     S1 1861   0.928   2.940   0.218
  152fsi      N 1862   1.039   3.006   0.307
  152fsi     O1 1863   0.982   2.873   0.103
  152fsi     O2 1864   0.820   3.030   0.193
  152fsi     S2 1865   1.179   2.945   0.340
  152fsi     O3 1866   1.175   2.802   0.353
  152fsi     O4 1867   1.253   3.018   0.440
  152fsi     F2 1868   1.261   2.971   0.208
  153fsi     F1 1869   0.566   0.805   2.299
  153fsi     S1 1870   0.688   0.728   2.239
  153fsi      N 1871   0.622   0.645   2.124
  153fsi     O1 1872   0.778   0.832   2.198
  153fsi     O2 1873   0.732   0.646   2.348
  153fsi     S2 1874   0.530   0.694   2.006
  153fsi     O3 1875   0.501   0.835   2.007
  153fsi     O4 1876   0.420   0.604   1.987
  153fsi     F2 1877   0.617   0.669   1.878
  154fsi     F1 1878   3.040   0.634   1.265
  154fsi     S1 1879   2.952   0.648   1.135
  154fsi      N 1880   3.006   0.533   1.044
  154fsi     O1 1881   2.819   0.630   1.182
  154fsi     O2 1882   2.987   0.779   1.086
  154fsi     S2 1883   2.937   0.400   0.998
  154fsi     O3 1884   2.858   0.334   1.098
  154fsi     O4 1885   3.026   0.318   0.920
  154fsi     F2 1886   2.832   0.449   0.891
  155fsi     F1 1887   1.396   1.820   0.757
  155fsi     S1 1888   1.426   1.693   0.671
  155fsi      N 1889   1.576   1.664   0.708
  155fsi     O1 1890   1.330   1.598   0.717
  155fsi     O2 1891   1.405   1.734   0.535
  155fsi     S2 1892   1.633   1.581   0.828
  155fsi     O3 1893   1.534   1.529   0.916
  155fsi     O4 1894   1.749   1.642   0.887
  155fsi     F2 1895   1.690   1.454   0.758
  156fsi     F1 1896   1.524   0.829   1.155
  156fsi     S1 1897   1.507   0.679   1.194
  156fsi      N 1898   1.355   0.665   1.224
  156fsi     O1 1899   1.543   0.608   1.076
  156fsi     O2 1900   1.592   0.663   1.310
  156fsi     S2 1901   1.244   0.682   1.115
  156fsi     O3 1902   1.267   0.796   1.031
  156fsi     O4 1903   1.112   0.656   1.163
  156fsi     F2 1904   1.269   0.560   1.018
  157fsi     F1 1905   1.264   1.917   0.033
  157fsi     S1 1906   1.264   1.797   0.133
  157fsi      N 1907   1.402   1.727   0.105
  157fsi     O1 1908   1.251   1.857   0.262
  157fsi     O2 1909   1.152   1.718   0.088
  157fsi     S2 1910   1.544   1.787   0.134
  157fsi     O3 1911   1.552   1.930   0.124
  157fsi     O4 1912   1.647   1.708   0.072
  157fsi     F2 1913   1.563   1.754   0.284
  158fsi     F1 1914   0.206   2.272   0.357
  158fsi     S1 1915   0.322   2.204   0.440
  158fsi      N 1916   0.395   2.110   0.339
  158fsi     O1 1917   0.402   2.313   0.491
  158fsi     O2 1918   0.251   2.130   0.540
  158fsi     S2 1919   0.462   2.144   0.200
  158fsi     O3 1920   0.407   2.257   0.132
  158fsi     O4 1921   0.483   2.025   0.122
  158fsi     F2 1922   0.608   2.190   0.240
  159fsi     F1 1923   2.010   1.490   1.585
  159fsi     S1 1924   1.890   1.468   1.488
  159fsi      N 1925   1.846   1.616   1.463
  159fsi     O1 1926   1.949   1.401   1.375
  159fsi     O2 1927   1.796   1.393   1.566
  159fsi     S2 1928   1.918   1.722   1.374
  159fsi     O3 1929   2.038   1.677   1.310
  159fsi     O4 1930   1.917   1.853   1.434
  159fsi     F2 1931   1.820   1.739   1.255
  160fsi     F1 1932   2.617   0.658   1.757
  160fsi     S1 1933   2.635   0.812   1.781
  160fsi      N 1934   2.791   0.828   1.792
  160fsi     O1 1935   2.575   0.875   1.667
  160fsi     O2 1936   2.573   0.836   1.908
  160fsi     S2 1937   2.903   0.823   1.682
  160fsi     O3 1938   2.859   0.802   1.547
  160fsi     O4 1939   3.019   0.750   1.727
  160fsi     F2 1940   2.954   0.972   1.681
  161fsi     F1 1941   1.253   0.231   2.574
  161fsi     S1 1942   1.118   0.153   2.564
  161fsi      N 1943   1.121   0.060   2.690
  161fsi     O1 1944   1.016   0.253   2.568
  161fsi     O2 1945   1.132   0.078   2.441
  161fsi     S2 1946   1.113   0.106   2.840
  161fsi     O3 1947   1.150   0.242   2.866
  161fsi     O4 1948   1.165   0.005   2.928
  161fsi     F2 1949   0.958   0.102   2.870
  162fsi     F1 1950   1.140   2.965   1.525
  162fsi     S1 1951   1.206   2.891   1.402
  162fsi      N 1952   1.348   2.954   1.393
  162fsi     O1 1953   1.202   2.753   1.439
  162fsi     O2 1954   1.124   2.928   1.291
  162fsi     S2 1955   1.484   2.907   1.456
  162fsi     O3 1956   1.489   2.772   1.505
  162fsi     O4 1957   1.538   3.009   1.541
  162fsi     F2 1958   1.580   2.904   1.332
  163fsi     F1 1959   2.111   0.620   0.798
  163fsi     S1 1960   2.225   0.623   0.692
  163fsi      N 1961   2.153   0.580   0.560
  163fsi     O1 1962   2.273   0.758   0.694
  163fsi     O2 1963   2.313   0.521   0.739
  163fsi     S2 1964   2.076   0.670   0.456
  163fsi     O3 1965   2.076   0.810   0.484
  163fsi     O4 1966   1.952   0.612   0.414
  163fsi     F2 1967   2.166   0.660   0.328
  164fsi     F1 1968   2.482   0.559   0.224
  164fsi     S1 1969   2.535   0.704   0.247
  164fsi      N 1970   2.682   0.684   0.298
  164fsi     O1 1971   2.524   0.764   0.116
  164fsi     O2 1972   2.454   0.755   0.354
  164fsi     S2 1973   2.807   0.655   0.209
  164fsi     O3 1974   2.777   0.587   0.086
  164fsi     O4 1975   2.922   0.610   0.282
  164fsi     F2 1976   2.850   0.799   0.165
  165fsi     F1 1977   1.899   1.046   0.845
  165fsi     S1 1978   1.983   0.915   0.831
  165fsi      N 1979   1.970   0.845   0.971
  165fsi     O1 1980   1.921   0.841   0.725
  165fsi     O2 1981   2.117   0.961   0.810
  165fsi     S2 1982   1.852   0.752   1.012
  165fsi     O3 1983   1.727   0.786   0.951
  165fsi     O4 1984   1.850   0.726   1.154
  165fsi     F2 1985   1.890   0.613   0.950
  166fsi     F1 1986   1.979   2.379   0.911
  166fsi     S1 1987   2.117   2.437   0.953
  166fsi      N 1988   2.079   2.582   1.002
  166fsi     O1 1989   2.165   2.352   1.057
  166fsi     O2 1990   2.195   2.434   0.832
  166fsi     S2 1991   2.038   2.628   1.146
  166fsi     O3 1992   1.957   2.537   1.221
  166fsi     O4 1993   2.000   2.766   1.156
  166fsi     F2 1994   2.173   2.624   1.221
  167fsi     F1 1995   0.375   1.120   2.589
  167fsi     S1 1996   0.391   0.971   2.539
  167fsi      N 1997   0.331   0.885   2.654
  167fsi     O1 1998   0.313   0.965   2.417
  167fsi     O2 1999   0.533   0.956   2.528
  167fsi     S2 2000   0.183   0.885   2.704
  167fsi     O3 2001   0.118   1.013   2.703
  167fsi     O4 2002   0.168   0.801   2.820
  167fsi     F2 2003   0.108   0.805   2.590
  168fsi     F1 2004   0.442   2.335   1.224
  168fsi     S1 2005   0.451   2.479   1.279
  168fsi      N 2006   0.315   2.542   1.236
  168fsi     O1 2007   0.467   2.458   1.421
  168fsi     O2 2008   0.559   2.541   1.207
  168fsi     S2 2009   0.171   2.514   1.289
  168fsi     O3 2010   0.162   2.426   1.403
  168fsi     O4 2011   0.078   2.496   1.181
  168fsi     F2 2012   0.130   2.654   1.347
  169fsi     F1 2013   1.633   1.498   0.273
  169fsi     S1 2014   1.686   1.474   0.418
  169fsi      N 2015   1.784   1.355   0.396
  169fsi     O1 2016   1.748   1.597   0.457
  169fsi     O2 2017   1.567   1.434   0.488
  169fsi     S2 2018   1.927   1.362   0.336
  169fsi     O3 2019   2.005   1.479   0.365
  169fsi     O4 2020   1.935   1.308   0.203
  169fsi     F2 2021   1.998   1.254   0.424
  170fsi     F1 2022   2.173   2.290   1.324
  170fsi     S1 2023   2.074   2.170   1.299
  170fsi      N 2024   2.029   2.141   1.446
  170fsi     O1 2025   1.971   2.230   1.220
  170fsi     O2 2026   2.159   2.074   1.236
  170fsi     S2 2027   1.912   2.203   1.530
  170fsi     O3 2028   1.862   2.325   1.475
  170fsi     O4 2029   1.940   2.211   1.670
  170fsi     F2 2030   1.794   2.102   1.517
  171fsi     F1 2031   2.429   2.159   1.864
  171fsi     S1 2032   2.423   2.002   1.873
  171fsi      N 2033   2.270   1.972   1.864
  171fsi     O1 2034   2.503   1.955   1.764
  171fsi     O2 2035   2.470   1.974   2.006
  171fsi     S2 2036   2.184   1.965   1.733
  171fsi     O3 2037   2.223   2.070   1.643
  171fsi     O4 2038   2.044   1.947   1.757
  171fsi     F2 2039   2.231   1.831   1.668
  172fsi     F1 2040   1.614   2.252   2.010
  172fsi     S1 2041   1.626   2.114   1.939
  172fsi      N 2042   1.486   2.053   1.961
  172fsi     O1 2043   1.661   2.149   1.805
  172fsi     O2 2044   1.726   2.047   2.015
  172fsi     S2 2045   1.369   2.039   1.859
  172fsi     O3 2046   1.363   2.140   1.759
  172fsi     O4 2047   1.251   2.006   1.931
  172fsi     F2 2048   1.401   1.911   1.778
  173fsi     F1 2049   0.612   0.835   1.508
  173fsi     S1 2050   0.569   0.959   1.594
  173fsi      N 2051   0.416   0.968   1.565
  173fsi     O1 2052   0.604   0.924   1.728
  173fsi     O2 2053   0.634   1.073   1.535
  173fsi     S2 2054   0.300   0.902   1.647
  173fsi     O3 2055   0.339   0.783   1.717
  173fsi     O4 2056   0.181   0.901   1.568
  173fsi     F2 2057   0.271   1.008   1.760
  174fsi     F1 2058   1.009   2.171   0.289
  174fsi     S1 2059   1.050   2.221   0.147
  174fsi      N 2060   0.955   2.344   0.125
  174fsi     O1 2061   1.188   2.259   0.159
  174fsi     O2 2062   1.015   2.112   0.060
  174fsi     S2 2063   0.969   2.487   0.187
  174fsi     O3 2064   1.028   2.492   0.318
  174fsi     O4 2065   0.850   2.565   0.166
  174fsi     F2 2066   1.075   2.557   0.095
  175fsi     F1 2067   1.998   1.690   0.114
  175fsi     S1 2068   2.093   1.790   0.188
  175fsi      N 2069   2.225   1.707   0.208
  175fsi     O1 2070   2.108   1.899   0.095
  175fsi     O2 2071   2.025   1.816   0.311
  175fsi     S2 2072   2.372   1.742   0.168
  175fsi     O3 2073   2.392   1.826   0.053
  175fsi     O4 2074   2.459   1.628   0.177
  175fsi     F2 2075   2.420   1.831   0.288
  176fsi     F1 2076   2.404   2.588   0.141
  176fsi     S1 2077   2.448   2.731   0.191
  176fsi      N 2078   2.514   2.700   0.330
  176fsi     O1 2079   2.538   2.775   0.088
  176fsi     O2 2080   2.324   2.803   0.205
  176fsi     S2 2081   2.663   2.662   0.362
  176fsi     O3 2082   2.733   2.597   0.254
  176fsi     O4 2083   2.676   2.604   0.493
  176fsi     F2 2084   2.734   2.802   0.377
  177fsi     F1 2085   2.821   0.851   2.522
  177fsi     S1 2086   2.801   0.772   2.387
  177fsi      N 2087   2.768   0.886   2.285
  177fsi     O1 2088   2.927   0.706   2.364
  177fsi     O2 2089   2.685   0.691   2.409
  177fsi     S2 2090   2.861   0.964   2.187
  177fsi     O3 2091   3.001   0.972   2.223
  177fsi     O4 2092   2.797   1.086   2.145
  177fsi     F2 2093   2.861   0.875   2.060
  178fsi     F1 2094   2.022   1.659   2.152
  178fsi     S1 2095   2.090   1.797   2.127
  178fsi      N 2096   2.232   1.755   2.077
  178fsi     O1 2097   2.012   1.864   2.029
  178fsi     O2 2098   2.089   1.858   2.256
  178fsi     S2 2099   2.248   1.646   1.966
  178fsi     O3 2100   2.146   1.641   1.867
  178fsi     O4 2101   2.296   1.526   2.025
  178fsi     F2 2102   2.373   1.696   1.885
  179fsi     F1 2103   1.025   1.272   0.753
  179fsi     S1 2104   1.018   1.412   0.820
  179fsi      N 2105   0.897   1.396   0.917
  179fsi     O1 2106   1.144   1.424   0.887
  179fsi     O2 2107   0.994   1.497   0.707
  179fsi     S2 2108   0.899   1.316   1.050
  179fsi     O3 2109   0.969   1.191   1.037
  179fsi     O4 2110   0.772   1.312   1.117
  179fsi     F2 2111   0.991   1.404   1.142
  180fsi     F1 2112   1.312   1.356   1.331
  180fsi     S1 2113   1.281   1.204   1.310
  180fsi      N 2114   1.419   1.131   1.296
  180fsi     O1 2115   1.206   1.167   1.427
  180fsi     O2 2116   1.210   1.202   1.186
  180fsi     S2 2117   1.489   1.041   1.402
  180fsi     O3 2118   1.465   1.078   1.537
  180fsi     O4 2119   1.621   0.995   1.369
  180fsi     F2 2120   1.406   0.910   1.389
  181fsi     F1 2121   1.595   1.774   2.603
  181fsi     S1 2122   1.556   1.920   2.560
  181fsi      N 2123   1.695   1.991   2.543
  181fsi     O1 2124   1.485   1.905   2.438
  181fsi     O2 2125   1.484   1.973   2.672
  181fsi     S2 2126   1.767   2.044   2.415
  181fsi     O3 2127   1.736   1.981   2.292
  181fsi     O4 2128   1.906   2.068   2.445
  181fsi     F2 2129   1.711   2.189   2.403
  182fsi     F1 2130   2.477   0.387   2.676
  182fsi     S1 2131   2.504   0.243   2.621
  182fsi      N 2132   2.423   0.240   2.487
  182fsi     O1 2133   2.646   0.236   2.602
  182fsi     O2 2134   2.448   0.155   2.720
  182fsi     S2 2135   2.456   0.310   2.350
  182fsi     O3 2136   2.541   0.426   2.360
  182fsi     O4 2137   2.342   0.323   2.265
  182fsi     F2 2138   2.544   0.202   2.279
  183fsi     F1 2139   2.832   2.558   2.059
  183fsi     S1 2140   2.705   2.614   1.987
  183fsi      N 2141   2.764   2.739   1.915
  183fsi     O1 2142   2.658   2.506   1.905
  183fsi     O2 2143   2.621   2.656   2.096
  183fsi     S2 2144   2.871   2.743   1.800
  183fsi     O3 2145   2.907   2.614   1.748
  183fsi     O4 2146   2.976   2.833   1.836
  183fsi     F2 2147   2.796   2.813   1.682
  184fsi     F1 2148   1.306   2.194   1.027
  184fsi     S1 2149   1.199   2.304   1.055
  184fsi      N 2150   1.207   2.321   1.210
  184fsi     O1 2151   1.248   2.417   0.979
  184fsi     O2 2152   1.075   2.244   1.016
  184fsi     S2 2153   1.250   2.442   1.299
  184fsi     O3 2154   1.307   2.554   1.228
  184fsi     O4 2155   1.313   2.398   1.420
  184fsi     F2 2156   1.114   2.500   1.345
  185fsi     F1 2157   2.305   1.311   2.200
  185fsi     S1 2158   2.417   1.367   2.293
  185fsi      N 2159   2.462   1.240   2.372
  185fsi     O1 2160   2.521   1.407   2.202
  185fsi     O2 2161   2.351   1.467   2.373
  185fsi     S2 2162   2.435   1.093   2.325
  185fsi     O3 2163   2.490   1.066   2.195
  185fsi     O4 2164   2.302   1.049   2.354
  185fsi     F2 2165   2.526   1.009   2.422
  186fsi     F1 2166   0.968   2.672   1.567
  186fsi     S1 2167   0.958   2.538   1.648
  186fsi      N 2168   0.832   2.472   1.580
  186fsi     O1 2169   1.082   2.474   1.624
  186fsi     O2 2170   0.934   2.587   1.781
  186fsi     S2 2171   0.830   2.351   1.477
  186fsi     O3 2172   0.956   2.303   1.434
  186fsi     O4 2173   0.734   2.371   1.374
  186fsi     F2 2174   0.770   2.232   1.559
  187fsi     F1 2175   1.479   1.083   0.075
  187fsi     S1 2176   1.584   1.130   0.182
  187fsi      N 2177   1.663   0.997   0.213
  187fsi     O1 2178   1.654   1.234   0.113
  187fsi     O2 2179   1.502   1.167   0.294
  187fsi     S2 2180   1.813   0.953   0.188
  187fsi     O3 2181   1.879   1.010   0.075
  187fsi     O4 2182   1.829   0.811   0.208
  187fsi     F2 2183   1.888   1.014   0.311
  188fsi     F1 2184   3.062   0.101   1.442
  188fsi     S1 2185   2.984   0.235   1.468
  188fsi      N 2186   2.839   0.198   1.424
  188fsi     O1 2187   3.001   0.255   1.610
  188fsi     O2 2188   3.049   0.327   1.380
  188fsi     S2 2189   2.720   0.148   1.513
  188fsi     O3 2190   2.759   0.078   1.633
  188fsi     O4 2191   2.615   0.088   1.435
  188fsi     F2 2192   2.656   0.282   1.564
  189fsi     F1 2193   2.558   0.071   0.663
  189fsi     S1 2194   2.447   0.169   0.611
  189fsi      N 2195   2.509   0.311   0.632
  189fsi     O1 2196   2.425   0.131   0.474
  189fsi     O2 2197   2.335   0.152   0.700
  189fsi     S2 2198   2.564   0.411   0.525
  189fsi     O3 2199   2.635   0.352   0.415
  189fsi     O4 2200   2.618   0.531   0.582
  189fsi     F2 2201   2.429   0.461   0.462
  190fsi     F1 2202   1.589   1.771   1.906
  190fsi     S1 2203   1.713   1.679   1.925
  190fsi      N 2204   1.756   1.724   2.069
  190fsi     O1 2205   1.663   1.546   1.916
  190fsi     O2 2206   1.802   1.725   1.823
  190fsi     S2 2207   1.717   1.646   2.200
  190fsi     O3 2208   1.577   1.621   2.215
  190fsi     O4 2209   1.792   1.683   2.317
  190fsi     F2 2210   1.778   1.507   2.168
  191fsi     F1 2211   0.800   1.149   0.820
  191fsi     S1 2212   0.674   1.204   0.749
  191fsi      N 2213   0.637   1.081   0.661
  191fsi     O1 2214   0.581   1.231   0.856
  191fsi     O2 2215   0.718   1.312   0.667
  191fsi     S2 2216   0.555   0.958   0.706
  191fsi     O3 2217   0.575   0.919   0.842
  191fsi     O4 2218   0.562   0.856   0.606
  191fsi     F2 2219   0.407   1.009   0.699
  192fsi     F1 2220   1.598   2.818   2.309
  192fsi     S1 2221   1.710   2.922   2.279
  192fsi      N 2222   1.814   2.840   2.194
  192fsi     O1 2223   1.639   3.025   2.210
  192fsi     O2 2224   1.760   2.952   2.410
  192fsi     S2 2225   1.812   2.816   2.038
  192fsi     O3 2226   1.708   2.884   1.967
  192fsi     O4 2227   1.833   2.677   2.006
  192fsi     F2 2228   1.942   2.887   1.989
  193fsi     F1 2229   2.033   1.647   2.935
  193fsi     S1 2230   2.007   1.492   2.929
  193fsi      N 2231   1.855   1.478   2.966
  193fsi     O1 2232   2.042   1.459   2.794
  193fsi     O2 2233   2.097   1.443   3.029
  193fsi     S2 2234   1.728   1.479   2.871
  193fsi     O3 2235   1.755   1.526   2.738
  193fsi     O4 2236   1.610   1.528   2.936
  193fsi     F2 2237   1.694   1.328   2.854
  194fsi     F1 2238   1.116   0.387   0.125
  194fsi     S1 2239   1.152   0.242   0.172
  194fsi      N 2240   1.300   0.223   0.123
  194fsi     O1 2241   1.133   0.245   0.315
  194fsi     O2 2242   1.062   0.159   0.097
  194fsi     S2 2243   1.433   0.259   0.196
  194fsi     O3 2244   1.415   0.334   0.317
  194fsi     O4 2245   1.537   0.303   0.107
  194fsi     F2 2246   1.484   0.118   0.245
  195fsi     F1 2247   2.495   1.493   1.418
  195fsi     S1 2248   2.349   1.549   1.414
  195fsi      N 2249   2.379   1.701   1.433
  195fsi     O1 2250   2.305   1.503   1.285
  195fsi     O2 2251   2.290   1.489   1.530
  195fsi     S2 2252   2.337   1.823   1.344
  195fsi     O3 2253   2.301   1.790   1.209
  195fsi     O4 2254   2.423   1.936   1.364
  195fsi     F2 2255   2.204   1.870   1.410
  196fsi     F1 2256   1.714   0.937   2.454
  196fsi     S1 2257   1.761   1.009   2.586
  196fsi      N 2258   1.902   1.066   2.546
  196fsi     O1 2259   1.661   1.107   2.611
  196fsi     O2 2260   1.770   0.900   2.680
  196fsi     S2 2261   1.932   1.208   2.488
  196fsi     O3 2262   1.844   1.247   2.381
  196fsi     O4 2263   2.072   1.236   2.471
  196fsi     F2 2264   1.893   1.307   2.602
  197fsi     F1 2265   1.030   1.859   1.834
  197fsi     S1 2266   0.917   1.950   1.895
  197fsi      N 2267   0.982   2.090   1.918
  197fsi     O1 2268   0.813   1.949   1.796
  197fsi     O2 2269   0.888   1.890   2.022
  197fsi     S2 2270   1.032   2.192   1.809
  197fsi     O3 2271   1.052   2.137   1.678
  197fsi     O4 2272   1.129   2.284   1.861
  197fsi     F2 2273   0.905   2.279   1.795
  198fsi     F1 2274   2.450   0.043   1.811
  198fsi     S1 2275   2.384   0.176   1.859
  198fsi      N 2276   2.233   0.156   1.820
  198fsi     O1 2277   2.413   0.175   2.000
  198fsi     O2 2278   2.452   0.274   1.780
  198fsi     S2 2279   2.110   0.117   1.911
  198fsi     O3 2280   2.143   0.037   2.025
  198fsi     O4 2281   1.997   0.074   1.833
  198fsi     F2 2282   2.063   0.254   1.971
  199fsi     F1 2283   1.230   0.848   2.824
  199fsi     S1 2284   1.126   0.890   2.932
  199fsi      N 2285   0.998   0.923   2.848
  199fsi     O1 2286   1.115   0.774   3.016
  199fsi     O2 2287   1.184   1.008   2.990
  199fsi     S2 2288   0.883   0.828   2.798
  199fsi     O3 2289   0.911   0.688   2.803
  199fsi     O4 2290   0.822   0.878   2.678
  199fsi     F2 2291   0.771   0.849   2.907
  200fsi     F1 2292   2.552   0.601   1.184
  200fsi     S1 2293   2.500   0.665   1.318
  200fsi      N 2294   2.595   0.785   1.340
  200fsi     O1 2295   2.364   0.700   1.285
  200fsi     O2 2296   2.520   0.562   1.416
  200fsi     S2 2297   2.608   0.915   1.255
  200fsi     O3 2298   2.514   0.931   1.148
  200fsi     O4 2299   2.745   0.952   1.231
  200fsi     F2 2300   2.559   1.022   1.356
   3.08570   3.08570   3.08570
