created by fftool
 2300
    1Li      Li    1   1.110   1.435   2.936
    2Li      Li    2   0.734   2.806   2.128
    3Li      Li    3   1.463   1.737   0.817
    4Li      Li    4   1.183   2.780   1.797
    5Li      Li    5   0.443   0.377   0.414
    6Li      Li    6   2.491   1.142   2.573
    7Li      Li    7   0.315   1.521   1.255
    8Li      Li    8   0.997   0.242   0.888
    9Li      Li    9   2.926   2.222   2.667
   10Li      Li   10   0.150   1.423   1.132
   11Li      Li   11   1.962   1.229   1.005
   12Li      Li   12   2.718   1.428   1.520
   13Li      Li   13   0.176   1.669   2.758
   14Li      Li   14   2.504   0.628   2.323
   15Li      Li   15   0.714   0.761   1.333
   16Li      Li   16   0.556   1.745   1.727
   17Li      Li   17   2.890   1.402   1.244
   18Li      Li   18   0.805   1.678   2.799
   19Li      Li   19   1.645   2.066   2.398
   20Li      Li   20   0.743   2.697   1.548
   21Li      Li   21   2.086   2.846   2.007
   22Li      Li   22   2.072   0.269   0.416
   23Li      Li   23   1.683   0.743   2.827
   24Li      Li   24   0.149   2.262   1.658
   25Li      Li   25   0.415   2.155   1.112
   26Li      Li   26   2.548   2.740   2.150
   27Li      Li   27   1.895   1.284   0.789
   28Li      Li   28   2.315   0.336   2.499
   29Li      Li   29   0.264   0.589   2.254
   30Li      Li   30   1.542   0.574   2.827
   31Li      Li   31   1.385   1.997   0.140
   32Li      Li   32   0.695   2.217   0.481
   33Li      Li   33   2.358   2.214   0.320
   34Li      Li   34   0.473   0.896   2.113
   35Li      Li   35   2.397   1.641   1.524
   36Li      Li   36   1.851   1.068   0.812
   37Li      Li   37   0.708   0.206   0.322
   38Li      Li   38   2.569   1.778   1.543
   39Li      Li   39   0.283   0.991   2.534
   40Li      Li   40   1.319   1.395   1.439
   41Li      Li   41   0.906   0.873   2.151
   42Li      Li   42   2.937   2.728   1.665
   43Li      Li   43   0.177   0.759   2.135
   44Li      Li   44   2.902   0.269   1.038
   45Li      Li   45   1.107   0.435   0.965
   46Li      Li   46   1.171   1.613   0.157
   47Li      Li   47   2.254   1.769   1.632
   48Li      Li   48   2.936   1.545   1.870
   49Li      Li   49   0.410   1.094   2.388
   50Li      Li   50   2.788   2.349   0.260
   51c3c      N   51   1.026   0.347   1.943
   51c3c     C1   52   0.896   0.404   1.905
   51c3c     C2   53   1.102   0.446   2.021
   51c3c     C3   54   0.885   0.547   1.959
   51c3c     C4   55   1.020   0.574   2.035
   51c3c     C5   56   1.005   0.227   2.025
   51c3c     C6   57   1.102   0.311   1.822
   51c3c     H1   58   0.816   0.343   1.946
   51c3c     H2   59   0.888   0.406   1.796
   51c3c     H3   60   1.124   0.406   2.120
   51c3c     H4   61   1.196   0.468   1.969
   51c3c     H5   62   0.800   0.556   2.026
   51c3c     H6   63   0.871   0.618   1.878
   51c3c     H7   64   1.001   0.597   2.140
   51c3c     H8   65   1.073   0.659   1.991
   51c3c     H9   66   0.948   0.153   1.967
   51c3c    H10   67   1.101   0.184   2.053
   51c3c    H11   68   0.949   0.253   2.114
   51c3c    H12   69   1.198   0.269   1.850
   51c3c    H13   70   1.045   0.238   1.764
   51c3c     C7   71   1.124   0.437   1.737
   51c3c    H14   72   1.181   0.510   1.795
   51c3c    H15   73   1.028   0.479   1.709
   51c3c     C8   74   1.203   0.399   1.611
   51c3c    H16   75   1.146   0.326   1.554
   51c3c    H17   76   1.299   0.357   1.640
   51c3c    H18   77   1.219   0.488   1.551
   52c3c      N   78   1.056   0.394   0.335
   52c3c     C1   79   1.184   0.459   0.302
   52c3c     C2   80   0.945   0.486   0.307
   52c3c     C3   81   1.157   0.600   0.250
   52c3c     C4   82   1.001   0.618   0.253
   52c3c     C5   83   1.040   0.272   0.254
   52c3c     C6   84   1.055   0.358   0.478
   52c3c     H1   85   1.235   0.401   0.225
   52c3c     H2   86   1.246   0.464   0.391
   52c3c     H3   87   0.879   0.442   0.233
   52c3c     H4   88   0.890   0.505   0.399
   52c3c     H5   89   1.195   0.612   0.148
   52c3c     H6   90   1.206   0.674   0.313
   52c3c     H7   91   0.962   0.638   0.154
   52c3c     H8   92   0.973   0.701   0.318
   52c3c     H9   93   1.122   0.204   0.275
   52c3c    H10   94   0.946   0.224   0.278
   52c3c    H11   95   1.041   0.299   0.148
   52c3c    H12   96   0.960   0.310   0.502
   52c3c    H13   97   1.137   0.289   0.499
   52c3c     C7   98   1.071   0.484   0.563
   52c3c    H14   99   0.989   0.553   0.542
   52c3c    H15  100   1.166   0.532   0.538
   52c3c     C8  101   1.070   0.446   0.711
   52c3c    H16  102   1.152   0.378   0.732
   52c3c    H17  103   0.976   0.398   0.735
   52c3c    H18  104   1.082   0.536   0.771
   53c3c      N  105   1.112   1.752   0.736
   53c3c     C1  106   1.188   1.634   0.691
   53c3c     C2  107   1.022   1.713   0.846
   53c3c     C3  108   1.148   1.512   0.774
   53c3c     C4  109   1.039   1.564   0.876
   53c3c     C5  110   1.205   1.855   0.783
   53c3c     C6  111   1.032   1.804   0.624
   53c3c     H1  112   1.295   1.653   0.703
   53c3c     H2  113   1.167   1.615   0.586
   53c3c     H3  114   1.047   1.771   0.935
   53c3c     H4  115   0.919   1.733   0.817
   53c3c     H5  116   1.234   1.472   0.827
   53c3c     H6  117   1.107   1.434   0.710
   53c3c     H7  118   1.072   1.548   0.978
   53c3c     H8  119   0.945   1.511   0.862
   53c3c     H9  120   1.271   1.884   0.701
   53c3c    H10  121   1.148   1.942   0.816
   53c3c    H11  122   1.264   1.817   0.866
   53c3c    H12  123   0.976   1.891   0.657
   53c3c    H13  124   1.099   1.833   0.542
   53c3c     C7  125   0.935   1.696   0.575
   53c3c    H14  126   0.869   1.668   0.656
   53c3c    H15  127   0.992   1.609   0.542
   53c3c     C8  128   0.853   1.751   0.459
   53c3c    H16  129   0.919   1.780   0.377
   53c3c    H17  130   0.796   1.838   0.492
   53c3c    H18  131   0.784   1.674   0.424
   54c3c      N  132   1.235   0.738   1.278
   54c3c     C1  133   1.111   0.736   1.357
   54c3c     C2  134   1.202   0.748   1.135
   54c3c     C3  135   0.991   0.745   1.263
   54c3c     C4  136   1.050   0.753   1.118
   54c3c     C5  137   1.317   0.854   1.317
   54c3c     C6  138   1.311   0.615   1.301
   54c3c     H1  139   1.110   0.821   1.425
   54c3c     H2  140   1.106   0.643   1.414
   54c3c     H3  141   1.246   0.839   1.093
   54c3c     H4  142   1.242   0.662   1.082
   54c3c     H5  143   0.931   0.833   1.286
   54c3c     H6  144   0.927   0.657   1.274
   54c3c     H7  145   1.019   0.845   1.069
   54c3c     H8  146   1.015   0.669   1.057
   54c3c     H9  147   1.342   0.847   1.423
   54c3c    H10  148   1.408   0.856   1.258
   54c3c    H11  149   1.260   0.946   1.299
   54c3c    H12  150   1.403   0.617   1.243
   54c3c    H13  151   1.336   0.607   1.407
   54c3c     C7  152   1.227   0.494   1.260
   54c3c    H14  153   1.202   0.502   1.154
   54c3c    H15  154   1.135   0.492   1.319
   54c3c     C8  155   1.306   0.366   1.285
   54c3c    H16  156   1.331   0.358   1.391
   54c3c    H17  157   1.398   0.367   1.226
   54c3c    H18  158   1.246   0.280   1.255
   55c3c      N  159   0.348   1.600   2.445
   55c3c     C1  160   0.456   1.643   2.354
   55c3c     C2  161   0.243   1.703   2.449
   55c3c     C3  162   0.422   1.780   2.296
   55c3c     C4  163   0.283   1.819   2.358
   55c3c     C5  164   0.290   1.474   2.397
   55c3c     C6  165   0.403   1.580   2.580
   55c3c     H1  166   0.466   1.570   2.274
   55c3c     H2  167   0.549   1.649   2.410
   55c3c     H3  168   0.149   1.661   2.415
   55c3c     H4  169   0.232   1.740   2.551
   55c3c     H5  170   0.415   1.775   2.187
   55c3c     H6  171   0.498   1.853   2.322
   55c3c     H7  172   0.208   1.834   2.280
   55c3c     H8  173   0.291   1.912   2.414
   55c3c     H9  174   0.367   1.397   2.394
   55c3c    H10  175   0.210   1.442   2.464
   55c3c    H11  176   0.249   1.488   2.297
   55c3c    H12  177   0.323   1.549   2.648
   55c3c    H13  178   0.480   1.504   2.577
   55c3c     C7  179   0.463   1.711   2.631
   55c3c    H14  180   0.385   1.788   2.634
   55c3c    H15  181   0.543   1.743   2.564
   55c3c     C8  182   0.520   1.691   2.771
   55c3c    H16  183   0.597   1.614   2.768
   55c3c    H17  184   0.440   1.659   2.838
   55c3c    H18  185   0.562   1.784   2.807
   56c3c      N  186   2.241   0.720   0.587
   56c3c     C1  187   2.294   0.857   0.600
   56c3c     C2  188   2.346   0.623   0.623
   56c3c     C3  189   2.440   0.851   0.646
   56c3c     C4  190   2.474   0.698   0.661
   56c3c     C5  191   2.126   0.704   0.677
   56c3c     C6  192   2.199   0.697   0.448
   56c3c     H1  193   2.235   0.912   0.673
   56c3c     H2  194   2.289   0.907   0.503
   56c3c     H3  195   2.312   0.563   0.707
   56c3c     H4  196   2.366   0.558   0.537
   56c3c     H5  197   2.452   0.903   0.741
   56c3c     H6  198   2.506   0.898   0.573
   56c3c     H7  199   2.503   0.674   0.763
   56c3c     H8  200   2.556   0.670   0.595
   56c3c     H9  201   2.049   0.775   0.650
   56c3c    H10  202   2.087   0.602   0.667
   56c3c    H11  203   2.158   0.721   0.780
   56c3c    H12  204   2.159   0.596   0.438
   56c3c    H13  205   2.121   0.769   0.421
   56c3c     C7  206   2.318   0.715   0.354
   56c3c    H14  207   2.396   0.643   0.381
   56c3c    H15  208   2.358   0.816   0.364
   56c3c     C8  209   2.274   0.691   0.210
   56c3c    H16  210   2.196   0.762   0.183
   56c3c    H17  211   2.234   0.589   0.200
   56c3c    H18  212   2.359   0.703   0.143
   57c3c      N  213   1.237   2.236   0.412
   57c3c     C1  214   1.290   2.222   0.549
   57c3c     C2  215   1.090   2.248   0.417
   57c3c     C3  216   1.174   2.224   0.649
   57c3c     C4  217   1.044   2.241   0.563
   57c3c     C5  218   1.294   2.357   0.350
   57c3c     C6  219   1.274   2.118   0.333
   57c3c     H1  220   1.358   2.304   0.570
   57c3c     H2  221   1.343   2.128   0.558
   57c3c     H3  222   1.060   2.343   0.374
   57c3c     H4  223   1.045   2.166   0.361
   57c3c     H5  224   1.186   2.307   0.719
   57c3c     H6  225   1.171   2.132   0.706
   57c3c     H7  226   0.991   2.333   0.590
   57c3c     H8  227   0.976   2.157   0.578
   57c3c     H9  228   1.402   2.348   0.346
   57c3c    H10  229   1.255   2.367   0.249
   57c3c    H11  230   1.266   2.444   0.409
   57c3c    H12  231   1.235   2.129   0.232
   57c3c    H13  232   1.383   2.109   0.329
   57c3c     C7  233   1.215   1.993   0.397
   57c3c    H14  234   1.106   2.001   0.401
   57c3c    H15  235   1.254   1.982   0.499
   57c3c     C8  236   1.253   1.870   0.315
   57c3c    H16  237   1.362   1.861   0.311
   57c3c    H17  238   1.214   1.880   0.214
   57c3c    H18  239   1.211   1.780   0.361
   58c3c      N  240   0.636   0.353   1.358
   58c3c     C1  241   0.717   0.451   1.433
   58c3c     C2  242   0.721   0.240   1.316
   58c3c     C3  243   0.861   0.401   1.441
   58c3c     C4  244   0.864   0.264   1.365
   58c3c     C5  245   0.527   0.303   1.444
   58c3c     C6  246   0.578   0.418   1.239
   58c3c     H1  247   0.677   0.462   1.533
   58c3c     H2  248   0.714   0.547   1.381
   58c3c     H3  249   0.683   0.148   1.360
   58c3c     H4  250   0.720   0.233   1.208
   58c3c     H5  251   0.892   0.389   1.545
   58c3c     H6  252   0.929   0.473   1.394
   58c3c     H7  253   0.896   0.183   1.432
   58c3c     H8  254   0.933   0.267   1.281
   58c3c     H9  255   0.464   0.387   1.475
   58c3c    H10  256   0.468   0.231   1.389
   58c3c    H11  257   0.570   0.256   1.532
   58c3c    H12  258   0.518   0.345   1.184
   58c3c    H13  259   0.516   0.501   1.270
   58c3c     C7  260   0.691   0.469   1.149
   58c3c    H14  261   0.754   0.386   1.119
   58c3c    H15  262   0.751   0.541   1.204
   58c3c     C8  263   0.632   0.536   1.026
   58c3c    H16  264   0.568   0.620   1.056
   58c3c    H17  265   0.572   0.464   0.970
   58c3c    H18  266   0.712   0.573   0.962
   59c3c      N  267   1.231   2.158   1.740
   59c3c     C1  268   1.215   2.015   1.770
   59c3c     C2  269   1.373   2.188   1.715
   59c3c     C3  270   1.352   1.946   1.765
   59c3c     C4  271   1.455   2.059   1.729
   59c3c     C5  272   1.153   2.193   1.620
   59c3c     C6  273   1.184   2.238   1.854
   59c3c     H1  274   1.149   1.970   1.696
   59c3c     H2  275   1.172   2.004   1.869
   59c3c     H3  276   1.385   2.227   1.614
   59c3c     H4  277   1.408   2.261   1.787
   59c3c     H5  278   1.352   1.868   1.690
   59c3c     H6  279   1.375   1.901   1.862
   59c3c     H7  280   1.507   2.036   1.636
   59c3c     H8  281   1.530   2.070   1.808
   59c3c     H9  282   1.048   2.171   1.638
   59c3c    H10  283   1.165   2.299   1.598
   59c3c    H11  284   1.188   2.133   1.535
   59c3c    H12  285   1.196   2.344   1.831
   59c3c    H13  286   1.079   2.217   1.872
   59c3c     C7  287   1.266   2.203   1.978
   59c3c    H14  288   1.371   2.225   1.960
   59c3c    H15  289   1.254   2.097   2.001
   59c3c     C8  290   1.217   2.286   2.097
   59c3c    H16  291   1.111   2.265   2.115
   59c3c    H17  292   1.229   2.392   2.074
   59c3c    H18  293   1.275   2.261   2.185
   60c3c      N  294   2.242   1.322   2.169
   60c3c     C1  295   2.347   1.409   2.225
   60c3c     C2  296   2.112   1.361   2.225
   60c3c     C3  297   2.284   1.509   2.322
   60c3c     C4  298   2.130   1.478   2.322
   60c3c     C5  299   2.239   1.337   2.023
   60c3c     C6  300   2.270   1.182   2.204
   60c3c     H1  301   2.397   1.462   2.145
   60c3c     H2  302   2.420   1.347   2.279
   60c3c     H3  303   2.045   1.391   2.144
   60c3c     H4  304   2.068   1.276   2.278
   60c3c     H5  305   2.303   1.611   2.289
   60c3c     H6  306   2.326   1.497   2.422
   60c3c     H7  307   2.073   1.565   2.289
   60c3c     H8  308   2.096   1.451   2.422
   60c3c     H9  309   2.336   1.308   1.982
   60c3c    H10  310   2.161   1.273   1.981
   60c3c    H11  311   2.218   1.441   1.997
   60c3c    H12  312   2.192   1.118   2.162
   60c3c    H13  313   2.367   1.153   2.163
   60c3c     C7  314   2.273   1.166   2.356
   60c3c    H14  315   2.176   1.195   2.397
   60c3c    H15  316   2.351   1.230   2.398
   60c3c     C8  317   2.302   1.021   2.392
   60c3c    H16  318   2.399   0.992   2.351
   60c3c    H17  319   2.224   0.957   2.351
   60c3c    H18  320   2.304   1.010   2.500
   61c3c      N  321   0.317   2.504   0.560
   61c3c     C1  322   0.438   2.477   0.640
   61c3c     C2  323   0.357   2.547   0.425
   61c3c     C3  324   0.562   2.504   0.556
   61c3c     C4  325   0.510   2.550   0.415
   61c3c     C5  326   0.237   2.381   0.550
   61c3c     C6  327   0.238   2.609   0.624
   61c3c     H1  328   0.438   2.373   0.673
   61c3c     H2  329   0.438   2.543   0.727
   61c3c     H3  330   0.317   2.477   0.351
   61c3c     H4  331   0.318   2.647   0.406
   61c3c     H5  332   0.623   2.414   0.547
   61c3c     H6  333   0.624   2.582   0.601
   61c3c     H7  334   0.544   2.482   0.337
   61c3c     H8  335   0.545   2.650   0.391
   61c3c     H9  336   0.207   2.349   0.650
   61c3c    H10  337   0.148   2.401   0.490
   61c3c    H11  338   0.296   2.303   0.502
   61c3c    H12  339   0.149   2.629   0.564
   61c3c    H13  340   0.208   2.578   0.724
   61c3c     C7  341   0.321   2.737   0.634
   61c3c    H14  342   0.351   2.769   0.534
   61c3c    H15  343   0.411   2.718   0.693
   61c3c     C8  344   0.239   2.847   0.700
   61c3c    H16  345   0.209   2.815   0.800
   61c3c    H17  346   0.149   2.867   0.641
   61c3c    H18  347   0.298   2.938   0.707
   62c3c      N  348   2.491   1.847   0.309
   62c3c     C1  349   2.484   1.714   0.373
   62c3c     C2  350   2.497   1.951   0.413
   62c3c     C3  351   2.486   1.730   0.525
   62c3c     C4  352   2.494   1.885   0.551
   62c3c     C5  353   2.612   1.855   0.225
   62c3c     C6  354   2.372   1.867   0.226
   62c3c     H1  355   2.570   1.655   0.342
   62c3c     H2  356   2.393   1.664   0.342
   62c3c     H3  357   2.589   2.008   0.402
   62c3c     H4  358   2.412   2.017   0.403
   62c3c     H5  359   2.572   1.679   0.568
   62c3c     H6  360   2.395   1.688   0.569
   62c3c     H7  361   2.584   1.910   0.607
   62c3c     H8  362   2.408   1.919   0.608
   62c3c     H9  363   2.607   1.778   0.148
   62c3c    H10  364   2.617   1.953   0.178
   62c3c    H11  365   2.700   1.839   0.287
   62c3c    H12  366   2.377   1.966   0.179
   62c3c    H13  367   2.367   1.790   0.149
   62c3c     C7  368   2.247   1.859   0.313
   62c3c    H14  369   2.251   1.936   0.390
   62c3c    H15  370   2.241   1.761   0.360
   62c3c     C8  371   2.122   1.881   0.227
   62c3c    H16  372   2.118   1.804   0.149
   62c3c    H17  373   2.128   1.979   0.179
   62c3c    H18  374   2.033   1.875   0.289
   63c3c      N  375   0.753   1.080   2.729
   63c3c     C1  376   0.626   1.005   2.730
   63c3c     C2  377   0.725   1.224   2.731
   63c3c     C3  378   0.509   1.104   2.731
   63c3c     C4  379   0.574   1.247   2.732
   63c3c     C5  380   0.831   1.044   2.849
   63c3c     C6  381   0.830   1.046   2.608
   63c3c     H1  382   0.621   0.942   2.818
   63c3c     H2  383   0.620   0.943   2.640
   63c3c     H3  384   0.769   1.269   2.820
   63c3c     H4  385   0.768   1.270   2.642
   63c3c     H5  386   0.447   1.088   2.820
   63c3c     H6  387   0.446   1.090   2.643
   63c3c     H7  388   0.544   1.302   2.821
   63c3c     H8  389   0.543   1.304   2.645
   63c3c     H9  390   0.852   0.937   2.848
   63c3c    H10  391   0.925   1.099   2.849
   63c3c    H11  392   0.775   1.069   2.938
   63c3c    H12  393   0.924   1.101   2.608
   63c3c    H13  394   0.850   0.939   2.607
   63c3c     C7  395   0.748   1.083   2.484
   63c3c    H14  396   0.728   1.190   2.486
   63c3c    H15  397   0.654   1.028   2.484
   63c3c     C8  398   0.828   1.048   2.359
   63c3c    H16  399   0.849   0.941   2.358
   63c3c    H17  400   0.922   1.103   2.359
   63c3c    H18  401   0.770   1.075   2.270
   64c3c      N  402   2.752   0.983   2.362
   64c3c     C1  403   2.645   0.901   2.423
   64c3c     C2  404   2.883   0.922   2.393
   64c3c     C3  405   2.707   0.782   2.496
   64c3c     C4  406   2.862   0.796   2.477
   64c3c     C5  407   2.734   0.988   2.217
   64c3c     C6  408   2.747   1.119   2.418
   64c3c     H1  409   2.578   0.865   2.344
   64c3c     H2  410   2.589   0.962   2.493
   64c3c     H3  411   2.933   0.896   2.300
   64c3c     H4  412   2.944   0.993   2.449
   64c3c     H5  413   2.670   0.688   2.454
   64c3c     H6  414   2.681   0.785   2.602
   64c3c     H7  415   2.902   0.708   2.425
   64c3c     H8  416   2.912   0.805   2.573
   64c3c     H9  417   2.637   1.033   2.194
   64c3c    H10  418   2.813   1.048   2.172
   64c3c    H11  419   2.737   0.887   2.176
   64c3c    H12  420   2.826   1.179   2.373
   64c3c    H13  421   2.651   1.164   2.395
   64c3c     C7  422   2.767   1.113   2.569
   64c3c    H14  423   2.863   1.069   2.592
   64c3c    H15  424   2.687   1.053   2.614
   64c3c     C8  425   2.762   1.255   2.626
   64c3c    H16  426   2.665   1.300   2.604
   64c3c    H17  427   2.841   1.315   2.582
   64c3c    H18  428   2.775   1.251   2.734
   65c3c      N  429   0.772   2.757   1.178
   65c3c     C1  430   0.909   2.810   1.174
   65c3c     C2  431   0.776   2.616   1.221
   65c3c     C3  432   1.008   2.701   1.216
   65c3c     C4  433   0.920   2.574   1.246
   65c3c     C5  434   0.692   2.835   1.273
   65c3c     C6  435   0.712   2.766   1.044
   65c3c     H1  436   0.917   2.895   1.242
   65c3c     H2  437   0.932   2.844   1.073
   65c3c     H3  438   0.718   2.605   1.312
   65c3c     H4  439   0.733   2.554   1.143
   65c3c     H5  440   1.064   2.732   1.304
   65c3c     H6  441   1.079   2.681   1.135
   65c3c     H7  442   0.933   2.542   1.350
   65c3c     H8  443   0.948   2.491   1.181
   65c3c     H9  444   0.689   2.940   1.241
   65c3c    H10  445   0.590   2.796   1.276
   65c3c    H11  446   0.736   2.829   1.372
   65c3c    H12  447   0.610   2.727   1.047
   65c3c    H13  448   0.710   2.870   1.012
   65c3c     C7  449   0.795   2.685   0.945
   65c3c    H14  450   0.798   2.580   0.977
   65c3c    H15  451   0.897   2.724   0.942
   65c3c     C8  452   0.733   2.694   0.806
   65c3c    H16  453   0.730   2.798   0.774
   65c3c    H17  454   0.632   2.655   0.809
   65c3c    H18  455   0.793   2.636   0.735
   66c3c      N  456   0.310   0.802   0.707
   66c3c     C1  457   0.456   0.820   0.707
   66c3c     C2  458   0.279   0.659   0.724
   66c3c     C3  459   0.525   0.684   0.724
   66c3c     C4  460   0.409   0.579   0.735
   66c3c     C5  461   0.252   0.878   0.818
   66c3c     C6  462   0.255   0.849   0.580
   66c3c     H1  463   0.485   0.886   0.789
   66c3c     H2  464   0.487   0.864   0.612
   66c3c     H3  465   0.220   0.645   0.814
   66c3c     H4  466   0.222   0.623   0.638
   66c3c     H5  467   0.587   0.684   0.814
   66c3c     H6  468   0.589   0.663   0.638
   66c3c     H7  469   0.414   0.526   0.831
   66c3c     H8  470   0.416   0.505   0.655
   66c3c     H9  471   0.275   0.984   0.805
   66c3c    H10  472   0.143   0.864   0.818
   66c3c    H11  473   0.293   0.843   0.912
   66c3c    H12  474   0.146   0.835   0.580
   66c3c    H13  475   0.278   0.955   0.567
   66c3c     C7  476   0.315   0.770   0.464
   66c3c    H14  477   0.292   0.664   0.477
   66c3c    H15  478   0.424   0.783   0.464
   66c3c     C8  479   0.257   0.819   0.332
   66c3c    H16  480   0.281   0.925   0.319
   66c3c    H17  481   0.149   0.805   0.332
   66c3c    H18  482   0.301   0.762   0.249
   67c3c      N  483   0.617   1.176   0.449
   67c3c     C1  484   0.661   1.316   0.457
   67c3c     C2  485   0.646   1.123   0.315
   67c3c     C3  486   0.724   1.358   0.324
   67c3c     C4  487   0.714   1.232   0.231
   67c3c     C5  488   0.687   1.096   0.550
   67c3c     C6  489   0.472   1.169   0.473
   67c3c     H1  490   0.736   1.326   0.537
   67c3c     H2  491   0.576   1.380   0.479
   67c3c     H3  492   0.713   1.038   0.324
   67c3c     H4  493   0.554   1.092   0.267
   67c3c     H5  494   0.827   1.388   0.338
   67c3c     H6  495   0.669   1.442   0.281
   67c3c     H7  496   0.813   1.200   0.199
   67c3c     H8  497   0.655   1.254   0.142
   67c3c     H9  498   0.665   1.135   0.649
   67c3c    H10  499   0.654   0.992   0.544
   67c3c    H11  500   0.794   1.101   0.532
   67c3c    H12  501   0.439   1.066   0.467
   67c3c    H13  502   0.449   1.209   0.572
   67c3c     C7  503   0.398   1.253   0.368
   67c3c    H14  504   0.421   1.214   0.268
   67c3c    H15  505   0.432   1.356   0.374
   67c3c     C8  506   0.248   1.246   0.393
   67c3c    H16  507   0.226   1.285   0.492
   67c3c    H17  508   0.215   1.142   0.387
   67c3c    H18  509   0.196   1.305   0.318
   68c3c      N  510   1.523   1.584   2.662
   68c3c     C1  511   1.527   1.452   2.727
   68c3c     C2  512   1.618   1.674   2.727
   68c3c     C3  513   1.629   1.455   2.840
   68c3c     C4  514   1.689   1.600   2.841
   68c3c     C5  515   1.559   1.570   2.520
   68c3c     C6  516   1.387   1.640   2.673
   68c3c     H1  517   1.556   1.376   2.654
   68c3c     H2  518   1.429   1.429   2.767
   68c3c     H3  519   1.692   1.708   2.655
   68c3c     H4  520   1.565   1.760   2.768
   68c3c     H5  521   1.707   1.381   2.823
   68c3c     H6  522   1.582   1.432   2.936
   68c3c     H7  523   1.797   1.597   2.824
   68c3c     H8  524   1.671   1.649   2.936
   68c3c     H9  525   1.488   1.503   2.471
   68c3c    H10  526   1.556   1.667   2.471
   68c3c    H11  527   1.659   1.528   2.511
   68c3c    H12  528   1.384   1.738   2.624
   68c3c    H13  529   1.316   1.573   2.624
   68c3c     C7  530   1.350   1.655   2.820
   68c3c    H14  531   1.421   1.722   2.869
   68c3c    H15  532   1.353   1.558   2.868
   68c3c     C8  533   1.209   1.713   2.831
   68c3c    H16  534   1.138   1.646   2.783
   68c3c    H17  535   1.206   1.811   2.783
   68c3c    H18  536   1.182   1.724   2.937
   69c3c      N  537   2.170   0.928   1.097
   69c3c     C1  538   2.263   0.867   1.193
   69c3c     C2  539   2.166   0.846   0.974
   69c3c     C3  540   2.324   0.741   1.133
   69c3c     C4  541   2.261   0.727   0.989
   69c3c     C5  542   2.035   0.933   1.156
   69c3c     C6  543   2.214   1.064   1.064
   69c3c     H1  544   2.210   0.841   1.285
   69c3c     H2  545   2.342   0.938   1.216
   69c3c     H3  546   2.065   0.810   0.958
   69c3c     H4  547   2.197   0.907   0.889
   69c3c     H5  548   2.301   0.654   1.194
   69c3c     H6  549   2.433   0.750   1.126
   69c3c     H7  550   2.206   0.633   0.980
   69c3c     H8  551   2.338   0.729   0.913
   69c3c     H9  552   2.038   0.993   1.247
   69c3c    H10  553   1.966   0.978   1.085
   69c3c    H11  554   2.002   0.832   1.180
   69c3c    H12  555   2.145   1.109   0.993
   69c3c    H13  556   2.217   1.124   1.155
   69c3c     C7  557   2.354   1.058   1.002
   69c3c    H14  558   2.352   0.998   0.912
   69c3c    H15  559   2.424   1.014   1.074
   69c3c     C8  560   2.401   1.200   0.968
   69c3c    H16  561   2.403   1.260   1.059
   69c3c    H17  562   2.331   1.245   0.897
   69c3c    H18  563   2.500   1.196   0.924
   70c3c      N  564   1.473   2.264   2.737
   70c3c     C1  565   1.603   2.195   2.746
   70c3c     C2  566   1.372   2.170   2.686
   70c3c     C3  567   1.587   2.050   2.700
   70c3c     C4  568   1.436   2.034   2.661
   70c3c     C5  569   1.434   2.313   2.870
   70c3c     C6  570   1.485   2.378   2.644
   70c3c     H1  571   1.638   2.197   2.849
   70c3c     H2  572   1.676   2.246   2.682
   70c3c     H3  573   1.292   2.160   2.760
   70c3c     H4  574   1.330   2.209   2.593
   70c3c     H5  575   1.614   1.981   2.780
   70c3c     H6  576   1.652   2.030   2.615
   70c3c     H7  577   1.388   1.957   2.722
   70c3c     H8  578   1.426   2.005   2.556
   70c3c     H9  579   1.509   2.382   2.907
   70c3c    H10  580   1.337   2.364   2.863
   70c3c    H11  581   1.425   2.228   2.938
   70c3c    H12  582   1.389   2.429   2.637
   70c3c    H13  583   1.560   2.447   2.681
   70c3c     C7  584   1.526   2.328   2.506
   70c3c    H14  585   1.450   2.258   2.468
   70c3c    H15  586   1.622   2.277   2.513
   70c3c     C8  587   1.538   2.446   2.410
   70c3c    H16  588   1.613   2.516   2.447
   70c3c    H17  589   1.441   2.497   2.403
   70c3c    H18  590   1.567   2.410   2.311
   71c3c      N  591   1.594   0.291   2.186
   71c3c     C1  592   1.471   0.211   2.171
   71c3c     C2  593   1.559   0.435   2.182
   71c3c     C3  594   1.351   0.305   2.156
   71c3c     C4  595   1.409   0.451   2.164
   71c3c     C5  596   1.657   0.260   2.315
   71c3c     C6  597   1.686   0.260   2.076
   71c3c     H1  598   1.458   0.148   2.259
   71c3c     H2  599   1.479   0.149   2.082
   71c3c     H3  600   1.590   0.482   2.276
   71c3c     H4  601   1.612   0.482   2.099
   71c3c     H5  602   1.279   0.287   2.236
   71c3c     H6  603   1.300   0.288   2.061
   71c3c     H7  604   1.365   0.505   2.248
   71c3c     H8  605   1.387   0.506   2.072
   71c3c     H9  606   1.683   0.154   2.317
   71c3c    H10  607   1.748   0.319   2.326
   71c3c    H11  608   1.589   0.283   2.396
   71c3c    H12  609   1.777   0.319   2.087
   71c3c    H13  610   1.712   0.154   2.079
   71c3c     C7  611   1.620   0.294   1.942
   71c3c    H14  612   1.595   0.400   1.939
   71c3c    H15  613   1.530   0.234   1.931
   71c3c     C8  614   1.717   0.261   1.828
   71c3c    H16  615   1.742   0.155   1.831
   71c3c    H17  616   1.808   0.320   1.839
   71c3c    H18  617   1.670   0.285   1.733
   72c3c      N  618   2.721   2.631   0.780
   72c3c     C1  619   2.637   2.747   0.748
   72c3c     C2  620   2.850   2.676   0.833
   72c3c     C3  621   2.713   2.875   0.782
   72c3c     C4  622   2.852   2.829   0.838
   72c3c     C5  623   2.653   2.547   0.880
   72c3c     C6  624   2.743   2.552   0.658
   72c3c     H1  625   2.545   2.743   0.807
   72c3c     H2  626   2.612   2.747   0.642
   72c3c     H3  627   2.864   2.636   0.934
   72c3c     H4  628   2.931   2.640   0.769
   72c3c     H5  629   2.659   2.934   0.857
   72c3c     H6  630   2.725   2.937   0.693
   72c3c     H7  631   2.867   2.864   0.940
   72c3c     H8  632   2.934   2.868   0.776
   72c3c     H9  633   2.557   2.513   0.840
   72c3c    H10  634   2.716   2.460   0.903
   72c3c    H11  635   2.636   2.605   0.971
   72c3c    H12  636   2.806   2.466   0.681
   72c3c    H13  637   2.648   2.518   0.618
   72c3c     C7  638   2.814   2.639   0.553
   72c3c    H14  639   2.910   2.673   0.593
   72c3c    H15  640   2.752   2.725   0.530
   72c3c     C8  641   2.838   2.557   0.426
   72c3c    H16  642   2.742   2.523   0.386
   72c3c    H17  643   2.900   2.471   0.449
   72c3c    H18  644   2.888   2.619   0.352
   73c3c      N  645   1.254   1.917   2.303
   73c3c     C1  646   1.277   1.808   2.400
   73c3c     C2  647   1.175   1.866   2.190
   73c3c     C3  648   1.210   1.680   2.349
   73c3c     C4  649   1.143   1.718   2.212
   73c3c     C5  650   1.182   2.026   2.369
   73c3c     C6  651   1.384   1.966   2.254
   73c3c     H1  652   1.234   1.836   2.496
   73c3c     H2  653   1.384   1.791   2.411
   73c3c     H3  654   1.082   1.923   2.183
   73c3c     H4  655   1.231   1.878   2.098
   73c3c     H5  656   1.135   1.645   2.420
   73c3c     H6  657   1.283   1.601   2.336
   73c3c     H7  658   1.035   1.702   2.216
   73c3c     H8  659   1.184   1.658   2.131
   73c3c     H9  660   1.241   2.064   2.453
   73c3c    H10  661   1.165   2.107   2.297
   73c3c    H11  662   1.086   1.990   2.405
   73c3c    H12  663   1.367   2.046   2.182
   73c3c    H13  664   1.443   2.003   2.337
   73c3c     C7  665   1.459   1.852   2.185
   73c3c    H14  666   1.400   1.814   2.101
   73c3c    H15  667   1.476   1.771   2.257
   73c3c     C8  668   1.594   1.903   2.134
   73c3c    H16  669   1.653   1.940   2.217
   73c3c    H17  670   1.577   1.984   2.062
   73c3c    H18  671   1.647   1.822   2.085
   74c3c      N  672   2.629   2.743   2.652
   74c3c     C1  673   2.622   2.689   2.515
   74c3c     C2  674   2.768   2.783   2.681
   74c3c     C3  675   2.761   2.694   2.451
   74c3c     C4  676   2.856   2.756   2.560
   74c3c     C5  677   2.541   2.860   2.664
   74c3c     C6  678   2.587   2.639   2.747
   74c3c     H1  679   2.553   2.749   2.456
   74c3c     H2  680   2.587   2.586   2.518
   74c3c     H3  681   2.770   2.890   2.705
   74c3c     H4  682   2.805   2.727   2.767
   74c3c     H5  683   2.760   2.756   2.361
   74c3c     H6  684   2.794   2.594   2.423
   74c3c     H7  685   2.902   2.848   2.524
   74c3c     H8  686   2.936   2.686   2.585
   74c3c     H9  687   2.438   2.830   2.642
   74c3c    H10  688   2.546   2.899   2.765
   74c3c    H11  689   2.572   2.936   2.593
   74c3c    H12  690   2.592   2.679   2.849
   74c3c    H13  691   2.485   2.609   2.726
   74c3c     C7  692   2.679   2.518   2.735
   74c3c    H14  693   2.782   2.548   2.757
   74c3c    H15  694   2.674   2.478   2.634
   74c3c     C8  695   2.635   2.410   2.835
   74c3c    H16  696   2.533   2.380   2.813
   74c3c    H17  697   2.641   2.450   2.936
   74c3c    H18  698   2.701   2.324   2.826
   75c3c      N  699   1.789   2.683   0.477
   75c3c     C1  700   1.832   2.795   0.392
   75c3c     C2  701   1.902   2.638   0.560
   75c3c     C3  702   1.979   2.826   0.419
   75c3c     C4  703   2.025   2.724   0.529
   75c3c     C5  704   1.679   2.726   0.563
   75c3c     C6  705   1.744   2.571   0.392
   75c3c     H1  706   1.771   2.883   0.414
   75c3c     H2  707   1.820   2.768   0.287
   75c3c     H3  708   1.876   2.649   0.665
   75c3c     H4  709   1.924   2.534   0.538
   75c3c     H5  710   1.991   2.929   0.454
   75c3c     H6  711   2.039   2.815   0.328
   75c3c     H7  712   2.059   2.776   0.619
   75c3c     H8  713   2.107   2.662   0.493
   75c3c     H9  714   1.595   2.759   0.502
   75c3c    H10  715   1.647   2.643   0.626
   75c3c    H11  716   1.712   2.809   0.626
   75c3c    H12  717   1.712   2.488   0.455
   75c3c    H13  718   1.660   2.604   0.330
   75c3c     C7  719   1.859   2.526   0.302
   75c3c    H14  720   1.943   2.493   0.363
   75c3c    H15  721   1.891   2.609   0.239
   75c3c     C8  722   1.812   2.410   0.214
   75c3c    H16  723   1.728   2.443   0.152
   75c3c    H17  724   1.780   2.327   0.277
   75c3c    H18  725   1.894   2.378   0.150
   76c3c      N  726   2.734   2.751   1.387
   76c3c     C1  727   2.719   2.781   1.530
   76c3c     C2  728   2.609   2.783   1.316
   76c3c     C3  729   2.578   2.835   1.556
   76c3c     C4  730   2.507   2.836   1.416
   76c3c     C5  731   2.844   2.832   1.331
   76c3c     C6  732   2.765   2.608   1.370
   76c3c     H1  733   2.793   2.856   1.559
   76c3c     H2  734   2.734   2.691   1.588
   76c3c     H3  735   2.629   2.858   1.240
   76c3c     H4  736   2.570   2.693   1.269
   76c3c     H5  737   2.583   2.936   1.598
   76c3c     H6  738   2.525   2.772   1.626
   76c3c     H7  739   2.476   2.937   1.389
   76c3c     H8  740   2.418   2.773   1.418
   76c3c     H9  741   2.937   2.808   1.383
   76c3c    H10  742   2.855   2.809   1.225
   76c3c    H11  743   2.821   2.938   1.343
   76c3c    H12  744   2.777   2.586   1.264
   76c3c    H13  745   2.858   2.585   1.422
   76c3c     C7  746   2.651   2.524   1.428
   76c3c    H14  747   2.559   2.548   1.375
   76c3c    H15  748   2.640   2.546   1.534
   76c3c     C8  749   2.683   2.376   1.410
   76c3c    H16  750   2.776   2.352   1.462
   76c3c    H17  751   2.695   2.353   1.304
   76c3c    H18  752   2.602   2.316   1.451
   77c3c      N  753   2.727   0.489   1.352
   77c3c     C1  754   2.858   0.508   1.287
   77c3c     C2  755   2.643   0.608   1.329
   77c3c     C3  756   2.861   0.644   1.218
   77c3c     C4  757   2.721   0.710   1.246
   77c3c     C5  758   2.660   0.371   1.295
   77c3c     C6  759   2.746   0.470   1.497
   77c3c     H1  760   2.873   0.429   1.213
   77c3c     H2  761   2.936   0.503   1.362
   77c3c     H3  762   2.553   0.579   1.276
   77c3c     H4  763   2.616   0.652   1.425
   77c3c     H5  764   2.878   0.633   1.111
   77c3c     H6  765   2.941   0.706   1.259
   77c3c     H7  766   2.669   0.730   1.152
   77c3c     H8  767   2.732   0.803   1.300
   77c3c     H9  768   2.722   0.282   1.312
   77c3c    H10  769   2.563   0.357   1.343
   77c3c    H11  770   2.646   0.385   1.188
   77c3c    H12  771   2.649   0.456   1.545
   77c3c    H13  772   2.808   0.382   1.514
   77c3c     C7  773   2.815   0.593   1.556
   77c3c    H14  774   2.753   0.681   1.539
   77c3c    H15  775   2.912   0.607   1.508
   77c3c     C8  776   2.835   0.573   1.706
   77c3c    H16  777   2.897   0.485   1.723
   77c3c    H17  778   2.738   0.559   1.754
   77c3c    H18  779   2.884   0.661   1.748
   78c3c      N  780   1.404   1.016   0.602
   78c3c     C1  781   1.530   0.942   0.614
   78c3c     C2  782   1.293   0.921   0.584
   78c3c     C3  783   1.503   0.792   0.604
   78c3c     C4  784   1.347   0.778   0.584
   78c3c     C5  785   1.381   1.095   0.724
   78c3c     C6  786   1.411   1.106   0.486
   78c3c     H1  787   1.576   0.964   0.711
   78c3c     H2  788   1.598   0.972   0.535
   78c3c     H3  789   1.221   0.933   0.665
   78c3c     H4  790   1.243   0.941   0.489
   78c3c     H5  791   1.535   0.741   0.695
   78c3c     H6  792   1.556   0.748   0.520
   78c3c     H7  793   1.303   0.720   0.665
   78c3c     H8  794   1.325   0.728   0.490
   78c3c     H9  795   1.463   1.166   0.737
   78c3c    H10  796   1.287   1.150   0.715
   78c3c    H11  797   1.376   1.029   0.810
   78c3c    H12  798   1.317   1.161   0.477
   78c3c    H13  799   1.493   1.176   0.499
   78c3c     C7  800   1.434   1.023   0.359
   78c3c    H14  801   1.352   0.953   0.346
   78c3c    H15  802   1.528   0.969   0.368
   78c3c     C8  803   1.441   1.117   0.238
   78c3c    H16  804   1.523   1.187   0.251
   78c3c    H17  805   1.348   1.172   0.229
   78c3c    H18  806   1.458   1.058   0.148
   79c3c      N  807   1.826   1.507   1.524
   79c3c     C1  808   1.865   1.441   1.398
   79c3c     C2  809   1.907   1.629   1.541
   79c3c     C3  810   1.975   1.521   1.330
   79c3c     C4  811   2.003   1.645   1.423
   79c3c     C5  812   1.684   1.543   1.518
   79c3c     C6  813   1.850   1.416   1.637
   79c3c     H1  814   1.778   1.434   1.332
   79c3c     H2  815   1.901   1.340   1.420
   79c3c     H3  816   1.841   1.716   1.546
   79c3c     H4  817   1.964   1.622   1.634
   79c3c     H5  818   1.943   1.554   1.231
   79c3c     H6  819   2.066   1.461   1.318
   79c3c     H7  820   1.984   1.738   1.370
   79c3c     H8  821   2.106   1.645   1.457
   79c3c     H9  822   1.624   1.453   1.505
   79c3c    H10  823   1.655   1.592   1.611
   79c3c    H11  824   1.666   1.611   1.434
   79c3c    H12  825   1.821   1.466   1.730
   79c3c    H13  826   1.790   1.326   1.624
   79c3c     C7  827   1.998   1.379   1.643
   79c3c    H14  828   2.058   1.470   1.656
   79c3c    H15  829   2.027   1.330   1.550
   79c3c     C8  830   2.022   1.285   1.760
   79c3c    H16  831   1.963   1.194   1.747
   79c3c    H17  832   1.994   1.334   1.853
   79c3c    H18  833   2.128   1.258   1.765
   80c3c      N  834   2.545   0.353   0.888
   80c3c     C1  835   2.551   0.222   0.955
   80c3c     C2  836   2.454   0.442   0.963
   80c3c     C3  837   2.462   0.224   1.080
   80c3c     C4  838   2.399   0.368   1.084
   80c3c     C5  839   2.679   0.412   0.883
   80c3c     C6  840   2.494   0.335   0.751
   80c3c     H1  841   2.654   0.202   0.985
   80c3c     H2  842   2.517   0.145   0.887
   80c3c     H3  843   2.510   0.530   0.996
   80c3c     H4  844   2.372   0.473   0.898
   80c3c     H5  845   2.521   0.205   1.169
   80c3c     H6  846   2.385   0.148   1.073
   80c3c     H7  847   2.426   0.419   1.177
   80c3c     H8  848   2.290   0.363   1.080
   80c3c     H9  849   2.746   0.347   0.828
   80c3c    H10  850   2.674   0.509   0.833
   80c3c    H11  851   2.717   0.426   0.984
   80c3c    H12  852   2.489   0.432   0.701
   80c3c    H13  853   2.560   0.269   0.696
   80c3c     C7  854   2.354   0.273   0.757
   80c3c    H14  855   2.287   0.339   0.812
   80c3c    H15  856   2.359   0.177   0.806
   80c3c     C8  857   2.301   0.255   0.614
   80c3c    H16  858   2.368   0.189   0.559
   80c3c    H17  859   2.296   0.352   0.564
   80c3c    H18  860   2.201   0.211   0.618
   81c3c      N  861   0.331   1.539   0.853
   81c3c     C1  862   0.418   1.537   0.972
   81c3c     C2  863   0.297   1.401   0.815
   81c3c     C3  864   0.442   1.392   1.016
   81c3c     C4  865   0.363   1.303   0.913
   81c3c     C5  866   0.208   1.613   0.883
   81c3c     C6  867   0.403   1.604   0.742
   81c3c     H1  868   0.369   1.591   1.053
   81c3c     H2  869   0.513   1.584   0.949
   81c3c     H3  870   0.189   1.388   0.818
   81c3c     H4  871   0.333   1.381   0.714
   81c3c     H5  872   0.405   1.376   1.117
   81c3c     H6  873   0.548   1.369   1.013
   81c3c     H7  874   0.288   1.243   0.963
   81c3c     H8  875   0.431   1.236   0.860
   81c3c     H9  876   0.234   1.716   0.911
   81c3c    H10  877   0.144   1.615   0.794
   81c3c    H11  878   0.155   1.565   0.965
   81c3c    H12  879   0.339   1.605   0.654
   81c3c    H13  880   0.428   1.706   0.770
   81c3c     C7  881   0.531   1.526   0.711
   81c3c    H14  882   0.506   1.424   0.683
   81c3c    H15  883   0.595   1.525   0.799
   81c3c     C8  884   0.605   1.594   0.596
   81c3c    H16  885   0.630   1.696   0.624
   81c3c    H17  886   0.541   1.595   0.507
   81c3c    H18  887   0.696   1.539   0.573
   82c3c      N  888   2.114   0.377   2.155
   82c3c     C1  889   2.145   0.518   2.128
   82c3c     C2  890   2.235   0.309   2.203
   82c3c     C3  891   2.292   0.545   2.159
   82c3c     C4  892   2.351   0.408   2.208
   82c3c     C5  893   2.009   0.369   2.258
   82c3c     C6  894   2.067   0.312   2.032
   82c3c     H1  895   2.082   0.582   2.191
   82c3c     H2  896   2.125   0.540   2.023
   82c3c     H3  897   2.217   0.269   2.303
   82c3c     H4  898   2.260   0.227   2.135
   82c3c     H5  899   2.302   0.622   2.236
   82c3c     H6  900   2.344   0.580   2.070
   82c3c     H7  901   2.390   0.417   2.309
   82c3c     H8  902   2.432   0.376   2.143
   82c3c     H9  903   1.919   0.419   2.223
   82c3c    H10  904   1.986   0.264   2.278
   82c3c    H11  905   2.044   0.417   2.349
   82c3c    H12  906   2.044   0.208   2.052
   82c3c    H13  907   1.977   0.363   1.996
   82c3c     C7  908   2.176   0.321   1.925
   82c3c    H14  909   2.265   0.270   1.960
   82c3c    H15  910   2.198   0.426   1.904
   82c3c     C8  911   2.126   0.254   1.796
   82c3c    H16  912   2.037   0.304   1.761
   82c3c    H17  913   2.104   0.149   1.817
   82c3c    H18  914   2.204   0.260   1.720
   83c3c      N  915   0.601   2.538   2.479
   83c3c     C1  916   0.560   2.402   2.441
   83c3c     C2  917   0.511   2.636   2.416
   83c3c     C3  918   0.438   2.409   2.349
   83c3c     C4  919   0.406   2.563   2.333
   83c3c     C5  920   0.594   2.552   2.625
   83c3c     C6  921   0.739   2.562   2.434
   83c3c     H1  922   0.535   2.345   2.530
   83c3c     H2  923   0.642   2.353   2.388
   83c3c     H3  924   0.462   2.695   2.493
   83c3c     H4  925   0.569   2.702   2.352
   83c3c     H5  926   0.354   2.357   2.393
   83c3c     H6  927   0.460   2.364   2.252
   83c3c     H7  928   0.306   2.585   2.369
   83c3c     H8  929   0.412   2.593   2.228
   83c3c     H9  930   0.661   2.479   2.672
   83c3c    H10  931   0.625   2.653   2.654
   83c3c    H11  932   0.492   2.534   2.659
   83c3c    H12  933   0.770   2.663   2.462
   83c3c    H13  934   0.806   2.490   2.480
   83c3c     C7  935   0.746   2.548   2.282
   83c3c    H14  936   0.680   2.621   2.235
   83c3c    H15  937   0.716   2.447   2.253
   83c3c     C8  938   0.890   2.573   2.235
   83c3c    H16  939   0.956   2.501   2.281
   83c3c    H17  940   0.920   2.674   2.263
   83c3c    H18  941   0.895   2.563   2.126
   84c3c      N  942   1.708   0.590   1.386
   84c3c     C1  943   1.651   0.719   1.343
   84c3c     C2  944   1.819   0.614   1.481
   84c3c     C3  945   1.727   0.833   1.411
   84c3c     C4  946   1.836   0.765   1.501
   84c3c     C5  947   1.604   0.510   1.452
   84c3c     C6  948   1.759   0.517   1.269
   84c3c     H1  949   1.546   0.723   1.371
   84c3c     H2  950   1.661   0.729   1.235
   84c3c     H3  951   1.796   0.567   1.576
   84c3c     H4  952   1.911   0.572   1.440
   84c3c     H5  953   1.659   0.893   1.472
   84c3c     H6  954   1.773   0.899   1.337
   84c3c     H7  955   1.822   0.791   1.606
   84c3c     H8  956   1.936   0.796   1.471
   84c3c     H9  957   1.522   0.492   1.383
   84c3c    H10  958   1.646   0.415   1.484
   84c3c    H11  959   1.566   0.564   1.539
   84c3c    H12  960   1.801   0.422   1.301
   84c3c    H13  961   1.677   0.499   1.199
   84c3c     C7  962   1.867   0.600   1.200
   84c3c    H14  963   1.949   0.618   1.270
   84c3c    H15  964   1.825   0.696   1.168
   84c3c     C8  965   1.920   0.524   1.079
   84c3c    H16  966   1.838   0.507   1.009
   84c3c    H17  967   1.962   0.429   1.110
   84c3c    H18  968   1.997   0.584   1.030
   85c3c      N  969   0.672   2.009   1.964
   85c3c     C1  970   0.786   1.916   1.974
   85c3c     C2  971   0.648   2.042   1.823
   85c3c     C3  972   0.839   1.885   1.834
   85c3c     C4  973   0.749   1.968   1.735
   85c3c     C5  974   0.552   1.947   2.021
   85c3c     C6  975   0.703   2.133   2.038
   85c3c     H1  976   0.753   1.824   2.021
   85c3c     H2  977   0.865   1.962   2.034
   85c3c     H3  978   0.547   2.012   1.795
   85c3c     H4  979   0.659   2.149   1.808
   85c3c     H5  980   0.832   1.779   1.813
   85c3c     H6  981   0.943   1.916   1.825
   85c3c     H7  982   0.697   1.902   1.665
   85c3c     H8  983   0.809   2.038   1.677
   85c3c     H9  984   0.570   1.923   2.126
   85c3c    H10  985   0.468   2.016   2.014
   85c3c    H11  986   0.529   1.855   1.967
   85c3c    H12  987   0.619   2.202   2.031
   85c3c    H13  988   0.721   2.109   2.143
   85c3c     C7  989   0.828   2.198   1.979
   85c3c    H14  990   0.810   2.222   1.874
   85c3c    H15  991   0.912   2.129   1.986
   85c3c     C8  992   0.860   2.326   2.055
   85c3c    H16  993   0.878   2.302   2.160
   85c3c    H17  994   0.776   2.395   2.048
   85c3c    H18  995   0.949   2.373   2.013
   86c3c      N  996   2.201   2.763   1.061
   86c3c     C1  997   2.086   2.690   1.007
   86c3c     C2  998   2.272   2.830   0.951
   86c3c     C3  999   2.080   2.708   0.855
   86c3c     C4 1000   2.202   2.800   0.818
   86c3c     C5 1001   2.154   2.864   1.157
   86c3c     C6 1002   2.292   2.670   1.128
   86c3c     H1 1003   1.994   2.728   1.051
   86c3c     H2 1004   2.096   2.584   1.030
   86c3c     H3 1005   2.273   2.938   0.968
   86c3c     H4 1006   2.375   2.794   0.947
   86c3c     H5 1007   1.986   2.754   0.825
   86c3c     H6 1008   2.088   2.612   0.804
   86c3c     H7 1009   2.168   2.892   0.771
   86c3c     H8 1010   2.270   2.749   0.749
   86c3c     H9 1011   2.101   2.815   1.238
   86c3c    H10 1012   2.239   2.919   1.197
   86c3c    H11 1013   2.087   2.934   1.107
   86c3c    H12 1014   2.377   2.724   1.168
   86c3c    H13 1015   2.239   2.620   1.210
   86c3c     C7 1016   2.341   2.565   1.028
   86c3c    H14 1017   2.394   2.614   0.947
   86c3c    H15 1018   2.256   2.510   0.988
   86c3c     C8 1019   2.436   2.468   1.099
   86c3c    H16 1020   2.383   2.418   1.180
   86c3c    H17 1021   2.521   2.522   1.139
   86c3c    H18 1022   2.471   2.393   1.027
   87c3c      N 1023   0.580   1.000   1.226
   87c3c     C1 1024   0.507   0.874   1.248
   87c3c     C2 1025   0.488   1.101   1.172
   87c3c     C3 1026   0.361   0.892   1.207
   87c3c     C4 1027   0.348   1.041   1.157
   87c3c     C5 1028   0.636   1.047   1.353
   87c3c     C6 1029   0.689   0.978   1.130
   87c3c     H1 1030   0.512   0.847   1.353
   87c3c     H2 1031   0.552   0.795   1.188
   87c3c     H3 1032   0.484   1.186   1.240
   87c3c     H4 1033   0.523   1.135   1.074
   87c3c     H5 1034   0.295   0.874   1.292
   87c3c     H6 1035   0.334   0.822   1.128
   87c3c     H7 1036   0.276   1.096   1.218
   87c3c     H8 1037   0.315   1.044   1.054
   87c3c     H9 1038   0.704   0.973   1.393
   87c3c    H10 1039   0.689   1.141   1.337
   87c3c    H11 1040   0.555   1.064   1.424
   87c3c    H12 1041   0.743   1.071   1.114
   87c3c    H13 1042   0.757   0.902   1.170
   87c3c     C7 1043   0.631   0.928   0.997
   87c3c    H14 1044   0.563   1.003   0.957
   87c3c    H15 1045   0.577   0.835   1.013
   87c3c     C8 1046   0.745   0.905   0.898
   87c3c    H16 1047   0.813   0.830   0.937
   87c3c    H17 1048   0.799   0.998   0.881
   87c3c    H18 1049   0.704   0.870   0.803
   88c3c      N 1050   1.859   2.021   1.090
   88c3c     C1 1051   1.721   1.987   1.052
   88c3c     C2 1052   1.928   1.899   1.135
   88c3c     C3 1053   1.697   1.838   1.073
   88c3c     C4 1054   1.832   1.780   1.127
   88c3c     C5 1055   1.929   2.077   0.974
   88c3c     C6 1056   1.858   2.120   1.199
   88c3c     H1 1057   1.705   2.013   0.947
   88c3c     H2 1058   1.651   2.044   1.114
   88c3c     H3 1059   2.015   1.880   1.071
   88c3c     H4 1060   1.961   1.912   1.238
   88c3c     H5 1061   1.669   1.790   0.979
   88c3c     H6 1062   1.616   1.821   1.145
   88c3c     H7 1063   1.872   1.704   1.060
   88c3c     H8 1064   1.819   1.735   1.226
   88c3c     H9 1065   1.878   2.167   0.940
   88c3c    H10 1066   2.032   2.102   1.002
   88c3c    H11 1067   1.931   2.004   0.893
   88c3c    H12 1068   1.960   2.144   1.227
   88c3c    H13 1069   1.806   2.210   1.165
   88c3c     C7 1070   1.785   2.061   1.320
   88c3c    H14 1071   1.836   1.971   1.353
   88c3c    H15 1072   1.682   2.037   1.292
   88c3c     C8 1073   1.783   2.164   1.433
   88c3c    H16 1074   1.732   2.254   1.400
   88c3c    H17 1075   1.886   2.189   1.461
   88c3c    H18 1076   1.731   2.123   1.519
   89c3c      N 1077   2.207   2.115   1.856
   89c3c     C1 1078   2.197   2.256   1.815
   89c3c     C2 1079   2.261   2.107   1.992
   89c3c     C3 1080   2.246   2.345   1.929
   89c3c     C4 1081   2.289   2.248   2.045
   89c3c     C5 1082   2.073   2.053   1.853
   89c3c     C6 1083   2.296   2.043   1.763
   89c3c     H1 1084   2.093   2.280   1.793
   89c3c     H2 1085   2.257   2.272   1.726
   89c3c     H3 1086   2.189   2.057   2.058
   89c3c     H4 1087   2.354   2.050   1.991
   89c3c     H5 1088   2.167   2.413   1.962
   89c3c     H6 1089   2.331   2.406   1.896
   89c3c     H7 1090   2.231   2.268   2.135
   89c3c     H8 1091   2.394   2.260   2.069
   89c3c     H9 1092   2.033   2.059   1.752
   89c3c    H10 1093   2.081   1.949   1.883
   89c3c    H11 1094   2.007   2.106   1.922
   89c3c    H12 1095   2.303   1.939   1.794
   89c3c    H13 1096   2.255   2.049   1.662
   89c3c     C7 1097   2.435   2.107   1.766
   89c3c    H14 1098   2.475   2.101   1.868
   89c3c    H15 1099   2.427   2.211   1.736
   89c3c     C8 1100   2.527   2.032   1.670
   89c3c    H16 1101   2.487   2.038   1.569
   89c3c    H17 1102   2.535   1.928   1.701
   89c3c    H18 1103   2.626   2.078   1.673
   90c3c      N 1104   1.541   2.642   1.596
   90c3c     C1 1105   1.658   2.722   1.632
   90c3c     C2 1106   1.424   2.730   1.578
   90c3c     C3 1107   1.619   2.870   1.638
   90c3c     C4 1108   1.466   2.875   1.603
   90c3c     C5 1109   1.567   2.569   1.470
   90c3c     C6 1110   1.513   2.545   1.703
   90c3c     H1 1111   1.736   2.709   1.557
   90c3c     H2 1112   1.696   2.691   1.729
   90c3c     H3 1113   1.387   2.720   1.476
   90c3c     H4 1114   1.346   2.702   1.648
   90c3c     H5 1115   1.677   2.928   1.567
   90c3c     H6 1116   1.637   2.910   1.738
   90c3c     H7 1117   1.449   2.936   1.514
   90c3c     H8 1118   1.408   2.918   1.685
   90c3c     H9 1119   1.653   2.504   1.484
   90c3c    H10 1120   1.480   2.510   1.444
   90c3c    H11 1121   1.588   2.641   1.391
   90c3c    H12 1122   1.426   2.485   1.676
   90c3c    H13 1123   1.599   2.480   1.716
   90c3c     C7 1124   1.485   2.620   1.833
   90c3c    H14 1125   1.399   2.685   1.820
   90c3c    H15 1126   1.572   2.680   1.860
   90c3c     C8 1127   1.456   2.519   1.945
   90c3c    H16 1128   1.542   2.454   1.958
   90c3c    H17 1129   1.369   2.460   1.918
   90c3c    H18 1130   1.436   2.573   2.038
   91c3c      N 1131   1.948   1.495   0.334
   91c3c     C1 1132   1.815   1.474   0.394
   91c3c     C2 1133   2.003   1.367   0.289
   91c3c     C3 1134   1.780   1.325   0.388
   91c3c     C4 1135   1.903   1.255   0.320
   91c3c     C5 1136   1.936   1.586   0.219
   91c3c     C6 1137   2.037   1.555   0.434
   91c3c     H1 1138   1.740   1.530   0.338
   91c3c     H2 1139   1.816   1.507   0.497
   91c3c     H3 1140   2.021   1.370   0.182
   91c3c     H4 1141   2.097   1.347   0.341
   91c3c     H5 1142   1.689   1.308   0.330
   91c3c     H6 1143   1.764   1.285   0.488
   91c3c     H7 1144   1.873   1.204   0.228
   91c3c     H8 1145   1.948   1.181   0.386
   91c3c     H9 1146   1.895   1.682   0.252
   91c3c    H10 1147   2.034   1.602   0.175
   91c3c    H11 1148   1.869   1.542   0.145
   91c3c    H12 1149   2.136   1.571   0.390
   91c3c    H13 1150   1.996   1.650   0.468
   91c3c     C7 1151   2.050   1.460   0.554
   91c3c    H14 1152   2.091   1.365   0.521
   91c3c    H15 1153   1.952   1.444   0.598
   91c3c     C8 1154   2.143   1.522   0.658
   91c3c    H16 1155   2.102   1.617   0.692
   91c3c    H17 1156   2.241   1.538   0.614
   91c3c    H18 1157   2.152   1.454   0.743
   92c3c      N 1158   0.630   0.620   2.377
   92c3c     C1 1159   0.557   0.507   2.435
   92c3c     C2 1160   0.550   0.743   2.393
   92c3c     C3 1161   0.423   0.556   2.492
   92c3c     C4 1162   0.419   0.710   2.464
   92c3c     C5 1163   0.759   0.636   2.445
   92c3c     C6 1164   0.653   0.596   2.234
   92c3c     H1 1165   0.616   0.462   2.514
   92c3c     H2 1166   0.538   0.432   2.357
   92c3c     H3 1167   0.607   0.816   2.452
   92c3c     H4 1168   0.529   0.786   2.295
   92c3c     H5 1169   0.417   0.535   2.599
   92c3c     H6 1170   0.340   0.506   2.443
   92c3c     H7 1171   0.412   0.766   2.558
   92c3c     H8 1172   0.334   0.737   2.402
   92c3c     H9 1173   0.818   0.545   2.434
   92c3c    H10 1174   0.813   0.720   2.403
   92c3c    H11 1175   0.742   0.654   2.552
   92c3c    H12 1176   0.707   0.680   2.191
   92c3c    H13 1177   0.712   0.505   2.221
   92c3c     C7 1178   0.519   0.580   2.162
   92c3c    H14 1179   0.460   0.671   2.174
   92c3c    H15 1180   0.465   0.496   2.205
   92c3c     C8 1181   0.544   0.554   2.013
   92c3c    H16 1182   0.602   0.463   2.001
   92c3c    H17 1183   0.598   0.639   1.970
   92c3c    H18 1184   0.448   0.543   1.962
   93c3c      N 1185   1.806   0.318   0.573
   93c3c     C1 1186   1.880   0.437   0.528
   93c3c     C2 1187   1.686   0.359   0.647
   93c3c     C3 1188   1.806   0.563   0.573
   93c3c     C4 1189   1.679   0.512   0.651
   93c3c     C5 1190   1.767   0.237   0.456
   93c3c     C6 1191   1.893   0.237   0.661
   93c3c     H1 1192   1.887   0.436   0.419
   93c3c     H2 1193   1.980   0.436   0.571
   93c3c     H3 1194   1.597   0.320   0.597
   93c3c     H4 1195   1.691   0.320   0.749
   93c3c     H5 1196   1.777   0.623   0.488
   93c3c     H6 1197   1.869   0.623   0.638
   93c3c     H7 1198   1.588   0.548   0.604
   93c3c     H8 1199   1.680   0.548   0.754
   93c3c     H9 1200   1.856   0.206   0.402
   93c3c    H10 1201   1.712   0.149   0.490
   93c3c    H11 1202   1.703   0.297   0.391
   93c3c    H12 1203   1.838   0.149   0.695
   93c3c    H13 1204   1.982   0.206   0.606
   93c3c     C7 1205   1.934   0.320   0.783
   93c3c    H14 1206   1.845   0.351   0.837
   93c3c    H15 1207   1.988   0.409   0.749
   93c3c     C8 1208   2.023   0.237   0.874
   93c3c    H16 1209   2.112   0.206   0.819
   93c3c    H17 1210   1.969   0.148   0.907
   93c3c    H18 1211   2.053   0.296   0.960
   94c3c      N 1212   2.735   2.135   2.172
   94c3c     C1 1213   2.627   2.045   2.128
   94c3c     C2 1214   2.861   2.095   2.109
   94c3c     C3 1215   2.684   1.940   2.033
   94c3c     C4 1216   2.838   1.972   2.020
   94c3c     C5 1217   2.702   2.273   2.132
   94c3c     C6 1218   2.748   2.129   2.318
   94c3c     H1 1219   2.550   2.102   2.077
   94c3c     H2 1220   2.584   1.995   2.216
   94c3c     H3 1221   2.900   2.177   2.048
   94c3c     H4 1222   2.934   2.070   2.186
   94c3c     H5 1223   2.635   1.945   1.936
   94c3c     H6 1224   2.670   1.839   2.073
   94c3c     H7 1225   2.864   1.994   1.917
   94c3c     H8 1226   2.898   1.888   2.054
   94c3c     H9 1227   2.608   2.303   2.178
   94c3c    H10 1228   2.782   2.340   2.164
   94c3c    H11 1229   2.692   2.278   2.023
   94c3c    H12 1230   2.828   2.196   2.350
   94c3c    H13 1231   2.655   2.159   2.365
   94c3c     C7 1232   2.783   1.986   2.360
   94c3c    H14 1233   2.876   1.956   2.313
   94c3c    H15 1234   2.703   1.919   2.328
   94c3c     C8 1235   2.797   1.979   2.512
   94c3c    H16 1236   2.703   2.009   2.559
   94c3c    H17 1237   2.876   2.046   2.544
   94c3c    H18 1238   2.821   1.877   2.542
   95c3c      N 1239   0.742   1.929   1.239
   95c3c     C1 1240   0.617   1.852   1.225
   95c3c     C2 1241   0.834   1.893   1.131
   95c3c     C3 1242   0.626   1.762   1.102
   95c3c     C4 1243   0.769   1.788   1.041
   95c3c     C5 1244   0.712   2.073   1.232
   95c3c     C6 1245   0.803   1.898   1.369
   95c3c     H1 1246   0.533   1.921   1.213
   95c3c     H2 1247   0.601   1.791   1.314
   95c3c     H3 1248   0.858   1.982   1.072
   95c3c     H4 1249   0.926   1.852   1.173
   95c3c     H5 1250   0.548   1.786   1.030
   95c3c     H6 1251   0.615   1.657   1.131
   95c3c     H7 1252   0.760   1.825   0.938
   95c3c     H8 1253   0.828   1.696   1.039
   95c3c     H9 1254   0.643   2.100   1.313
   95c3c    H10 1255   0.804   2.130   1.243
   95c3c    H11 1256   0.666   2.096   1.136
   95c3c    H12 1257   0.896   1.954   1.380
   95c3c    H13 1258   0.735   1.924   1.449
   95c3c     C7 1259   0.835   1.748   1.376
   95c3c    H14 1260   0.903   1.721   1.296
   95c3c    H15 1261   0.742   1.691   1.365
   95c3c     C8 1262   0.899   1.716   1.511
   95c3c    H16 1263   0.830   1.742   1.591
   95c3c    H17 1264   0.991   1.773   1.522
   95c3c    H18 1265   0.921   1.609   1.516
   96c3c      N 1266   1.321   0.863   2.223
   96c3c     C1 1267   1.367   0.789   2.104
   96c3c     C2 1268   1.359   1.005   2.211
   96c3c     C3 1269   1.439   0.886   2.009
   96c3c     C4 1270   1.434   1.026   2.079
   96c3c     C5 1271   1.175   0.852   2.233
   96c3c     C6 1272   1.383   0.805   2.343
   96c3c     H1 1273   1.282   0.745   2.053
   96c3c     H2 1274   1.436   0.711   2.135
   96c3c     H3 1275   1.269   1.066   2.213
   96c3c     H4 1276   1.423   1.032   2.294
   96c3c     H5 1277   1.389   0.889   1.913
   96c3c     H6 1278   1.542   0.855   1.994
   96c3c     H7 1279   1.381   1.099   2.017
   96c3c     H8 1280   1.534   1.064   2.098
   96c3c     H9 1281   1.146   0.747   2.242
   96c3c    H10 1282   1.140   0.906   2.321
   96c3c    H11 1283   1.129   0.895   2.144
   96c3c    H12 1284   1.348   0.860   2.431
   96c3c    H13 1285   1.355   0.701   2.352
   96c3c     C7 1286   1.535   0.817   2.333
   96c3c    H14 1287   1.563   0.922   2.324
   96c3c    H15 1288   1.569   0.762   2.245
   96c3c     C8 1289   1.599   0.757   2.458
   96c3c    H16 1290   1.571   0.652   2.467
   96c3c    H17 1291   1.565   0.812   2.546
   96c3c    H18 1292   1.708   0.765   2.451
   97c3c      N 1293   1.055   1.321   1.905
   97c3c     C1 1294   0.908   1.323   1.905
   97c3c     C2 1295   1.102   1.182   1.905
   97c3c     C3 1296   0.855   1.180   1.905
   97c3c     C4 1297   0.982   1.087   1.905
   97c3c     C5 1298   1.105   1.390   1.785
   97c3c     C6 1299   1.105   1.390   2.026
   97c3c     H1 1300   0.872   1.375   1.816
   97c3c     H2 1301   0.872   1.375   1.994
   97c3c     H3 1302   1.163   1.164   1.816
   97c3c     H4 1303   1.163   1.164   1.994
   97c3c     H5 1304   0.794   1.161   1.817
   97c3c     H6 1305   0.794   1.161   1.993
   97c3c     H7 1306   0.984   1.024   1.817
   97c3c     H8 1307   0.984   1.023   1.993
   97c3c     H9 1308   1.070   1.493   1.785
   97c3c    H10 1309   1.214   1.389   1.785
   97c3c    H11 1310   1.068   1.339   1.696
   97c3c    H12 1311   1.214   1.389   2.026
   97c3c    H13 1312   1.070   1.493   2.026
   97c3c     C7 1313   1.053   1.319   2.150
   97c3c    H14 1314   1.088   1.215   2.150
   97c3c    H15 1315   0.944   1.320   2.151
   97c3c     C8 1316   1.105   1.390   2.275
   97c3c    H16 1317   1.070   1.493   2.275
   97c3c    H17 1318   1.214   1.389   2.275
   97c3c    H18 1319   1.068   1.339   2.364
   98c3c      N 1320   2.223   1.401   2.780
   98c3c     C1 1321   2.263   1.432   2.642
   98c3c     C2 1322   2.343   1.381   2.863
   98c3c     C3 1323   2.415   1.433   2.632
   98c3c     C4 1324   2.468   1.399   2.776
   98c3c     C5 1325   2.144   1.513   2.835
   98c3c     C6 1326   2.142   1.279   2.782
   98c3c     H1 1327   2.224   1.530   2.614
   98c3c     H2 1328   2.222   1.357   2.575
   98c3c     H3 1329   2.344   1.454   2.944
   98c3c     H4 1330   2.342   1.280   2.905
   98c3c     H5 1331   2.451   1.530   2.599
   98c3c     H6 1332   2.450   1.358   2.560
   98c3c     H7 1333   2.530   1.480   2.815
   98c3c     H8 1334   2.528   1.308   2.776
   98c3c     H9 1335   2.055   1.528   2.774
   98c3c    H10 1336   2.115   1.490   2.937
   98c3c    H11 1337   2.205   1.604   2.834
   98c3c    H12 1338   2.112   1.256   2.884
   98c3c    H13 1339   2.053   1.293   2.721
   98c3c     C7 1340   2.223   1.163   2.725
   98c3c    H14 1341   2.312   1.148   2.786
   98c3c    H15 1342   2.253   1.185   2.623
   98c3c     C8 1343   2.139   1.035   2.727
   98c3c    H16 1344   2.050   1.050   2.665
   98c3c    H17 1345   2.109   1.012   2.829
   98c3c    H18 1346   2.197   0.952   2.686
   99c3c      N 1347   2.282   0.868   1.865
   99c3c     C1 1348   2.312   0.743   1.795
   99c3c     C2 1349   2.142   0.905   1.841
   99c3c     C3 1350   2.188   0.694   1.721
   99c3c     C4 1351   2.076   0.800   1.751
   99c3c     C5 1352   2.303   0.850   2.010
   99c3c     C6 1353   2.370   0.975   1.816
   99c3c     H1 1354   2.343   0.667   1.867
   99c3c     H2 1355   2.393   0.759   1.724
   99c3c     H3 1356   2.088   0.910   1.936
   99c3c     H4 1357   2.138   1.003   1.792
   99c3c     H5 1358   2.158   0.595   1.757
   99c3c     H6 1359   2.207   0.687   1.614
   99c3c     H7 1360   1.991   0.754   1.801
   99c3c     H8 1361   2.040   0.846   1.658
   99c3c     H9 1362   2.407   0.823   2.028
   99c3c    H10 1363   2.280   0.943   2.062
   99c3c    H11 1364   2.238   0.771   2.047
   99c3c    H12 1365   2.348   1.068   1.868
   99c3c    H13 1366   2.474   0.947   1.834
   99c3c     C7 1367   2.348   0.994   1.666
   99c3c    H14 1368   2.244   1.021   1.647
   99c3c    H15 1369   2.371   0.901   1.613
   99c3c     C8 1370   2.440   1.105   1.614
   99c3c    H16 1371   2.544   1.077   1.632
   99c3c    H17 1372   2.417   1.198   1.666
   99c3c    H18 1373   2.424   1.118   1.507
  100c3c      N 1374   1.976   2.287   2.477
  100c3c     C1 1375   1.865   2.198   2.439
  100c3c     C2 1376   2.103   2.228   2.433
  100c3c     C3 1377   1.920   2.076   2.366
  100c3c     C4 1378   2.076   2.095   2.362
  100c3c     C5 1379   1.957   2.418   2.414
  100c3c     C6 1380   1.977   2.303   2.623
  100c3c     H1 1381   1.796   2.251   2.373
  100c3c     H2 1382   1.811   2.166   2.529
  100c3c     H3 1383   2.152   2.297   2.364
  100c3c     H4 1384   2.167   2.211   2.519
  100c3c     H5 1385   1.880   2.069   2.266
  100c3c     H6 1386   1.894   1.984   2.420
  100c3c     H7 1387   2.112   2.098   2.260
  100c3c     H8 1388   2.127   2.014   2.414
  100c3c     H9 1389   1.863   2.462   2.446
  100c3c    H10 1390   2.040   2.484   2.442
  100c3c    H11 1391   1.956   2.406   2.305
  100c3c    H12 1392   2.060   2.369   2.652
  100c3c    H13 1393   1.883   2.347   2.656
  100c3c     C7 1394   1.997   2.167   2.690
  100c3c    H14 1395   2.091   2.123   2.657
  100c3c    H15 1396   1.914   2.101   2.662
  100c3c     C8 1397   1.998   2.184   2.842
  100c3c    H16 1398   1.904   2.227   2.875
  100c3c    H17 1399   2.080   2.250   2.870
  100c3c    H18 1400   2.012   2.087   2.889
  101fsi     F1 1401   0.959   2.825   2.109
  101fsi     S1 1402   0.956   2.776   1.959
  101fsi      N 1403   0.819   2.719   1.945
  101fsi     O1 1404   0.980   2.896   1.882
  101fsi     O2 1405   1.063   2.680   1.952
  101fsi     S2 1406   0.705   2.806   1.901
  101fsi     O3 1407   0.743   2.936   1.951
  101fsi     O4 1408   0.591   2.746   1.966
  101fsi     F2 1409   0.708   2.791   1.744
  102fsi     F1 1410   2.747   1.571   1.225
  102fsi     S1 1411   2.829   1.632   1.104
  102fsi      N 1412   2.722   1.667   1.005
  102fsi     O1 1413   2.898   1.745   1.162
  102fsi     O2 1414   2.916   1.524   1.063
  102fsi     S2 1415   2.658   1.803   1.009
  102fsi     O3 1416   2.667   1.838   1.149
  102fsi     O4 1417   2.525   1.777   0.960
  102fsi     F2 1418   2.750   1.888   0.913
  103fsi     F1 1419   1.106   1.101   0.553
  103fsi     S1 1420   1.099   1.231   0.465
  103fsi      N 1421   1.153   1.186   0.332
  103fsi     O1 1422   0.959   1.266   0.465
  103fsi     O2 1423   1.183   1.325   0.535
  103fsi     S2 1424   1.060   1.132   0.228
  103fsi     O3 1425   0.955   1.072   0.308
  103fsi     O4 1426   1.143   1.038   0.157
  103fsi     F2 1427   1.018   1.260   0.147
  104fsi     F1 1428   0.745   1.289   1.090
  104fsi     S1 1429   0.836   1.388   1.008
  104fsi      N 1430   0.896   1.299   0.904
  104fsi     O1 1431   0.743   1.487   0.957
  104fsi     O2 1432   0.929   1.439   1.105
  104fsi     S2 1433   0.827   1.280   0.772
  104fsi     O3 1434   0.688   1.296   0.807
  104fsi     O4 1435   0.867   1.147   0.734
  104fsi     F2 1436   0.888   1.396   0.683
  105fsi     F1 1437   1.001   2.371   2.453
  105fsi     S1 1438   1.154   2.400   2.471
  105fsi      N 1439   1.174   2.525   2.390
  105fsi     O1 1440   1.170   2.418   2.614
  105fsi     O2 1441   1.219   2.283   2.418
  105fsi     S2 1442   1.158   2.659   2.454
  105fsi     O3 1443   1.060   2.634   2.557
  105fsi     O4 1444   1.113   2.741   2.345
  105fsi     F2 1445   1.303   2.691   2.507
  106fsi     F1 1446   2.245   2.532   1.734
  106fsi     S1 1447   2.354   2.639   1.697
  106fsi      N 1448   2.430   2.655   1.826
  106fsi     O1 1449   2.429   2.577   1.590
  106fsi     O2 1450   2.278   2.754   1.656
  106fsi     S2 1451   2.549   2.568   1.855
  106fsi     O3 1452   2.516   2.446   1.784
  106fsi     O4 1453   2.546   2.559   1.998
  106fsi     F2 1454   2.668   2.651   1.794
  107fsi     F1 1455   0.183   1.873   0.339
  107fsi     S1 1456   0.317   1.879   0.422
  107fsi      N 1457   0.287   1.982   0.527
  107fsi     O1 1458   0.333   1.744   0.472
  107fsi     O2 1459   0.417   1.918   0.326
  107fsi     S2 1460   0.227   1.940   0.658
  107fsi     O3 1461   0.150   1.824   0.622
  107fsi     O4 1462   0.150   2.056   0.695
  107fsi     F2 1463   0.354   1.912   0.747
  108fsi     F1 1464   1.324   0.726   2.920
  108fsi     S1 1465   1.343   0.796   2.780
  108fsi      N 1466   1.314   0.940   2.809
  108fsi     O1 1467   1.481   0.768   2.745
  108fsi     O2 1468   1.247   0.731   2.694
  108fsi     S2 1469   1.424   1.032   2.852
  108fsi     O3 1470   1.515   0.943   2.919
  108fsi     O4 1471   1.356   1.127   2.936
  108fsi     F2 1472   1.476   1.090   2.714
  109fsi     F1 1473   2.232   1.855   1.096
  109fsi     S1 1474   2.262   1.703   1.073
  109fsi      N 1475   2.403   1.688   1.124
  109fsi     O1 1476   2.162   1.635   1.152
  109fsi     O2 1477   2.248   1.685   0.931
  109fsi     S2 1478   2.427   1.654   1.268
  109fsi     O3 1479   2.313   1.713   1.334
  109fsi     O4 1480   2.554   1.718   1.294
  109fsi     F2 1481   2.430   1.497   1.267
  110fsi     F1 1482   2.486   2.591   0.469
  110fsi     S1 1483   2.333   2.575   0.436
  110fsi      N 1484   2.294   2.711   0.387
  110fsi     O1 1485   2.329   2.471   0.336
  110fsi     O2 1486   2.274   2.537   0.563
  110fsi     S2 1487   2.304   2.743   0.241
  110fsi     O3 1488   2.414   2.660   0.198
  110fsi     O4 1489   2.331   2.885   0.242
  110fsi     F2 1490   2.162   2.702   0.186
  111fsi     F1 1491   1.098   1.714   1.141
  111fsi     S1 1492   1.178   1.796   1.249
  111fsi      N 1493   1.148   1.722   1.376
  111fsi     O1 1494   1.315   1.789   1.206
  111fsi     O2 1495   1.120   1.928   1.242
  111fsi     S2 1496   1.238   1.610   1.420
  111fsi     O3 1497   1.287   1.558   1.295
  111fsi     O4 1498   1.148   1.523   1.492
  111fsi     F2 1499   1.345   1.683   1.509
  112fsi     F1 1500   0.183   2.705   1.864
  112fsi     S1 1501   0.318   2.764   1.919
  112fsi      N 1502   0.272   2.857   2.028
  112fsi     O1 1503   0.391   2.648   1.966
  112fsi     O2 1504   0.378   2.829   1.805
  112fsi     S2 1505   0.256   2.806   2.168
  112fsi     O3 1506   0.221   2.668   2.148
  112fsi     O4 1507   0.150   2.890   2.220
  112fsi     F2 1508   0.398   2.832   2.231
  113fsi     F1 1509   0.736   0.378   0.853
  113fsi     S1 1510   0.733   0.241   0.775
  113fsi      N 1511   0.587   0.215   0.756
  113fsi     O1 1512   0.806   0.268   0.653
  113fsi     O2 1513   0.800   0.148   0.864
  113fsi     S2 1514   0.517   0.266   0.634
  113fsi     O3 1515   0.592   0.385   0.602
  113fsi     O4 1516   0.383   0.289   0.682
  113fsi     F2 1517   0.532   0.147   0.532
  114fsi     F1 1518   2.052   0.804   2.788
  114fsi     S1 1519   1.902   0.767   2.818
  114fsi      N 1520   1.840   0.901   2.848
  114fsi     O1 1521   1.856   0.706   2.695
  114fsi     O2 1522   1.908   0.678   2.930
  114fsi     S2 1523   1.781   0.983   2.737
  114fsi     O3 1524   1.861   0.945   2.623
  114fsi     O4 1525   1.801   1.118   2.783
  114fsi     F2 1526   1.631   0.935   2.733
  115fsi     F1 1527   0.695   1.903   2.651
  115fsi     S1 1528   0.752   1.996   2.764
  115fsi      N 1529   0.900   1.973   2.756
  115fsi     O1 1530   0.709   2.128   2.726
  115fsi     O2 1531   0.689   1.946   2.885
  115fsi     S2 1532   0.984   2.059   2.667
  115fsi     O3 1533   0.893   2.094   2.561
  115fsi     O4 1534   1.091   1.970   2.629
  115fsi     F2 1535   1.026   2.178   2.762
  116fsi     F1 1536   1.833   0.147   1.592
  116fsi     S1 1537   1.839   0.223   1.454
  116fsi      N 1538   1.887   0.360   1.494
  116fsi     O1 1539   1.934   0.147   1.377
  116fsi     O2 1540   1.704   0.218   1.405
  116fsi     S2 1541   2.033   0.390   1.498
  116fsi     O3 1542   2.091   0.262   1.532
  116fsi     O4 1543   2.042   0.491   1.601
  116fsi     F2 1544   2.064   0.441   1.352
  117fsi     F1 1545   0.858   2.279   1.667
  117fsi     S1 1546   0.762   2.404   1.658
  117fsi      N 1547   0.774   2.446   1.515
  117fsi     O1 1548   0.633   2.351   1.696
  117fsi     O2 1549   0.818   2.497   1.753
  117fsi     S2 1550   0.681   2.388   1.412
  117fsi     O3 1551   0.652   2.258   1.466
  117fsi     O4 1552   0.761   2.390   1.293
  117fsi     F2 1553   0.560   2.490   1.414
  118fsi     F1 1554   1.418   1.256   1.585
  118fsi     S1 1555   1.327   1.145   1.519
  118fsi      N 1556   1.403   1.019   1.545
  118fsi     O1 1557   1.202   1.156   1.590
  118fsi     O2 1558   1.320   1.184   1.380
  118fsi     S2 1559   1.378   0.941   1.671
  118fsi     O3 1560   1.339   1.043   1.764
  118fsi     O4 1561   1.506   0.879   1.696
  118fsi     F2 1562   1.263   0.842   1.628
  119fsi     F1 1563   2.748   1.395   1.856
  119fsi     S1 1564   2.605   1.329   1.857
  119fsi      N 1565   2.636   1.182   1.858
  119fsi     O1 1566   2.545   1.378   1.978
  119fsi     O2 1567   2.544   1.376   1.736
  119fsi     S2 1568   2.652   1.109   1.988
  119fsi     O3 1569   2.703   1.212   2.076
  119fsi     O4 1570   2.746   1.005   1.955
  119fsi     F2 1571   2.506   1.061   2.020
  120fsi     F1 1572   2.071   0.615   2.440
  120fsi     S1 1573   1.923   0.665   2.424
  120fsi      N 1574   1.931   0.809   2.464
  120fsi     O1 1575   1.893   0.643   2.284
  120fsi     O2 1576   1.847   0.582   2.514
  120fsi     S2 1577   1.959   0.915   2.361
  120fsi     O3 1578   2.040   0.843   2.265
  120fsi     O4 1579   2.029   1.015   2.437
  120fsi     F2 1580   1.816   0.955   2.311
  121fsi     F1 1581   2.640   0.680   2.791
  121fsi     S1 1582   2.590   0.814   2.857
  121fsi      N 1583   2.710   0.859   2.936
  121fsi     O1 1584   2.556   0.898   2.745
  121fsi     O2 1585   2.477   0.773   2.938
  121fsi     S2 1586   2.812   0.949   2.872
  121fsi     O3 1587   2.805   0.910   2.733
  121fsi     O4 1588   2.933   0.911   2.940
  121fsi     F2 1589   2.758   1.093   2.904
  122fsi     F1 1590   0.748   2.046   0.850
  122fsi     S1 1591   0.710   1.983   0.711
  122fsi      N 1592   0.561   1.996   0.707
  122fsi     O1 1593   0.780   2.065   0.615
  122fsi     O2 1594   0.758   1.847   0.720
  122fsi     S2 1595   0.498   2.119   0.650
  122fsi     O3 1596   0.596   2.221   0.678
  122fsi     O4 1597   0.375   2.130   0.725
  122fsi     F2 1598   0.480   2.082   0.498
  123fsi     F1 1599   1.401   0.544   0.203
  123fsi     S1 1600   1.524   0.467   0.264
  123fsi      N 1601   1.460   0.370   0.358
  123fsi     O1 1602   1.589   0.408   0.150
  123fsi     O2 1603   1.602   0.571   0.329
  123fsi     S2 1604   1.422   0.233   0.309
  123fsi     O3 1605   1.392   0.257   0.170
  123fsi     O4 1606   1.308   0.201   0.392
  123fsi     F2 1607   1.551   0.147   0.336
  124fsi     F1 1608   0.974   2.274   0.183
  124fsi     S1 1609   0.831   2.332   0.217
  124fsi      N 1610   0.739   2.228   0.160
  124fsi     O1 1611   0.830   2.342   0.361
  124fsi     O2 1612   0.828   2.459   0.149
  124fsi     S2 1613   0.694   2.113   0.245
  124fsi     O3 1614   0.805   2.095   0.335
  124fsi     O4 1615   0.674   2.008   0.149
  124fsi     F2 1616   0.562   2.168   0.312
  125fsi     F1 1617   1.357   1.362   0.973
  125fsi     S1 1618   1.404   1.505   1.021
  125fsi      N 1619   1.445   1.480   1.163
  125fsi     O1 1620   1.512   1.539   0.932
  125fsi     O2 1621   1.286   1.587   1.007
  125fsi     S2 1622   1.587   1.442   1.194
  125fsi     O3 1623   1.627   1.371   1.075
  125fsi     O4 1624   1.572   1.360   1.313
  125fsi     F2 1625   1.657   1.581   1.217
  126fsi     F1 1626   0.354   2.016   0.953
  126fsi     S1 1627   0.218   1.955   1.004
  126fsi      N 1628   0.261   1.840   1.090
  126fsi     O1 1629   0.155   2.064   1.075
  126fsi     O2 1630   0.149   1.917   0.882
  126fsi     S2 1631   0.286   1.862   1.236
  126fsi     O3 1632   0.329   1.999   1.241
  126fsi     O4 1633   0.388   1.764   1.265
  126fsi     F2 1634   0.146   1.833   1.301
  127fsi     F1 1635   1.455   2.557   0.392
  127fsi     S1 1636   1.346   2.671   0.389
  127fsi      N 1637   1.428   2.794   0.364
  127fsi     O1 1638   1.259   2.633   0.280
  127fsi     O2 1639   1.285   2.665   0.519
  127fsi     S2 1640   1.455   2.839   0.223
  127fsi     O3 1641   1.455   2.715   0.150
  127fsi     O4 1642   1.583   2.904   0.235
  127fsi     F2 1643   1.333   2.935   0.192
  128fsi     F1 1644   2.936   1.697   2.802
  128fsi     S1 1645   2.844   1.571   2.778
  128fsi      N 1646   2.724   1.629   2.709
  128fsi     O1 1647   2.924   1.484   2.696
  128fsi     O2 1648   2.819   1.520   2.911
  128fsi     S2 1649   2.721   1.639   2.559
  128fsi     O3 1650   2.861   1.655   2.526
  128fsi     O4 1651   2.638   1.755   2.537
  128fsi     F2 1652   2.657   1.501   2.516
  129fsi     F1 1653   1.744   0.681   0.191
  129fsi     S1 1654   1.679   0.820   0.226
  129fsi      N 1655   1.699   0.830   0.374
  129fsi     O1 1656   1.755   0.915   0.148
  129fsi     O2 1657   1.541   0.806   0.184
  129fsi     S2 1658   1.823   0.894   0.429
  129fsi     O3 1659   1.921   0.864   0.327
  129fsi     O4 1660   1.842   0.825   0.554
  129fsi     F2 1661   1.783   1.046   0.441
  130fsi     F1 1662   2.564   1.090   0.712
  130fsi     S1 1663   2.693   1.076   0.802
  130fsi      N 1664   2.652   0.975   0.905
  130fsi     O1 1665   2.795   1.031   0.710
  130fsi     O2 1666   2.714   1.209   0.854
  130fsi     S2 1667   2.675   0.829   0.879
  130fsi     O3 1668   2.665   0.820   0.735
  130fsi     O4 1669   2.567   0.767   0.952
  130fsi     F2 1670   2.819   0.804   0.938
  131fsi     F1 1671   2.937   1.272   1.604
  131fsi     S1 1672   2.843   1.183   1.515
  131fsi      N 1673   2.891   1.044   1.544
  131fsi     O1 1674   2.710   1.213   1.563
  131fsi     O2 1675   2.869   1.228   1.380
  131fsi     S2 1676   2.829   0.966   1.657
  131fsi     O3 1677   2.792   1.069   1.750
  131fsi     O4 1678   2.938   0.881   1.699
  131fsi     F2 1679   2.710   0.891   1.587
  132fsi     F1 1680   2.322   1.108   0.723
  132fsi     S1 1681   2.211   1.210   0.677
  132fsi      N 1682   2.136   1.133   0.572
  132fsi     O1 1683   2.135   1.237   0.797
  132fsi     O2 1684   2.286   1.323   0.628
  132fsi     S2 1685   2.018   1.049   0.610
  132fsi     O3 1686   2.051   1.008   0.745
  132fsi     O4 1687   2.022   0.944   0.512
  132fsi     F2 1688   1.898   1.149   0.598
  133fsi     F1 1689   0.397   2.001   2.790
  133fsi     S1 1690   0.344   2.106   2.685
  133fsi      N 1691   0.470   2.155   2.620
  133fsi     O1 1692   0.259   2.028   2.599
  133fsi     O2 1693   0.275   2.204   2.764
  133fsi     S2 1694   0.525   2.086   2.499
  133fsi     O3 1695   0.481   1.949   2.519
  133fsi     O4 1696   0.667   2.107   2.511
  133fsi     F2 1697   0.455   2.162   2.380
  134fsi     F1 1698   0.984   2.764   2.823
  134fsi     S1 1699   0.871   2.659   2.856
  134fsi      N 1700   0.770   2.741   2.930
  134fsi     O1 1701   0.828   2.611   2.727
  134fsi     O2 1702   0.939   2.559   2.936
  134fsi     S2 1703   0.660   2.809   2.855
  134fsi     O3 1704   0.721   2.836   2.727
  134fsi     O4 1705   0.633   2.925   2.936
  134fsi     F2 1706   0.545   2.701   2.852
  135fsi     F1 1707   1.467   0.454   2.461
  135fsi     S1 1708   1.393   0.410   2.593
  135fsi      N 1709   1.260   0.361   2.543
  135fsi     O1 1710   1.478   0.307   2.648
  135fsi     O2 1711   1.387   0.530   2.672
  135fsi     S2 1712   1.243   0.217   2.504
  135fsi     O3 1713   1.375   0.180   2.460
  135fsi     O4 1714   1.143   0.224   2.401
  135fsi     F2 1715   1.196   0.150   2.639
  136fsi     F1 1716   1.281   2.409   0.889
  136fsi     S1 1717   1.124   2.418   0.905
  136fsi      N 1718   1.082   2.274   0.910
  136fsi     O1 1719   1.106   2.491   1.027
  136fsi     O2 1720   1.082   2.489   0.786
  136fsi     S2 1721   1.074   2.204   1.042
  136fsi     O3 1722   1.175   2.271   1.120
  136fsi     O4 1723   1.104   2.067   1.007
  136fsi     F2 1724   0.925   2.231   1.087
  137fsi     F1 1725   1.709   1.896   0.543
  137fsi     S1 1726   1.629   1.869   0.410
  137fsi      N 1727   1.568   2.002   0.379
  137fsi     O1 1728   1.730   1.826   0.317
  137fsi     O2 1729   1.534   1.766   0.447
  137fsi     S2 1730   1.642   2.101   0.294
  137fsi     O3 1731   1.780   2.070   0.323
  137fsi     O4 1732   1.596   2.228   0.345
  137fsi     F2 1733   1.594   2.065   0.148
  138fsi     F1 1734   1.774   2.396   0.892
  138fsi     S1 1735   1.692   2.375   0.759
  138fsi      N 1736   1.796   2.391   0.652
  138fsi     O1 1737   1.638   2.242   0.772
  138fsi     O2 1738   1.592   2.480   0.763
  138fsi     S2 1739   1.872   2.271   0.604
  138fsi     O3 1740   1.875   2.186   0.721
  138fsi     O4 1741   1.999   2.328   0.566
  138fsi     F2 1742   1.783   2.218   0.485
  139fsi     F1 1743   2.170   1.679   2.127
  139fsi     S1 1744   2.299   1.755   2.080
  139fsi      N 1745   2.380   1.648   2.013
  139fsi     O1 1746   2.249   1.857   1.991
  139fsi     O2 1747   2.356   1.806   2.202
  139fsi     S2 1748   2.363   1.621   1.867
  139fsi     O3 1749   2.225   1.657   1.844
  139fsi     O4 1750   2.392   1.480   1.857
  139fsi     F2 1751   2.469   1.717   1.801
  140fsi     F1 1752   0.150   2.445   0.994
  140fsi     S1 1753   0.227   2.316   1.041
  140fsi      N 1754   0.363   2.368   1.076
  140fsi     O1 1755   0.150   2.269   1.154
  140fsi     O2 1756   0.223   2.229   0.926
  140fsi     S2 1757   0.392   2.416   1.215
  140fsi     O3 1758   0.264   2.464   1.260
  140fsi     O4 1759   0.492   2.517   1.194
  140fsi     F2 1760   0.443   2.285   1.287
  141fsi     F1 1761   1.669   2.315   1.844
  141fsi     S1 1762   1.784   2.217   1.889
  141fsi      N 1763   1.887   2.310   1.946
  141fsi     O1 1764   1.722   2.131   1.986
  141fsi     O2 1765   1.824   2.151   1.767
  141fsi     S2 1766   1.884   2.346   2.091
  141fsi     O3 1767   1.743   2.338   2.123
  141fsi     O4 1768   1.940   2.479   2.092
  141fsi     F2 1769   1.974   2.235   2.157
  142fsi     F1 1770   0.262   2.408   1.539
  142fsi     S1 1771   0.391   2.361   1.616
  142fsi      N 1772   0.477   2.485   1.617
  142fsi     O1 1773   0.343   2.320   1.745
  142fsi     O2 1774   0.443   2.253   1.535
  142fsi     S2 1775   0.465   2.582   1.730
  142fsi     O3 1776   0.328   2.568   1.771
  142fsi     O4 1777   0.498   2.708   1.667
  142fsi     F2 1778   0.572   2.529   1.834
  143fsi     F1 1779   0.609   0.523   2.919
  143fsi     S1 1780   0.636   0.655   2.837
  143fsi      N 1781   0.516   0.664   2.747
  143fsi     O1 1782   0.643   0.757   2.938
  143fsi     O2 1783   0.761   0.629   2.769
  143fsi     S2 1784   0.394   0.737   2.793
  143fsi     O3 1785   0.397   0.719   2.936
  143fsi     O4 1786   0.288   0.667   2.725
  143fsi     F2 1787   0.420   0.884   2.743
  144fsi     F1 1788   0.549   1.264   2.381
  144fsi     S1 1789   0.573   1.331   2.240
  144fsi      N 1790   0.649   1.225   2.165
  144fsi     O1 1791   0.440   1.357   2.190
  144fsi     O2 1792   0.650   1.449   2.270
  144fsi     S2 1793   0.574   1.123   2.085
  144fsi     O3 1794   0.450   1.110   2.157
  144fsi     O4 1795   0.661   1.008   2.091
  144fsi     F2 1796   0.563   1.190   1.943
  145fsi     F1 1797   0.270   2.436   2.167
  145fsi     S1 1798   0.357   2.388   2.044
  145fsi      N 1799   0.371   2.241   2.069
  145fsi     O1 1800   0.278   2.423   1.929
  145fsi     O2 1801   0.480   2.463   2.056
  145fsi     S2 1802   0.270   2.145   2.013
  145fsi     O3 1803   0.149   2.225   2.010
  145fsi     O4 1804   0.271   2.038   2.109
  145fsi     F2 1805   0.329   2.109   1.871
  146fsi     F1 1806   0.152   0.220   1.061
  146fsi     S1 1807   0.221   0.319   0.961
  146fsi      N 1808   0.173   0.454   1.007
  146fsi     O1 1809   0.362   0.296   0.979
  146fsi     O2 1810   0.171   0.279   0.831
  146fsi     S2 1811   0.252   0.530   1.110
  146fsi     O3 1812   0.313   0.425   1.187
  146fsi     O4 1813   0.150   0.605   1.178
  146fsi     F2 1814   0.351   0.615   1.022
  147fsi     F1 1815   1.728   1.576   2.288
  147fsi     S1 1816   1.802   1.454   2.220
  147fsi      N 1817   1.896   1.408   2.328
  147fsi     O1 1818   1.696   1.361   2.190
  147fsi     O2 1819   1.865   1.512   2.105
  147fsi     S2 1820   1.852   1.304   2.427
  147fsi     O3 1821   1.710   1.328   2.436
  147fsi     O4 1822   1.928   1.339   2.544
  147fsi     F2 1823   1.893   1.169   2.357
  148fsi     F1 1824   1.602   1.344   0.858
  148fsi     S1 1825   1.652   1.333   0.709
  148fsi      N 1826   1.526   1.350   0.630
  148fsi     O1 1827   1.747   1.441   0.696
  148fsi     O2 1828   1.711   1.201   0.702
  148fsi     S2 1829   1.482   1.486   0.587
  148fsi     O3 1830   1.534   1.571   0.692
  148fsi     O4 1831   1.338   1.474   0.584
  148fsi     F2 1832   1.551   1.503   0.447
  149fsi     F1 1833   2.416   0.507   1.433
  149fsi     S1 1834   2.337   0.394   1.509
  149fsi      N 1835   2.446   0.308   1.565
  149fsi     O1 1836   2.260   0.466   1.608
  149fsi     O2 1837   2.257   0.331   1.406
  149fsi     S2 1838   2.502   0.337   1.701
  149fsi     O3 1839   2.486   0.480   1.712
  149fsi     O4 1840   2.639   0.290   1.689
  149fsi     F2 1841   2.411   0.251   1.796
  150fsi     F1 1842   2.567   0.917   1.209
  150fsi     S1 1843   2.569   1.028   1.321
  150fsi      N 1844   2.703   1.092   1.303
  150fsi     O1 1845   2.456   1.112   1.289
  150fsi     O2 1846   2.555   0.953   1.444
  150fsi     S2 1847   2.717   1.210   1.210
  150fsi     O3 1848   2.615   1.185   1.112
  150fsi     O4 1849   2.853   1.197   1.163
  150fsi     F2 1850   2.690   1.333   1.305
  151fsi     F1 1851   1.406   2.115   1.410
  151fsi     S1 1852   1.358   1.994   1.321
  151fsi      N 1853   1.485   1.921   1.292
  151fsi     O1 1854   1.266   1.922   1.407
  151fsi     O2 1855   1.296   2.056   1.207
  151fsi     S2 1856   1.533   1.813   1.384
  151fsi     O3 1857   1.482   1.856   1.512
  151fsi     O4 1858   1.677   1.821   1.370
  151fsi     F2 1859   1.466   1.683   1.325
  152fsi     F1 1860   1.945   1.778   1.788
  152fsi     S1 1861   1.805   1.849   1.793
  152fsi      N 1862   1.709   1.736   1.769
  152fsi     O1 1863   1.799   1.906   1.926
  152fsi     O2 1864   1.810   1.947   1.687
  152fsi     S2 1865   1.655   1.657   1.885
  152fsi     O3 1866   1.763   1.666   1.981
  152fsi     O4 1867   1.634   1.527   1.828
  152fsi     F2 1868   1.525   1.736   1.924
  153fsi     F1 1869   2.730   0.142   2.207
  153fsi     S1 1870   2.628   0.255   2.165
  153fsi      N 1871   2.714   0.351   2.088
  153fsi     O1 1872   2.529   0.186   2.086
  153fsi     O2 1873   2.579   0.306   2.291
  153fsi     S2 1874   2.731   0.335   1.940
  153fsi     O3 1875   2.717   0.192   1.922
  153fsi     O4 1876   2.863   0.387   1.917
  153fsi     F2 1877   2.613   0.421   1.882
  154fsi     F1 1878   1.261   1.101   2.669
  154fsi     S1 1879   1.284   1.185   2.538
  154fsi      N 1880   1.426   1.231   2.551
  154fsi     O1 1881   1.261   1.090   2.431
  154fsi     O2 1882   1.185   1.290   2.546
  154fsi     S2 1883   1.538   1.148   2.497
  154fsi     O3 1884   1.485   1.013   2.508
  154fsi     O4 1885   1.647   1.179   2.585
  154fsi     F2 1886   1.553   1.201   2.349
  155fsi     F1 1887   1.227   2.614   2.936
  155fsi     S1 1888   1.336   2.672   2.837
  155fsi      N 1889   1.253   2.716   2.720
  155fsi     O1 1890   1.396   2.780   2.912
  155fsi     O2 1891   1.424   2.561   2.811
  155fsi     S2 1892   1.198   2.855   2.714
  155fsi     O3 1893   1.179   2.886   2.854
  155fsi     O4 1894   1.077   2.838   2.638
  155fsi     F2 1895   1.312   2.936   2.642
  156fsi     F1 1896   2.543   1.692   2.177
  156fsi     S1 1897   2.636   1.591   2.101
  156fsi      N 1898   2.773   1.651   2.119
  156fsi     O1 1899   2.615   1.466   2.169
  156fsi     O2 1900   2.587   1.593   1.965
  156fsi     S2 1901   2.856   1.612   2.238
  156fsi     O3 1902   2.756   1.583   2.338
  156fsi     O4 1903   2.934   1.731   2.261
  156fsi     F2 1904   2.937   1.487   2.185
  157fsi     F1 1905   1.117   1.462   2.665
  157fsi     S1 1906   0.976   1.393   2.676
  157fsi      N 1907   0.882   1.510   2.678
  157fsi     O1 1908   0.967   1.312   2.557
  157fsi     O2 1909   0.982   1.319   2.799
  157fsi     S2 1910   0.826   1.565   2.550
  157fsi     O3 1911   0.932   1.536   2.456
  157fsi     O4 1912   0.807   1.705   2.581
  157fsi     F2 1913   0.694   1.482   2.530
  158fsi     F1 1914   1.823   2.608   1.382
  158fsi     S1 1915   1.796   2.580   1.229
  158fsi      N 1916   1.932   2.552   1.174
  158fsi     O1 1917   1.707   2.467   1.230
  158fsi     O2 1918   1.735   2.702   1.181
  158fsi     S2 1919   1.985   2.412   1.173
  158fsi     O3 1920   1.921   2.353   1.288
  158fsi     O4 1921   2.128   2.432   1.186
  158fsi     F2 1922   1.938   2.357   1.033
  159fsi     F1 1923   1.936   2.698   2.069
  159fsi     S1 1924   1.810   2.684   1.975
  159fsi      N 1925   1.695   2.706   2.070
  159fsi     O1 1926   1.827   2.788   1.877
  159fsi     O2 1927   1.820   2.550   1.922
  159fsi     S2 1928   1.642   2.844   2.093
  159fsi     O3 1929   1.759   2.926   2.072
  159fsi     O4 1930   1.594   2.837   2.228
  159fsi     F2 1931   1.530   2.858   1.982
  160fsi     F1 1932   0.188   2.833   1.209
  160fsi     S1 1933   0.345   2.849   1.219
  160fsi      N 1934   0.362   2.923   1.349
  160fsi     O1 1935   0.394   2.714   1.220
  160fsi     O2 1936   0.380   2.925   1.101
  160fsi     S2 1937   0.379   2.846   1.477
  160fsi     O3 1938   0.304   2.726   1.452
  160fsi     O4 1939   0.322   2.936   1.574
  160fsi     F2 1940   0.535   2.828   1.487
  161fsi     F1 1941   2.768   1.646   1.693
  161fsi     S1 1942   2.856   1.769   1.648
  161fsi      N 1943   2.935   1.714   1.533
  161fsi     O1 1944   2.759   1.870   1.613
  161fsi     O2 1945   2.934   1.801   1.765
  161fsi     S2 1946   2.880   1.724   1.394
  161fsi     O3 1947   2.738   1.720   1.415
  161fsi     O4 1948   2.937   1.608   1.329
  161fsi     F2 1949   2.936   1.863   1.344
  162fsi     F1 1950   0.532   1.364   1.390
  162fsi     S1 1951   0.606   1.503   1.383
  162fsi      N 1952   0.492   1.600   1.369
  162fsi     O1 1953   0.677   1.511   1.508
  162fsi     O2 1954   0.690   1.492   1.266
  162fsi     S2 1955   0.429   1.659   1.491
  162fsi     O3 1956   0.446   1.555   1.589
  162fsi     O4 1957   0.293   1.682   1.448
  162fsi     F2 1958   0.514   1.789   1.516
  163fsi     F1 1959   2.673   2.056   1.179
  163fsi     S1 1960   2.528   2.064   1.241
  163fsi      N 1961   2.456   2.157   1.148
  163fsi     O1 1962   2.481   1.928   1.238
  163fsi     O2 1963   2.550   2.117   1.374
  163fsi     S2 1964   2.384   2.102   1.029
  163fsi     O3 1965   2.460   1.984   0.997
  163fsi     O4 1966   2.394   2.210   0.933
  163fsi     F2 1967   2.239   2.075   1.085
  164fsi     F1 1968   0.905   2.404   0.900
  164fsi     S1 1969   0.812   2.299   0.829
  164fsi      N 1970   0.721   2.254   0.939
  164fsi     O1 1971   0.747   2.374   0.724
  164fsi     O2 1972   0.904   2.198   0.781
  164fsi     S2 1973   0.592   2.326   0.964
  164fsi     O3 1974   0.622   2.461   0.921
  164fsi     O4 1975   0.573   2.309   1.106
  164fsi     F2 1976   0.490   2.248   0.872
  165fsi     F1 1977   2.814   2.495   1.658
  165fsi     S1 1978   2.801   2.376   1.761
  165fsi      N 1979   2.736   2.269   1.680
  165fsi     O1 1980   2.937   2.349   1.799
  165fsi     O2 1981   2.719   2.430   1.867
  165fsi     S2 1982   2.819   2.171   1.603
  165fsi     O3 1983   2.937   2.249   1.571
  165fsi     O4 1984   2.735   2.138   1.491
  165fsi     F2 1985   2.842   2.055   1.707
  166fsi     F1 1986   1.848   1.859   2.692
  166fsi     S1 1987   1.911   1.777   2.573
  166fsi      N 1988   2.032   1.858   2.537
  166fsi     O1 1989   1.940   1.648   2.631
  166fsi     O2 1990   1.807   1.776   2.473
  166fsi     S2 1991   2.163   1.830   2.603
  166fsi     O3 1992   2.124   1.781   2.733
  166fsi     O4 1993   2.227   1.960   2.602
  166fsi     F2 1994   2.229   1.723   2.508
  167fsi     F1 1995   2.782   0.553   2.036
  167fsi     S1 1996   2.734   0.615   2.172
  167fsi      N 1997   2.711   0.495   2.258
  167fsi     O1 1998   2.844   0.699   2.214
  167fsi     O2 1999   2.614   0.688   2.138
  167fsi     S2 2000   2.823   0.440   2.342
  167fsi     O3 2001   2.940   0.474   2.264
  167fsi     O4 2002   2.792   0.299   2.347
  167fsi     F2 2003   2.807   0.517   2.478
  168fsi     F1 2004   0.538   0.358   2.693
  168fsi     S1 2005   0.662   0.262   2.678
  168fsi      N 2006   0.776   0.347   2.726
  168fsi     O1 2007   0.630   0.150   2.763
  168fsi     O2 2008   0.665   0.231   2.537
  168fsi     S2 2009   0.814   0.345   2.872
  168fsi     O3 2010   0.688   0.318   2.937
  168fsi     O4 2011   0.867   0.478   2.891
  168fsi     F2 2012   0.920   0.229   2.879
  169fsi     F1 2013   0.512   0.582   0.449
  169fsi     S1 2014   0.655   0.579   0.383
  169fsi      N 2015   0.635   0.655   0.255
  169fsi     O1 2016   0.740   0.645   0.479
  169fsi     O2 2017   0.683   0.438   0.366
  169fsi     S2 2018   0.655   0.803   0.251
  169fsi     O3 2019   0.620   0.843   0.386
  169fsi     O4 2020   0.563   0.845   0.148
  169fsi     F2 2021   0.808   0.817   0.215
  170fsi     F1 2022   1.444   0.747   1.071
  170fsi     S1 2023   1.464   0.756   0.914
  170fsi      N 2024   1.578   0.853   0.901
  170fsi     O1 2025   1.495   0.621   0.875
  170fsi     O2 2026   1.337   0.805   0.865
  170fsi     S2 2027   1.719   0.803   0.899
  170fsi     O3 2028   1.711   0.684   0.981
  170fsi     O4 2029   1.792   0.913   0.956
  170fsi     F2 2030   1.745   0.777   0.746
  171fsi     F1 2031   2.811   2.257   0.750
  171fsi     S1 2032   2.659   2.219   0.764
  171fsi      N 2033   2.592   2.311   0.666
  171fsi     O1 2034   2.654   2.079   0.729
  171fsi     O2 2035   2.628   2.246   0.903
  171fsi     S2 2036   2.573   2.267   0.524
  171fsi     O3 2037   2.685   2.179   0.502
  171fsi     O4 2038   2.578   2.392   0.452
  171fsi     F2 2039   2.432   2.197   0.527
  172fsi     F1 2040   0.316   1.555   1.767
  172fsi     S1 2041   0.292   1.684   1.853
  172fsi      N 2042   0.339   1.794   1.762
  172fsi     O1 2043   0.150   1.684   1.878
  172fsi     O2 2044   0.373   1.664   1.970
  172fsi     S2 2045   0.243   1.860   1.668
  172fsi     O3 2046   0.149   1.753   1.639
  172fsi     O4 2047   0.328   1.898   1.558
  172fsi     F2 2048   0.184   1.979   1.753
  173fsi     F1 2049   1.326   2.366   1.383
  173fsi     S1 2050   1.264   2.499   1.326
  173fsi      N 2051   1.380   2.562   1.255
  173fsi     O1 2052   1.157   2.455   1.240
  173fsi     O2 2053   1.220   2.570   1.443
  173fsi     S2 2054   1.405   2.532   1.110
  173fsi     O3 2055   1.353   2.398   1.097
  173fsi     O4 2056   1.548   2.544   1.099
  173fsi     F2 2057   1.322   2.643   1.036
  174fsi     F1 2058   0.969   0.338   2.316
  174fsi     S1 2059   0.860   0.291   2.419
  174fsi      N 2060   0.731   0.328   2.351
  174fsi     O1 2061   0.882   0.149   2.431
  174fsi     O2 2062   0.889   0.366   2.539
  174fsi     S2 2063   0.664   0.231   2.260
  174fsi     O3 2064   0.774   0.155   2.206
  174fsi     O4 2065   0.597   0.317   2.165
  174fsi     F2 2066   0.568   0.151   2.357
  175fsi     F1 2067   0.362   2.706   2.703
  175fsi     S1 2068   0.236   2.616   2.729
  175fsi      N 2069   0.293   2.477   2.733
  175fsi     O1 2070   0.184   2.663   2.856
  175fsi     O2 2071   0.150   2.642   2.617
  175fsi     S2 2072   0.340   2.419   2.863
  175fsi     O3 2073   0.383   2.536   2.936
  175fsi     O4 2074   0.446   2.330   2.821
  175fsi     F2 2075   0.212   2.348   2.919
  176fsi     F1 2076   2.292   2.024   2.838
  176fsi     S1 2077   2.404   2.134   2.841
  176fsi      N 2078   2.525   2.058   2.887
  176fsi     O1 2079   2.411   2.182   2.705
  176fsi     O2 2080   2.355   2.232   2.936
  176fsi     S2 2081   2.615   1.993   2.787
  176fsi     O3 2082   2.525   1.962   2.679
  176fsi     O4 2083   2.666   1.879   2.859
  176fsi     F2 2084   2.721   2.106   2.756
  177fsi     F1 2085   2.454   2.252   2.359
  177fsi     S1 2086   2.518   2.380   2.426
  177fsi      N 2087   2.434   2.492   2.371
  177fsi     O1 2088   2.503   2.357   2.567
  177fsi     O2 2089   2.655   2.378   2.379
  177fsi     S2 2090   2.311   2.536   2.444
  177fsi     O3 2091   2.268   2.415   2.509
  177fsi     O4 2092   2.226   2.583   2.338
  177fsi     F2 2093   2.366   2.648   2.541
  178fsi     F1 2094   0.255   0.470   1.886
  178fsi     S1 2095   0.363   0.357   1.869
  178fsi      N 2096   0.285   0.245   1.806
  178fsi     O1 2097   0.463   0.416   1.783
  178fsi     O2 2098   0.409   0.330   2.003
  178fsi     S2 2099   0.276   0.235   1.656
  178fsi     O3 2100   0.284   0.373   1.615
  178fsi     O4 2101   0.147   0.172   1.638
  178fsi     F2 2102   0.400   0.146   1.618
  179fsi     F1 2103   1.904   1.972   0.476
  179fsi     S1 2104   1.973   1.941   0.615
  179fsi      N 2105   1.856   1.917   0.705
  179fsi     O1 2106   2.054   1.825   0.588
  179fsi     O2 2107   2.048   2.060   0.644
  179fsi     S2 2108   1.801   1.778   0.721
  179fsi     O3 2109   1.829   1.719   0.592
  179fsi     O4 2110   1.661   1.803   0.748
  179fsi     F2 2111   1.883   1.720   0.841
  180fsi     F1 2112   2.424   0.365   2.688
  180fsi     S1 2113   2.306   0.454   2.745
  180fsi      N 2114   2.357   0.593   2.726
  180fsi     O1 2115   2.193   0.419   2.663
  180fsi     O2 2116   2.294   0.412   2.883
  180fsi     S2 2117   2.328   0.667   2.599
  180fsi     O3 2118   2.320   0.561   2.502
  180fsi     O4 2119   2.442   0.754   2.586
  180fsi     F2 2120   2.191   0.740   2.630
  181fsi     F1 2121   2.750   1.407   0.764
  181fsi     S1 2122   2.688   1.537   0.700
  181fsi      N 2123   2.541   1.510   0.705
  181fsi     O1 2124   2.733   1.643   0.787
  181fsi     O2 2125   2.745   1.541   0.568
  181fsi     S2 2126   2.461   1.551   0.824
  181fsi     O3 2127   2.557   1.542   0.932
  181fsi     O4 2128   2.355   1.452   0.827
  181fsi     F2 2129   2.414   1.697   0.788
  182fsi     F1 2130   0.833   0.582   1.664
  182fsi     S1 2131   0.832   0.732   1.615
  182fsi      N 2132   0.911   0.803   1.721
  182fsi     O1 2133   0.895   0.727   1.485
  182fsi     O2 2134   0.692   0.766   1.611
  182fsi     S2 2135   1.059   0.818   1.707
  182fsi     O3 2136   1.095   0.700   1.632
  182fsi     O4 2137   1.104   0.820   1.844
  182fsi     F2 2138   1.074   0.954   1.629
  183fsi     F1 2139   2.048   2.290   0.808
  183fsi     S1 2140   2.189   2.265   0.874
  183fsi      N 2141   2.210   2.118   0.855
  183fsi     O1 2142   2.279   2.348   0.797
  183fsi     O2 2143   2.172   2.307   1.011
  183fsi     S2 2144   2.277   2.066   0.732
  183fsi     O3 2145   2.241   2.165   0.633
  183fsi     O4 2146   2.216   1.936   0.714
  183fsi     F2 2147   2.429   2.064   0.772
  184fsi     F1 2148   0.376   0.954   1.488
  184fsi     S1 2149   0.231   0.999   1.533
  184fsi      N 2150   0.248   1.023   1.680
  184fsi     O1 2151   0.206   1.118   1.455
  184fsi     O2 2152   0.147   0.887   1.499
  184fsi     S2 2153   0.287   1.159   1.730
  184fsi     O3 2154   0.367   1.210   1.621
  184fsi     O4 2155   0.360   1.128   1.851
  184fsi     F2 2156   0.149   1.230   1.751
  185fsi     F1 2157   1.966   1.184   2.029
  185fsi     S1 2158   1.839   1.094   2.051
  185fsi      N 2159   1.759   1.116   1.926
  185fsi     O1 2160   1.893   0.961   2.065
  185fsi     O2 2161   1.779   1.146   2.171
  185fsi     S2 2162   1.781   1.028   1.806
  185fsi     O3 2163   1.920   0.991   1.819
  185fsi     O4 2164   1.750   1.116   1.696
  185fsi     F2 2165   1.678   0.910   1.830
  186fsi     F1 2166   0.916   2.927   0.310
  186fsi     S1 2167   0.970   2.843   0.432
  186fsi      N 2168   0.867   2.734   0.445
  186fsi     O1 2169   1.100   2.798   0.390
  186fsi     O2 2170   0.972   2.937   0.542
  186fsi     S2 2171   0.885   2.605   0.371
  186fsi     O3 2172   0.957   2.647   0.253
  186fsi     O4 2173   0.748   2.563   0.348
  186fsi     F2 2174   0.966   2.516   0.472
  187fsi     F1 2175   0.551   1.363   1.609
  187fsi     S1 2176   0.539   1.296   1.752
  187fsi      N 2177   0.653   1.358   1.827
  187fsi     O1 2178   0.408   1.335   1.797
  187fsi     O2 2179   0.553   1.155   1.726
  187fsi     S2 2180   0.632   1.485   1.904
  187fsi     O3 2181   0.529   1.551   1.827
  187fsi     O4 2182   0.762   1.547   1.898
  187fsi     F2 2183   0.587   1.435   2.046
  188fsi     F1 2184   1.114   1.108   1.365
  188fsi     S1 2185   1.042   1.108   1.225
  188fsi      N 2186   1.039   1.253   1.188
  188fsi     O1 2187   1.128   1.026   1.142
  188fsi     O2 2188   0.913   1.050   1.252
  188fsi     S2 2189   1.153   1.313   1.111
  188fsi     O3 2190   1.266   1.233   1.153
  188fsi     O4 2191   1.153   1.450   1.157
  188fsi     F2 2192   1.109   1.293   0.961
  189fsi     F1 2193   2.549   1.472   0.462
  189fsi     S1 2194   2.595   1.355   0.367
  189fsi      N 2195   2.490   1.250   0.389
  189fsi     O1 2196   2.594   1.414   0.235
  189fsi     O2 2197   2.726   1.320   0.415
  189fsi     S2 2198   2.367   1.247   0.304
  189fsi     O3 2199   2.349   1.387   0.271
  189fsi     O4 2200   2.268   1.192   0.393
  189fsi     F2 2201   2.408   1.155   0.184
  190fsi     F1 2202   2.222   1.458   1.473
  190fsi     S1 2203   2.315   1.332   1.466
  190fsi      N 2204   2.235   1.227   1.538
  190fsi     O1 2205   2.333   1.308   1.325
  190fsi     O2 2206   2.435   1.373   1.535
  190fsi     S2 2207   2.141   1.140   1.461
  190fsi     O3 2208   2.100   1.225   1.353
  190fsi     O4 2209   2.039   1.110   1.559
  190fsi     F2 2210   2.231   1.017   1.420
  191fsi     F1 2211   1.549   2.168   0.964
  191fsi     S1 2212   1.444   2.073   0.896
  191fsi      N 2213   1.442   2.121   0.754
  191fsi     O1 2214   1.500   1.941   0.914
  191fsi     O2 2215   1.322   2.096   0.969
  191fsi     S2 2216   1.537   2.062   0.653
  191fsi     O3 2217   1.651   2.025   0.735
  191fsi     O4 2218   1.559   2.171   0.562
  191fsi     F2 2219   1.455   1.941   0.594
  192fsi     F1 2220   0.478   0.772   1.557
  192fsi     S1 2221   0.409   0.683   1.668
  192fsi      N 2222   0.495   0.707   1.788
  192fsi     O1 2223   0.276   0.738   1.677
  192fsi     O2 2224   0.415   0.549   1.614
  192fsi     S2 2225   0.463   0.819   1.882
  192fsi     O3 2226   0.402   0.917   1.795
  192fsi     O4 2227   0.593   0.855   1.934
  192fsi     F2 2228   0.366   0.752   1.986
  193fsi     F1 2229   2.440   0.922   0.167
  193fsi     S1 2230   2.529   0.954   0.293
  193fsi      N 2231   2.576   0.818   0.336
  193fsi     O1 2232   2.633   1.040   0.241
  193fsi     O2 2233   2.439   1.019   0.385
  193fsi     S2 2234   2.703   0.762   0.281
  193fsi     O3 2235   2.710   0.822   0.150
  193fsi     O4 2236   2.678   0.620   0.283
  193fsi     F2 2237   2.812   0.813   0.383
  194fsi     F1 2238   1.097   1.313   1.455
  194fsi     S1 2239   0.941   1.328   1.441
  194fsi      N 2240   0.894   1.186   1.428
  194fsi     O1 2241   0.900   1.393   1.564
  194fsi     O2 2242   0.923   1.409   1.323
  194fsi     S2 2243   0.858   1.107   1.550
  194fsi     O3 2244   0.944   1.163   1.651
  194fsi     O4 2245   0.890   0.972   1.510
  194fsi     F2 2246   0.705   1.137   1.568
  195fsi     F1 2247   1.571   1.282   1.741
  195fsi     S1 2248   1.506   1.225   1.872
  195fsi      N 2249   1.566   1.310   1.980
  195fsi     O1 2250   1.365   1.244   1.852
  195fsi     O2 2251   1.548   1.086   1.874
  195fsi     S2 2252   1.498   1.437   2.022
  195fsi     O3 2253   1.432   1.479   1.901
  195fsi     O4 2254   1.609   1.519   2.064
  195fsi     F2 2255   1.403   1.389   2.138
  196fsi     F1 2256   1.985   2.623   1.542
  196fsi     S1 2257   1.945   2.488   1.612
  196fsi      N 2258   1.973   2.386   1.505
  196fsi     O1 2259   2.031   2.480   1.727
  196fsi     O2 2260   1.805   2.506   1.643
  196fsi     S2 2261   2.108   2.321   1.497
  196fsi     O3 2262   2.195   2.424   1.548
  196fsi     O4 2263   2.121   2.293   1.357
  196fsi     F2 2264   2.092   2.195   1.590
  197fsi     F1 2265   1.815   0.772   1.933
  197fsi     S1 2266   1.783   0.619   1.916
  197fsi      N 2267   1.633   0.615   1.916
  197fsi     O1 2268   1.844   0.584   1.790
  197fsi     O2 2269   1.845   0.557   2.031
  197fsi     S2 2270   1.557   0.627   1.788
  197fsi     O3 2271   1.645   0.709   1.707
  197fsi     O4 2272   1.435   0.690   1.829
  197fsi     F2 2273   1.543   0.477   1.740
  198fsi     F1 2274   1.763   1.134   1.008
  198fsi     S1 2275   1.759   1.181   1.158
  198fsi      N 2276   1.613   1.183   1.189
  198fsi     O1 2277   1.834   1.079   1.229
  198fsi     O2 2278   1.823   1.310   1.156
  198fsi     S2 2279   1.546   1.060   1.243
  198fsi     O3 2280   1.623   0.954   1.186
  198fsi     O4 2281   1.411   1.073   1.192
  198fsi     F2 2282   1.560   1.078   1.399
  199fsi     F1 2283   1.090   2.911   1.647
  199fsi     S1 2284   1.091   2.800   1.536
  199fsi      N 2285   1.127   2.676   1.612
  199fsi     O1 2286   0.957   2.802   1.483
  199fsi     O2 2287   1.192   2.844   1.443
  199fsi     S2 2288   1.018   2.591   1.672
  199fsi     O3 2289   0.915   2.688   1.700
  199fsi     O4 2290   1.083   2.534   1.788
  199fsi     F2 2291   0.985   2.489   1.557
  200fsi     F1 2292   0.925   1.840   2.445
  200fsi     S1 2293   0.803   1.885   2.357
  200fsi      N 2294   0.823   1.809   2.229
  200fsi     O1 2295   0.687   1.845   2.434
  200fsi     O2 2296   0.820   2.028   2.345
  200fsi     S2 2297   0.762   1.673   2.213
  200fsi     O3 2298   0.760   1.623   2.348
  200fsi     O4 2299   0.855   1.608   2.124
  200fsi     F2 2300   0.621   1.705   2.151
   3.08570   3.08570   3.08570
