L3P1 short trajectory practice
 1650
    1Li+     Li    1   2.486   5.284   3.031 -0.2612 -0.4637  0.2169
    2Li+     Li    2   2.170   3.008   4.108  0.2423 -0.3956  0.2586
    3Li+     Li    3   3.741   2.548   2.393  1.7605  0.5948 -0.3733
    4Li+     Li    4   3.668   1.626   3.016  0.2277 -0.0464  0.0034
    5Li+     Li    5   2.719   0.938   3.946 -0.7641 -0.0634 -0.6107
    6Li+     Li    6   3.199   2.636   2.302  0.9961  1.4393 -0.5456
    7Li+     Li    7   3.012   4.148   2.816  0.1270 -0.3773  0.3361
    8Li+     Li    8   2.343   3.819   3.087 -0.0180 -0.5213 -0.0644
    9Li+     Li    9   2.588   3.982   3.695  0.8830  0.8541  0.0493
   10Li+     Li   10   3.118   5.435   3.869 -0.3407  0.4365 -0.2660
   11Li+     Li   11   3.191   2.470   4.789  0.9896  0.7205 -0.6163
   12Li+     Li   12   3.440   2.018   4.684 -0.4042 -0.5883  0.2188
   13Li+     Li   13   2.973   3.401   2.324  0.4999  0.3448 -0.6068
   14Li+     Li   14   3.805   1.429   2.428  0.1017 -0.7634 -0.0688
   15Li+     Li   15   2.417   3.063   4.610  0.0498 -1.0815  0.4448
   16Li+     Li   16   2.989   5.952   2.996 -0.2668 -0.4672 -0.5806
   17Li+     Li   17   2.823   2.143   2.492 -0.1890  0.1684  0.6546
   18Li+     Li   18   2.631   0.085   2.820 -0.1677  0.0232 -0.7543
   19Li+     Li   19   2.415   4.479   2.466  0.2367  0.1000  0.5866
   20Li+     Li   20   4.405   1.385   3.113 -0.2625  0.0052  0.8477
   21Li+     Li   21   2.735   4.937   5.942  1.1876 -1.2498 -1.2111
   22Li+     Li   22   2.931   5.697   3.415  0.0004 -0.6668 -0.8967
   23Li+     Li   23   3.092   1.537   2.486 -0.0930 -0.0848 -0.3714
   24Li+     Li   24   2.567   5.391   3.639 -1.7417  0.6816 -1.1237
   25Li+     Li   25   3.240   3.176   3.402  0.6076  0.2720 -0.9708
   26Li+     Li   26   4.025   1.621   2.847  0.2858 -0.1973 -0.5343
   27Li+     Li   27   3.074   0.507   2.837 -0.1021 -0.5690  0.7697
   28Li+     Li   28   2.270   3.579   3.927 -0.3295  1.0178 -0.6478
   29Li+     Li   29   2.392   2.494   2.460 -0.6653 -0.1009  1.5019
   30Li+     Li   30   3.784   2.056   3.806 -1.0270  0.1308 -1.2678
   31Li+     Li   31   3.016   2.008   4.939  0.7891 -0.2538 -0.1612
   32Li+     Li   32   2.964   4.519   0.230  0.5344  0.0028 -0.4792
   33Li+     Li   33   2.649   2.520   2.037  0.7278  0.6506 -1.3146
   34Li+     Li   34   2.602   3.496   3.586 -0.3617  0.0813  0.0997
   35Li+     Li   35   3.951   1.578   3.467 -0.0728 -0.4209 -0.0149
   36Li+     Li   36   3.267   2.220   4.171 -0.1574  0.4827  0.9516
   37Li+     Li   37   3.293   3.406   2.783  0.4716  0.1237 -0.0567
   38Li+     Li   38   2.269   4.044   2.462  0.7069  0.7201 -0.2576
   39Li+     Li   39   2.114   2.682   2.719  0.3444 -0.6649  0.0178
   40Li+     Li   40   2.651   4.767   0.477  0.2599  0.3979  0.0260
   41Li+     Li   41   2.350   3.500   4.348 -0.3016  1.2000  0.1653
   42Li+     Li   42   2.972   3.572   3.709 -1.1462 -0.1570  1.1490
   43Li+     Li   43   3.064   2.064   2.128  0.1683  0.0018  0.0951
   44Li+     Li   44   3.023   4.843   2.741 -0.6677  0.1404  0.6387
   45Li+     Li   45   2.814   2.333   3.410 -0.0612 -0.4606  0.2079
   46Li+     Li   46   3.305   4.959   3.591 -0.7509 -0.5410 -0.9655
   47Li+     Li   47   1.964   3.015   2.308 -0.6556  0.4613  0.1789
   48Li+     Li   48   2.621   2.501   2.949 -0.5865  0.3958  0.0740
   49Li+     Li   49   2.726   0.632   3.033  0.2369 -0.3379 -0.1881
   50Li+     Li   50   2.978   0.964   2.654 -0.4216  1.0165 -0.5762
   51Li+     Li   51   2.556   4.752   3.177  0.1223 -0.3895 -0.0227
   52Li+     Li   52   3.778   0.915   2.694 -0.7190 -0.5083 -0.2596
   53Li+     Li   53   4.218   1.909   3.453 -0.5442  0.1021  0.6538
   54Li+     Li   54   2.759   4.409   2.713  0.0017  0.3383  0.4026
   55Li+     Li   55   2.193   3.536   2.549  0.1276  0.3842  0.7401
   56Li+     Li   56   2.162   3.133   2.765 -0.8076  0.7028  0.0592
   57Li+     Li   57   3.343   4.269   2.829  0.1300  0.3658  0.7143
   58Li+     Li   58   2.759   4.873   3.703  0.8044 -0.4966  0.2139
   59Li+     Li   59   2.952   4.302   3.514 -0.5004 -0.2072 -0.1712
   60Li+     Li   60   3.346   1.015   2.318  0.6030  0.3754 -0.5041
   61Li+     Li   61   2.861   2.513   4.001 -0.6146 -0.0511  0.6789
   62Li+     Li   62   2.879   3.778   2.922 -0.6585 -0.2295 -0.4248
   63Li+     Li   63   3.495   3.816   2.853 -0.6834 -0.9377  0.3644
   64Li+     Li   64   3.475   4.476   3.235 -0.1903  1.0671  0.4394
   65Li+     Li   65   3.418   1.444   2.720 -0.1997 -0.3939 -0.2181
   66Li+     Li   66   2.615   2.328   4.561  0.1238 -0.9158 -1.5271
   67Li+     Li   67   2.830   5.456   2.840  0.8586 -0.0027 -0.7648
   68Li+     Li   68   4.071   2.368   3.443 -0.3180  0.9873 -0.3643
   69Li+     Li   69   2.561   4.350   3.106  0.0985  0.9477  0.4898
   70Li+     Li   70   3.195   4.690   3.102  0.8142 -0.3377  0.3046
   71Li+     Li   71   3.078   0.952   4.243 -0.3744  0.3476  0.8848
   72Li+     Li   72   2.074   4.507   2.856  0.5566  0.1059  0.6522
   73Li+     Li   73   2.655   3.828   2.586  0.3407 -0.8540  0.1294
   74Li+     Li   74   3.667   3.042   2.811 -0.5420 -0.3067  0.4430
   75Li+     Li   75   2.835   1.405   3.866  0.5317 -0.1823  1.3703
   76c3c     N4   76   3.697   1.993   2.210 -0.3419 -0.4108  0.0570
   76c3c     C1   77   3.774   2.049   2.097 -0.2922 -0.0981 -0.3028
   76c3c     C1   78   3.799   1.931   2.295 -1.2623  0.2567  0.0090
   76c3c     C2   79   3.911   2.103   2.150 -0.3495  0.5309  0.2581
   76c3c     C2   80   3.929   2.001   2.265  0.0497 -0.1263  0.6041
   76c3c     C1   81   3.634   2.110   2.280 -0.1051  0.4497 -0.3415
   76c3c     C1   82   3.584   1.903   2.166  0.0247 -0.5571  0.1283
   76c3c     H1   83   3.734   2.125   2.029  0.3786  0.7606  0.2497
   76c3c     H1   84   3.798   1.964   2.032 -2.4264 -0.2626 -0.9095
   76c3c     H1   85   3.781   1.945   2.401 -1.1685  1.3635 -0.1199
   76c3c     H1   86   3.806   1.822   2.286 -0.7858  0.1430  1.5933
   76c3c     HC   87   3.896   2.206   2.183 -1.2353  0.5427 -0.1635
   76c3c     HC   88   3.986   2.094   2.072 -1.3372 -1.5493 -0.4823
   76c3c     HC   89   3.983   2.038   2.352  2.2946 -1.8008 -0.0354
   76c3c     HC   90   3.994   1.919   2.234  0.2524  0.0917  0.4504
   76c3c     H1   91   3.578   2.175   2.212 -0.1354 -0.6010 -1.3369
   76c3c     H1   92   3.578   2.080   2.368 -2.0344  2.4324 -0.8356
   76c3c     H1   93   3.716   2.171   2.319 -1.0316  0.8416  1.0371
   76c3c     H1   94   3.510   1.903   2.247 -0.7407 -0.5810 -0.5658
   76c3c     H1   95   3.539   1.954   2.081  0.8997 -1.3168 -0.7920
   76c3c     C2   96   3.615   1.754   2.132 -0.0332 -0.0013 -0.3520
   76c3c     HC   97   3.634   1.696   2.222  1.3525  2.2991  0.9049
   76c3c     HC   98   3.707   1.751   2.074 -0.6012 -0.7218 -1.2217
   76c3c     CT   99   3.499   1.688   2.054 -0.3151 -0.9452 -0.0682
   76c3c     HC  100   3.501   1.732   1.955 -1.1399 -0.2605  0.2154
   76c3c     HC  101   3.408   1.695   2.113  1.2505 -0.2297  2.3795
   76c3c     HC  102   3.521   1.582   2.040  0.8534 -0.8670  1.0096
   77c3c     N4  103   3.503   1.657   4.231  0.0365 -0.1860  0.5419
   77c3c     C1  104   3.535   1.572   4.113 -0.6253  0.0249  0.4913
   77c3c     C1  105   3.637   1.690   4.279 -0.0697  0.0456  0.2056
   77c3c     C2  106   3.664   1.626   4.057 -0.3467  0.2285  0.1499
   77c3c     C2  107   3.732   1.709   4.163 -0.2003 -0.2967  0.7987
   77c3c     C1  108   3.433   1.782   4.188 -0.3306  0.0934  0.2856
   77c3c     C1  109   3.416   1.604   4.333 -0.3810  0.8184  0.6014
   77c3c     H1  110   3.454   1.584   4.041 -0.3221  1.5699  0.3884
   77c3c     H1  111   3.549   1.466   4.132  0.2537  0.4737  2.4488
   77c3c     H1  112   3.647   1.766   4.356 -0.3233  1.3328 -1.0008
   77c3c     H1  113   3.669   1.604   4.338  1.5902  0.3148 -0.2774
   77c3c     HC  114   3.636   1.693   3.975 -0.2436  1.2971  0.9773
   77c3c     HC  115   3.732   1.548   4.023  1.4410  2.2478 -1.0658
   77c3c     HC  116   3.743   1.813   4.133 -0.8814 -0.7769 -1.1763
   77c3c     HC  117   3.833   1.677   4.190  0.1724 -0.0389 -0.2623
   77c3c     H1  118   3.332   1.767   4.148 -0.2215 -0.9973  0.4190
   77c3c     H1  119   3.433   1.861   4.264  0.7357 -1.6308  2.1308
   77c3c     H1  120   3.491   1.828   4.108  1.9350 -0.2282  1.6955
   77c3c     H1  121   3.397   1.686   4.402  0.8989  1.1253  0.5856
   77c3c     H1  122   3.321   1.581   4.284  1.0380 -0.5631 -1.5814
   77c3c     C2  123   3.460   1.476   4.410 -0.2499  0.4480 -0.8275
   77c3c     HC  124   3.531   1.500   4.490 -0.5686  1.5807 -0.8737
   77c3c     HC  125   3.515   1.414   4.339 -1.4067 -1.9159  0.2707
   77c3c     CT  126   3.349   1.385   4.466 -0.3595 -0.8496 -0.5595
   77c3c     HC  127   3.374   1.282   4.439  0.7160 -0.6260 -0.4384
   77c3c     HC  128   3.250   1.417   4.435 -0.4353 -0.0872  0.4651
   77c3c     HC  129   3.355   1.366   4.573  0.5990 -0.0099 -0.4604
   78c3c     N4  130   3.576   2.730   3.483  0.4863 -0.1710 -0.1080
   78c3c     C1  131   3.646   2.858   3.507  0.0203  0.2501 -0.0443
   78c3c     C1  132   3.654   2.639   3.574  0.1910 -0.7983  0.1785
   78c3c     C2  133   3.677   2.863   3.659  0.0370 -0.1355  0.0529
   78c3c     C2  134   3.679   2.717   3.697  0.7914  0.2436 -0.0436
   78c3c     C1  135   3.439   2.727   3.526 -0.5407 -0.6423  0.0868
   78c3c     C1  136   3.580   2.697   3.341  0.0518 -0.1280 -0.4936
   78c3c     H1  137   3.578   2.941   3.489 -1.5195 -0.9919  0.0056
   78c3c     H1  138   3.741   2.878   3.456 -0.0630 -0.1452 -0.3468
   78c3c     H1  139   3.591   2.553   3.595 -0.5029 -0.1236  0.9351
   78c3c     H1  140   3.747   2.598   3.534 -1.0347 -1.7100 -1.8348
   78c3c     HC  141   3.596   2.908   3.715 -1.1164 -0.1646 -1.5795
   78c3c     HC  142   3.774   2.909   3.679  0.1740  0.4908 -1.9622
   78c3c     HC  143   3.605   2.704   3.776  0.1729  1.0735 -0.4767
   78c3c     HC  144   3.770   2.679   3.745 -1.5372 -1.7020  3.0185
   78c3c     H1  145   3.383   2.788   3.455 -0.2754  0.8515  1.1430
   78c3c     H1  146   3.400   2.625   3.524 -1.5104 -0.2824  0.2629
   78c3c     H1  147   3.424   2.761   3.629  0.1191 -0.1529  0.0180
   78c3c     H1  148   3.536   2.597   3.333 -1.8744  0.7650 -1.2752
   78c3c     H1  149   3.512   2.765   3.290  0.8498  0.4496 -0.7965
   78c3c     C2  150   3.717   2.698   3.274  0.4084  0.2514  0.3849
   78c3c     HC  151   3.786   2.649   3.343  1.4176  0.7611 -0.2653
   78c3c     HC  152   3.751   2.798   3.248  1.9772 -0.3645  0.0245
   78c3c     CT  153   3.729   2.622   3.141  0.2337 -0.0260  0.5477
   78c3c     HC  154   3.737   2.515   3.157  0.9538 -0.2353 -1.1005
   78c3c     HC  155   3.822   2.646   3.088 -0.0505  0.1309  0.1172
   78c3c     HC  156   3.644   2.658   3.083  0.2511  0.2454  0.6921
   79c3c     N4  157   3.303   1.844   3.724 -1.0816  0.1589  0.1282
   79c3c     C1  158   3.166   1.853   3.672 -0.1266 -0.1964  0.7678
   79c3c     C1  159   3.385   1.869   3.602 -0.0286 -0.1591 -0.1557
   79c3c     C2  160   3.159   1.972   3.573 -0.9934 -0.0082  0.4325
   79c3c     C2  161   3.294   1.961   3.506  0.3083  0.7208 -0.1224
   79c3c     C1  162   3.341   1.956   3.818  0.2144 -0.2251 -0.1702
   79c3c     C1  163   3.345   1.713   3.795  0.1865 -0.5225 -0.3374
   79c3c     H1  164   3.096   1.858   3.756 -0.7512 -0.1707  0.2438
   79c3c     H1  165   3.149   1.761   3.617  4.0207 -0.2883 -0.5398
   79c3c     H1  166   3.481   1.910   3.633 -1.8265  1.7491  3.2241
   79c3c     H1  167   3.404   1.779   3.544 -1.4539 -0.4882 -0.1484
   79c3c     HC  168   3.154   2.074   3.613  0.3075  1.2041 -2.3600
   79c3c     HC  169   3.073   1.970   3.506 -0.2522  3.6803 -0.7651
   79c3c     HC  170   3.332   2.062   3.494 -0.5692  1.0573 -0.0834
   79c3c     HC  171   3.292   1.921   3.405  0.4922  1.5083 -0.4342
   79c3c     H1  172   3.292   1.948   3.915  0.3894 -1.4408 -0.1722
   79c3c     H1  173   3.449   1.966   3.823  0.2432 -1.3429  2.8982
   79c3c     H1  174   3.295   2.047   3.780  0.0566 -0.0336  0.4640
   79c3c     H1  175   3.453   1.711   3.806  0.3345 -0.7905 -1.7113
   79c3c     H1  176   3.300   1.726   3.893 -2.3014  0.5147 -1.5560
   79c3c     C2  177   3.294   1.580   3.730  0.7573 -0.4229  0.2799
   79c3c     HC  178   3.333   1.570   3.629  2.3523  0.5267  0.7849
   79c3c     HC  179   3.185   1.577   3.729  0.6999  0.3059  2.0615
   79c3c     CT  180   3.329   1.466   3.826 -0.6997 -0.7896 -0.6230
   79c3c     HC  181   3.288   1.502   3.920  1.1549 -0.1498 -0.0389
   79c3c     HC  182   3.436   1.446   3.833 -0.4728 -0.1150 -1.8456
   79c3c     HC  183   3.274   1.373   3.810 -0.0283 -1.3894  0.5200
   80c3c     N4  184   2.873   0.436   3.668  0.5602  0.5373 -0.2432
   80c3c     C1  185   2.811   0.385   3.544 -0.1207  0.4269  0.2578
   80c3c     C1  186   2.811   0.567   3.680 -0.4356 -0.5255  0.0455
   80c3c     C2  187   2.663   0.432   3.552 -0.2303 -0.4426 -0.2967
   80c3c     C2  188   2.669   0.570   3.623 -0.1179 -0.0404 -0.1753
   80c3c     C1  189   2.827   0.342   3.774 -0.0075 -0.0438 -0.5636
   80c3c     C1  190   3.019   0.429   3.664 -0.6726 -0.3301  0.1339
   80c3c     H1  191   2.808   0.278   3.528  1.3062 -0.0772  2.9362
   80c3c     H1  192   2.857   0.418   3.451  0.2672 -1.6009 -0.2808
   80c3c     H1  193   2.819   0.614   3.779 -0.0632  0.9599 -0.6675
   80c3c     H1  194   2.871   0.642   3.628 -1.9359  0.0257 -0.9279
   80c3c     HC  195   2.592   0.368   3.604  0.0221 -0.5614 -0.0999
   80c3c     HC  196   2.621   0.442   3.452 -0.8725 -1.9541 -0.1965
   80c3c     HC  197   2.596   0.576   3.704 -1.9445 -1.5408 -1.6337
   80c3c     HC  198   2.669   0.657   3.557  1.2333 -1.2123 -1.7613
   80c3c     H1  199   2.873   0.243   3.764  1.2973  0.4842  0.0963
   80c3c     H1  200   2.856   0.378   3.872 -3.0233  0.0807  0.3048
   80c3c     H1  201   2.720   0.326   3.769  0.1131 -0.8922 -0.5366
   80c3c     H1  202   3.049   0.494   3.746 -3.3027  3.7396 -1.9857
   80c3c     H1  203   3.055   0.331   3.695  1.0024 -0.1279 -1.1135
   80c3c     C2  204   3.096   0.474   3.535  0.2344 -0.0323  0.9796
   80c3c     HC  205   3.072   0.579   3.515 -1.2778 -0.7900 -1.3782
   80c3c     HC  206   3.081   0.420   3.442  0.5612 -0.3299  1.1013
   80c3c     CT  207   3.247   0.486   3.568 -0.1124 -0.6319  0.0146
   80c3c     HC  208   3.293   0.389   3.588  1.1140 -0.3700 -1.4738
   80c3c     HC  209   3.268   0.568   3.637 -0.6534 -0.1096 -0.4392
   80c3c     HC  210   3.299   0.507   3.475  1.2496 -3.8281 -0.0170
   81c3c     N4  211   3.439   5.339   3.075 -0.0694 -0.4829  1.2184
   81c3c     C1  212   3.352   5.453   3.086 -1.0203 -0.9091  0.0548
   81c3c     C1  213   3.549   5.401   3.001 -0.0873  0.1056 -0.0377
   81c3c     C2  214   3.443   5.580   3.108  0.0712 -0.0205 -0.1024
   81c3c     C2  215   3.577   5.543   3.064  0.6295 -0.2607 -0.0130
   81c3c     C1  216   3.495   5.301   3.213  0.4084  0.1253  0.2761
   81c3c     C1  217   3.368   5.217   3.027  0.0756 -0.5509  0.2654
   81c3c     H1  218   3.276   5.433   3.162  0.2510 -2.6147  0.8866
   81c3c     H1  219   3.287   5.460   2.999 -1.8181 -3.5440  0.4003
   81c3c     H1  220   3.639   5.343   2.983 -0.0413 -0.3850  1.7014
   81c3c     H1  221   3.515   5.435   2.903  0.3932  0.0809 -0.2150
   81c3c     HC  222   3.446   5.608   3.213 -1.8733 -0.3755  0.0729
   81c3c     HC  223   3.418   5.672   3.055  2.3180  2.8400  3.5674
   81c3c     HC  224   3.645   5.531   3.148 -1.2327 -1.5284  1.3652
   81c3c     HC  225   3.616   5.609   2.987 -1.1162  1.1173  0.2616
   81c3c     H1  226   3.424   5.275   3.292  0.5657  0.2341  0.4523
   81c3c     H1  227   3.551   5.208   3.202 -0.4065 -0.2909 -0.4335
   81c3c     H1  228   3.554   5.376   3.266  1.0607  1.4911 -2.3206
   81c3c     H1  229   3.439   5.135   3.022  1.6617  0.7585  0.7799
   81c3c     H1  230   3.299   5.180   3.104 -2.1664  0.3556 -1.2445
   81c3c     C2  231   3.291   5.231   2.895 -0.1770 -0.3477  0.3057
   81c3c     HC  232   3.358   5.266   2.817 -0.8828 -2.8324 -1.4721
   81c3c     HC  233   3.208   5.301   2.906 -0.0818 -0.3707  1.2274
   81c3c     CT  234   3.229   5.102   2.835  0.2959  0.0221 -0.2710
   81c3c     HC  235   3.306   5.040   2.788 -1.2241 -1.7787 -0.4574
   81c3c     HC  236   3.150   5.116   2.761  2.1513  1.3397 -2.0739
   81c3c     HC  237   3.192   5.036   2.914 -0.8108 -0.4889 -1.2040
   82c3c     N4  238   2.632   1.877   3.817 -0.1384  0.4549  0.7634
   82c3c     C1  239   2.572   1.819   3.940  0.8022  0.3111 -0.3198
   82c3c     C1  240   2.586   2.015   3.812  0.1721  0.2384  0.6534
   82c3c     C2  241   2.577   1.937   4.037 -0.5149 -0.3961 -0.0702
   82c3c     C2  242   2.595   2.064   3.953 -0.1227 -0.0046 -0.8326
   82c3c     C1  243   2.776   1.865   3.832  0.1737  0.9437 -0.1179
   82c3c     C1  244   2.599   1.793   3.696 -0.5528  0.3009 -0.0677
   82c3c     H1  245   2.620   1.729   3.978 -0.4760 -0.2317  0.0426
   82c3c     H1  246   2.466   1.798   3.930  0.2876  3.2434 -1.4725
   82c3c     H1  247   2.639   2.072   3.735  0.8678 -1.3408 -0.0493
   82c3c     H1  248   2.481   2.022   3.783  0.6682  0.5502 -1.1306
   82c3c     HC  249   2.657   1.936   4.111  0.4163 -1.7866 -1.0566
   82c3c     HC  250   2.484   1.956   4.090 -1.3611  1.3517 -2.1258
   82c3c     HC  251   2.691   2.107   3.981 -0.3271  0.3589 -0.6837
   82c3c     HC  252   2.511   2.131   3.973 -2.0583 -2.6256  0.1607
   82c3c     H1  253   2.801   1.759   3.840  1.7727  1.3435  0.5226
   82c3c     H1  254   2.835   1.908   3.751 -1.3121 -0.7381 -2.1366
   82c3c     H1  255   2.805   1.914   3.925  0.3012  0.4005  0.1302
   82c3c     H1  256   2.668   1.815   3.614 -1.2491  0.2667 -0.6768
   82c3c     H1  257   2.617   1.691   3.728 -0.8953  0.6664  1.3445
   82c3c     C2  258   2.457   1.806   3.633 -0.4833  1.0584  0.4062
   82c3c     HC  259   2.440   1.906   3.594 -1.1542  0.6841 -0.2633
   82c3c     HC  260   2.380   1.796   3.710 -1.1030 -3.7952 -0.6491
   82c3c     CT  261   2.428   1.692   3.529  0.5196 -0.5895  0.4800
   82c3c     HC  262   2.325   1.700   3.494  0.5952  0.6873  0.5499
   82c3c     HC  263   2.444   1.591   3.568  0.3124 -0.5247  0.7348
   82c3c     HC  264   2.494   1.701   3.443 -0.1192 -0.6943 -0.0285
   83c3c     N4  265   3.630   2.258   2.878 -0.3609 -0.1066 -0.6843
   83c3c     C1  266   3.723   2.171   2.811  0.3852 -0.2007 -0.9446
   83c3c     C1  267   3.661   2.231   3.018  0.3355  0.2980  0.2803
   83c3c     C2  268   3.845   2.165   2.895  0.1891 -0.5216  0.2905
   83c3c     C2  269   3.812   2.233   3.033 -0.4179  0.6506  0.1063
   83c3c     C1  270   3.655   2.403   2.850 -0.0425 -0.0443  0.0269
   83c3c     C1  271   3.489   2.247   2.840 -0.9477 -0.8446  0.5876
   83c3c     H1  272   3.742   2.199   2.708 -1.6978  2.4393 -0.6708
   83c3c     H1  273   3.687   2.068   2.807  1.8688 -0.8188  0.7130
   83c3c     H1  274   3.604   2.291   3.089 -1.0347 -1.7600  0.9569
   83c3c     H1  275   3.630   2.128   3.034 -1.6443  1.0798  1.7178
   83c3c     HC  276   3.931   2.210   2.845 -1.0160  0.6787 -0.7057
   83c3c     HC  277   3.881   2.063   2.912  0.7217 -0.4922 -0.6425
   83c3c     HC  278   3.848   2.334   3.048  0.1154  0.6671 -1.1656
   83c3c     HC  279   3.850   2.185   3.123  0.2851  3.8186  1.5325
   83c3c     H1  280   3.633   2.421   2.745 -0.7365 -3.1663 -0.4330
   83c3c     H1  281   3.596   2.466   2.916  0.8626  0.2802  0.5340
   83c3c     H1  282   3.759   2.434   2.863  0.2714 -2.0064  2.6093
   83c3c     H1  283   3.427   2.324   2.886 -0.2971 -0.3492  0.6345
   83c3c     H1  284   3.485   2.268   2.733  0.9817  0.7133  0.7821
   83c3c     C2  285   3.425   2.108   2.862  0.3088  0.1861  0.5383
   83c3c     HC  286   3.439   2.077   2.965 -1.4049  0.1969  0.7875
   83c3c     HC  287   3.470   2.033   2.797 -2.9396 -0.7251 -0.7859
   83c3c     CT  288   3.276   2.113   2.848  0.0686 -0.2999 -0.7568
   83c3c     HC  289   3.238   2.145   2.751  0.4165 -0.3646 -0.9125
   83c3c     HC  290   3.228   2.169   2.928 -0.3501 -0.1217 -1.1306
   83c3c     HC  291   3.252   2.007   2.854  0.1243 -0.2745 -0.0800
   84c3c     N4  292   2.718   1.586   4.521  0.1561  0.1048 -0.4394
   84c3c     C1  293   2.723   1.439   4.536  0.6701 -0.2784  0.0600
   84c3c     C1  294   2.862   1.633   4.522 -0.3644  0.5055 -0.1161
   84c3c     C2  295   2.856   1.403   4.477 -0.5409 -0.2535  0.0108
   84c3c     C2  296   2.951   1.512   4.512  0.1049  0.0142  0.3256
   84c3c     C1  297   2.657   1.604   4.386  0.4529 -0.4578 -0.5692
   84c3c     C1  298   2.624   1.658   4.616 -0.2302  0.0607 -0.1314
   84c3c     H1  299   2.638   1.381   4.502  1.3282 -0.2938 -1.6118
   84c3c     H1  300   2.731   1.418   4.643 -0.1249  1.0345  0.3860
   84c3c     H1  301   2.893   1.702   4.444 -0.0137  1.2013  0.6267
   84c3c     H1  302   2.886   1.683   4.616 -2.6269 -0.5221  1.0373
   84c3c     HC  303   2.849   1.393   4.369 -2.3317  3.9577 -0.3596
   84c3c     HC  304   2.884   1.302   4.509 -2.0053 -0.4971  0.5911
   84c3c     HC  305   3.036   1.522   4.444 -0.5138  0.6602 -0.3626
   84c3c     HC  306   2.988   1.497   4.613  1.7138  3.5347  0.3332
   84c3c     H1  307   2.555   1.565   4.381  0.3392 -0.5199  1.6689
   84c3c     H1  308   2.643   1.708   4.359 -0.3542 -0.8349 -1.6574
   84c3c     H1  309   2.707   1.561   4.299 -0.4528  0.2296 -1.4515
   84c3c     H1  310   2.649   1.763   4.598  0.3723 -0.1127 -0.3001
   84c3c     H1  311   2.518   1.655   4.588  0.1729 -1.5543 -1.5051
   84c3c     C2  312   2.639   1.617   4.762 -0.2219 -0.0314 -0.2933
   84c3c     HC  313   2.743   1.608   4.794 -0.1449 -1.8614 -0.9929
   84c3c     HC  314   2.593   1.522   4.788  1.6729 -0.7240  0.6664
   84c3c     CT  315   2.576   1.737   4.834 -0.3547 -0.2953  0.0579
   84c3c     HC  316   2.616   1.836   4.810 -0.4485 -0.4558 -0.7755
   84c3c     HC  317   2.597   1.729   4.940 -0.5490 -0.7987  0.0583
   84c3c     HC  318   2.468   1.746   4.824 -0.2139 -0.3117 -1.6055
   85c3c     N4  319   2.650   3.072   2.973  0.4266 -0.3895 -0.0712
   85c3c     C1  320   2.588   3.135   2.857 -0.7551  0.4199 -0.0434
   85c3c     C1  321   2.572   3.126   3.089 -0.0989  0.1589 -0.1214
   85c3c     C2  322   2.440   3.146   2.887 -0.2114 -0.5516 -0.4393
   85c3c     C2  323   2.430   3.133   3.039  0.0427  0.1213  0.3220
   85c3c     C1  324   2.640   2.926   2.962 -0.0254 -0.7147 -0.6043
   85c3c     C1  325   2.792   3.095   2.986  0.0660 -0.0446  0.0838
   85c3c     H1  326   2.599   3.062   2.776  1.1343 -0.3287  0.8551
   85c3c     H1  327   2.620   3.234   2.827 -0.0660  0.1413 -0.2243
   85c3c     H1  328   2.585   3.069   3.181  1.5199  1.4810  0.5093
   85c3c     H1  329   2.590   3.229   3.118  1.2439  0.2219 -1.1235
   85c3c     HC  330   2.391   3.057   2.848  0.5046 -1.7298  1.3177
   85c3c     HC  331   2.394   3.239   2.853 -0.3317  0.5719  2.6087
   85c3c     HC  332   2.383   3.037   3.062 -0.3658  0.1535 -0.3514
   85c3c     HC  333   2.380   3.218   3.087  0.0885 -1.4598  3.2669
   85c3c     H1  334   2.697   2.888   2.877 -2.2646 -1.1326 -1.9439
   85c3c     H1  335   2.669   2.873   3.053 -0.6315  0.0638  0.0441
   85c3c     H1  336   2.535   2.901   2.947 -0.3949 -0.9047  2.0137
   85c3c     H1  337   2.828   3.047   3.077  0.6851  1.2721  0.5382
   85c3c     H1  338   2.843   3.049   2.901 -1.3413  1.2616 -1.5103
   85c3c     C2  339   2.839   3.248   2.992 -0.5476  0.1042  1.0460
   85c3c     HC  340   2.806   3.280   3.091 -0.2846  0.8721  0.8874
   85c3c     HC  341   2.789   3.317   2.925  1.5642  0.8378  0.2246
   85c3c     CT  342   2.990   3.261   2.988 -0.6947 -0.4481 -0.4975
   85c3c     HC  343   3.030   3.221   2.895  0.8779  0.4089 -0.1933
   85c3c     HC  344   3.037   3.211   3.073  2.1957  1.4036 -0.9430
   85c3c     HC  345   3.013   3.367   2.996  1.9753 -0.8384 -2.3979
   86c3c     N4  346   3.144   2.748   2.835 -0.1815 -0.1074  0.3025
   86c3c     C1  347   3.242   2.706   2.932  0.7784  0.8411  0.5209
   86c3c     C1  348   3.056   2.834   2.919  0.1776  0.9927 -0.3431
   86c3c     C2  349   3.275   2.837   3.010  0.1297 -0.3945 -0.1607
   86c3c     C2  350   3.148   2.921   2.996 -0.2889 -0.5178  0.2341
   86c3c     C1  351   3.200   2.829   2.727  0.6522 -0.6549  0.6429
   86c3c     C1  352   3.071   2.640   2.767  0.4561  0.3226 -0.1922
   86c3c     H1  353   3.328   2.656   2.888  0.0219  1.0623 -1.2482
   86c3c     H1  354   3.212   2.635   3.009  0.0668  1.4745  0.8328
   86c3c     H1  355   2.979   2.887   2.862 -0.8488  0.3872  0.4636
   86c3c     H1  356   3.006   2.778   2.998  1.4058 -0.0780 -0.3195
   86c3c     HC  357   3.353   2.897   2.962  0.0933 -0.2680 -0.0613
   86c3c     HC  358   3.299   2.827   3.116 -1.5370 -1.8134  0.0881
   86c3c     HC  359   3.168   3.014   2.944 -0.7211  0.5568  1.9476
   86c3c     HC  360   3.085   2.932   3.084 -1.7022 -0.6147 -0.7534
   86c3c     H1  361   3.279   2.772   2.677  1.6923  0.9368  0.4277
   86c3c     H1  362   3.129   2.867   2.654  1.6082  1.3570  0.7191
   86c3c     H1  363   3.266   2.913   2.752 -0.2749  1.5968 -3.8877
   86c3c     H1  364   2.976   2.683   2.734 -0.1500  0.2806  1.4725
   86c3c     H1  365   3.133   2.601   2.686  2.1395  0.6305  0.9444
   86c3c     C2  366   3.041   2.514   2.852  0.6215  0.3171 -0.3733
   86c3c     HC  367   2.979   2.550   2.934 -2.2471 -0.7525 -1.9907
   86c3c     HC  368   3.136   2.473   2.886  0.1232 -1.6649 -1.3103
   86c3c     CT  369   2.979   2.402   2.771 -0.3460  0.0048 -0.2316
   86c3c     HC  370   2.978   2.312   2.833  3.3016  0.0913  0.0258
   86c3c     HC  371   3.050   2.372   2.694 -0.0212  2.0018 -0.7207
   86c3c     HC  372   2.879   2.418   2.731 -0.7912  0.8495  1.2022
   87c3c     N4  373   3.250   2.792   1.712  0.3526 -0.5179 -0.0496
   87c3c     C1  374   3.186   2.797   1.848 -0.0742  0.3258 -0.0421
   87c3c     C1  375   3.137   2.763   1.624 -0.3897 -0.8623  0.3335
   87c3c     C2  376   3.053   2.877   1.824  1.0492  0.0732  0.0638
   87c3c     C2  377   3.014   2.831   1.683 -0.4207 -0.7553  0.6639
   87c3c     C1  378   3.314   2.922   1.689  0.0802 -0.0037  0.3403
   87c3c     C1  379   3.359   2.693   1.700  0.3435  0.0502 -0.1225
   87c3c     H1  380   3.248   2.839   1.927 -0.0520 -0.6573  0.4747
   87c3c     H1  381   3.155   2.699   1.884  2.0515 -0.5095 -0.3695
   87c3c     H1  382   3.163   2.784   1.520  1.2176  0.4466  0.9656
   87c3c     H1  383   3.108   2.658   1.633  2.4223 -1.7673 -0.3336
   87c3c     HC  384   3.075   2.983   1.819  2.6365 -0.2924 -0.7133
   87c3c     HC  385   2.976   2.853   1.899  1.2091 -0.2836  0.1177
   87c3c     HC  386   2.989   2.920   1.625 -0.2060  0.4255  2.3229
   87c3c     HC  387   2.932   2.759   1.681 -0.5539 -0.5776 -0.9291
   87c3c     H1  388   3.386   2.937   1.769 -0.5316  0.3482  0.8233
   87c3c     H1  389   3.372   2.924   1.597  0.7002  0.5792  0.7397
   87c3c     H1  390   3.248   3.007   1.672 -0.5594 -0.5036  0.3141
   87c3c     H1  391   3.395   2.700   1.598  0.6735  0.3373  0.0127
   87c3c     H1  392   3.450   2.714   1.756 -0.6867  1.3339  1.1260
   87c3c     C2  393   3.321   2.542   1.738 -0.0469  0.5088 -0.1534
   87c3c     HC  394   3.253   2.491   1.670 -0.4990  0.8545  0.0320
   87c3c     HC  395   3.270   2.544   1.835 -0.9879 -0.1687 -0.6172
   87c3c     CT  396   3.442   2.447   1.744 -0.1939 -0.2264 -0.7113
   87c3c     HC  397   3.425   2.343   1.771  1.3316  0.2365  2.2906
   87c3c     HC  398   3.515   2.488   1.813 -0.4630 -0.4600 -0.2887
   87c3c     HC  399   3.505   2.446   1.655  0.0020  0.7074 -0.5864
   88c3c     N4  400   2.784   4.344   2.042 -0.2783 -0.0216 -0.5831
   88c3c     C1  401   2.920   4.298   2.001  0.2469  0.2003 -0.0783
   88c3c     C1  402   2.745   4.246   2.146 -0.0298  0.2818 -0.5238
   88c3c     C2  403   2.991   4.265   2.130 -0.0141 -0.1872 -0.2363
   88c3c     C2  404   2.877   4.232   2.227 -0.2251  1.0371 -0.0576
   88c3c     C1  405   2.790   4.486   2.091 -0.0053  0.3242  0.9102
   88c3c     C1  406   2.697   4.353   1.924  0.0578  0.7984 -0.8059
   88c3c     H1  407   2.985   4.348   1.929  1.9737 -2.5019 -0.4613
   88c3c     H1  408   2.903   4.196   1.968 -0.5588  0.6108 -0.9628
   88c3c     H1  409   2.653   4.269   2.200  0.6425 -0.4015  0.9316
   88c3c     H1  410   2.716   4.148   2.107  0.5651  0.3885 -1.2406
   88c3c     HC  411   3.032   4.355   2.176 -0.4577  0.1128 -0.4258
   88c3c     HC  412   3.070   4.190   2.119  0.9940  0.8762 -0.3450
   88c3c     HC  413   2.875   4.292   2.318 -0.9802  0.8186  0.0709
   88c3c     HC  414   2.882   4.123   2.235  2.4416  1.1442  0.3122
   88c3c     H1  415   2.843   4.542   2.014 -3.2476  1.0681 -0.8753
   88c3c     H1  416   2.695   4.538   2.103  0.8232  1.3036  3.6571
   88c3c     H1  417   2.850   4.510   2.179  0.7829  2.1252 -0.0914
   88c3c     H1  418   2.609   4.410   1.951  0.5449  0.2781  2.0502
   88c3c     H1  419   2.744   4.416   1.849 -0.2228  0.3569 -1.3511
   88c3c     C2  420   2.657   4.225   1.854  0.7344  0.0483  0.1023
   88c3c     HC  421   2.619   4.153   1.926  0.2815  0.0930 -0.0884
   88c3c     HC  422   2.739   4.177   1.801 -0.3877  0.9658 -2.5923
   88c3c     CT  423   2.553   4.237   1.738  0.6773 -0.0517  0.3042
   88c3c     HC  424   2.539   4.140   1.691 -1.8834  0.1795  0.5084
   88c3c     HC  425   2.583   4.305   1.658 -0.4423  0.6217  0.4552
   88c3c     HC  426   2.449   4.248   1.768  0.8164  2.3182 -0.0208
   89c3c     N4  427   3.326   0.300   2.397 -0.3518 -0.6050 -0.3334
   89c3c     C1  428   3.212   0.264   2.311 -0.0135 -0.1007  0.3027
   89c3c     C1  429   3.439   0.325   2.303  0.4285 -0.3536 -0.0975
   89c3c     C2  430   3.224   0.344   2.183  0.0127 -0.0086 -0.3073
   89c3c     C2  431   3.375   0.391   2.179  0.0788  0.7141  0.1692
   89c3c     C1  432   3.293   0.421   2.470  0.0935 -0.0584 -0.3304
   89c3c     C1  433   3.365   0.199   2.493  0.6862  0.0413  0.1323
   89c3c     H1  434   3.111   0.281   2.349  0.2361 -0.8171  1.2968
   89c3c     H1  435   3.227   0.164   2.272 -2.6616  0.1356 -1.4709
   89c3c     H1  436   3.510   0.396   2.345  0.6125 -0.7716  0.2975
   89c3c     H1  437   3.485   0.233   2.269 -0.5795 -0.3860 -1.4590
   89c3c     HC  438   3.160   0.431   2.193 -0.8960 -0.6597 -0.4564
   89c3c     HC  439   3.209   0.281   2.096 -2.1657  0.1814 -0.0775
   89c3c     HC  440   3.371   0.499   2.190  1.2290  0.9635 -1.6940
   89c3c     HC  441   3.424   0.382   2.083 -1.3904  2.6488 -0.8073
   89c3c     H1  442   3.222   0.400   2.550  0.3322 -0.7289 -0.2871
   89c3c     H1  443   3.385   0.466   2.507 -0.1380  1.5349 -1.6577
   89c3c     H1  444   3.258   0.503   2.407  0.8991  0.2239 -0.4211
   89c3c     H1  445   3.440   0.244   2.558  0.6232  0.1177  0.1530
   89c3c     H1  446   3.277   0.173   2.552 -1.3186  0.2364 -2.6745
   89c3c     C2  447   3.407   0.058   2.458  0.6957 -0.2951 -0.9989
   89c3c     HC  448   3.497   0.064   2.397  0.7877 -1.7612 -1.0271
   89c3c     HC  449   3.331   0.004   2.402 -0.4979 -0.9979  1.2501
   89c3c     CT  450   3.448  -0.034   2.574  0.5659 -0.2754 -0.2816
   89c3c     HC  451   3.508  -0.120   2.545  0.6227 -0.4674  0.4003
   89c3c     HC  452   3.363  -0.049   2.640  1.2501  1.1327  0.9419
   89c3c     HC  453   3.514   0.032   2.629  1.5092 -1.4179 -0.0392
   90c3c     N4  454   2.455   2.957   3.520 -0.0940 -0.4069 -0.0179
   90c3c     C1  455   2.428   3.077   3.445 -0.8555  0.0914 -0.3124
   90c3c     C1  456   2.326   2.946   3.585 -0.3305 -0.9174 -0.2087
   90c3c     C2  457   2.291   3.071   3.390  0.1810 -0.0061  0.0346
   90c3c     C2  458   2.217   2.979   3.486  0.0420  0.2790  0.3525
   90c3c     C1  459   2.485   2.850   3.427 -0.0105  0.7974 -0.0167
   90c3c     C1  460   2.560   2.977   3.619  0.5992  0.7420  0.4911
   90c3c     H1  461   2.515   3.093   3.380  0.3565 -1.5200  0.8897
   90c3c     H1  462   2.434   3.163   3.511 -1.9420  0.2157 -0.3754
   90c3c     H1  463   2.308   2.846   3.625  0.5585 -0.5980  1.0177
   90c3c     H1  464   2.320   3.021   3.664  1.1154 -0.9966 -0.0044
   90c3c     HC  465   2.295   3.031   3.289  1.4699  1.5511 -0.5571
   90c3c     HC  466   2.242   3.169   3.395 -1.8440 -1.0227  1.0400
   90c3c     HC  467   2.188   2.890   3.430 -2.4266  0.5262  1.1958
   90c3c     HC  468   2.129   3.026   3.530  0.4723  1.4314  0.0077
   90c3c     H1  469   2.570   2.883   3.368 -1.8186  2.0492 -1.9966
   90c3c     H1  470   2.515   2.764   3.486  0.6388  0.3289 -1.0130
   90c3c     H1  471   2.406   2.822   3.357  0.9987 -0.7013 -0.5773
   90c3c     H1  472   2.598   2.886   3.666  0.6900  0.6572  0.2506
   90c3c     H1  473   2.646   3.005   3.558 -0.4780  1.3760 -0.7479
   90c3c     C2  474   2.554   3.089   3.732 -0.6265 -0.1153  0.3619
   90c3c     HC  475   2.478   3.062   3.806 -0.3339 -2.0248 -0.0182
   90c3c     HC  476   2.534   3.191   3.698 -0.8130 -0.3224 -0.1415
   90c3c     CT  477   2.685   3.090   3.821 -0.0487  0.3261  0.6182
   90c3c     HC  478   2.702   2.992   3.865  0.6078  0.2755  0.2699
   90c3c     HC  479   2.678   3.158   3.905  0.4457 -0.7632  1.5608
   90c3c     HC  480   2.775   3.113   3.763 -1.0982  1.6546 -0.5297
   91c3c     N4  481   2.552   1.746   2.958 -0.2906  0.4718 -0.2871
   91c3c     C1  482   2.622   1.624   2.927  0.0355 -0.1841 -0.2288
   91c3c     C1  483   2.467   1.766   2.843  0.4072 -0.3220 -0.5656
   91c3c     C2  484   2.524   1.523   2.859 -0.4561 -0.0561 -0.5119
   91c3c     C2  485   2.419   1.625   2.796 -0.0113  0.4389  0.3184
   91c3c     C1  486   2.455   1.730   3.075 -0.9551  0.8159  0.3566
   91c3c     C1  487   2.638   1.862   2.995  0.0861  0.7457  0.1566
   91c3c     H1  488   2.691   1.588   3.003  0.2051  0.9685  0.1742
   91c3c     H1  489   2.703   1.638   2.855  0.7819 -0.2412  0.5981
   91c3c     H1  490   2.372   1.819   2.856  0.9163  0.6404 -0.6714
   91c3c     H1  491   2.514   1.817   2.758 -1.8254 -0.5513 -1.9898
   91c3c     HC  492   2.481   1.454   2.931 -2.2268  0.0831 -1.4048
   91c3c     HC  493   2.576   1.476   2.776  2.7846  0.9031  0.9165
   91c3c     HC  494   2.323   1.602   2.843  0.0024 -2.2073 -0.8712
   91c3c     HC  495   2.411   1.621   2.688  1.7182  0.7704  0.1710
   91c3c     H1  496   2.524   1.713   3.158 -1.8322 -1.5581  0.6281
   91c3c     H1  497   2.396   1.815   3.109 -0.3373  1.2697  0.2921
   91c3c     H1  498   2.390   1.644   3.060  0.2853  0.0401 -0.7438
   91c3c     H1  499   2.578   1.951   3.014 -0.5261  0.4327 -0.2876
   91c3c     H1  500   2.690   1.829   3.085  0.5150  2.6137  0.6178
   91c3c     C2  501   2.743   1.897   2.891  0.2155  0.3569  0.1477
   91c3c     HC  502   2.692   1.943   2.806 -1.2455  0.4321  1.0369
   91c3c     HC  503   2.807   1.816   2.857  0.8320 -0.8697  4.0384
   91c3c     CT  504   2.853   1.986   2.950 -0.6903  0.5720 -1.0117
   91c3c     HC  505   2.900   1.936   3.035 -1.3717  0.0399 -0.9497
   91c3c     HC  506   2.822   2.088   2.975  1.1271  0.7513  0.6456
   91c3c     HC  507   2.924   2.008   2.870 -0.6710  0.3189 -1.0614
   92c3c     N4  508   4.549   1.973   2.727 -0.2027 -0.9864  0.4530
   92c3c     C1  509   4.678   2.028   2.686  0.0150 -0.1060  0.1797
   92c3c     C1  510   4.506   1.900   2.607  0.7156 -0.7472 -0.3584
   92c3c     C2  511   4.750   1.927   2.596 -0.2061 -0.0390  0.2221
   92c3c     C2  512   4.636   1.852   2.535 -0.6618 -0.2097  0.1081
   92c3c     C1  513   4.570   1.872   2.831  0.4907 -0.4913  0.2882
   92c3c     C1  514   4.452   2.067   2.788  0.6574 -0.2919 -0.3411
   92c3c     H1  515   4.741   2.069   2.765  0.2650 -0.6461  0.2612
   92c3c     H1  516   4.660   2.119   2.628  1.9135 -0.1620 -0.5349
   92c3c     H1  517   4.441   1.818   2.637 -0.9410  1.3526  1.9944
   92c3c     H1  518   4.441   1.962   2.545  0.8104 -0.1659  0.1130
   92c3c     HC  519   4.808   1.851   2.649  4.1948  4.4238  2.1459
   92c3c     HC  520   4.821   1.966   2.523  1.7160 -0.2573  1.9088
   92c3c     HC  521   4.644   1.744   2.547 -2.2546 -0.1345  2.1057
   92c3c     HC  522   4.624   1.868   2.428 -1.6575 -0.2335  0.2148
   92c3c     H1  523   4.616   1.922   2.916  1.2213  1.0442 -0.9847
   92c3c     H1  524   4.477   1.825   2.864  1.1084 -0.8379  1.6039
   92c3c     H1  525   4.627   1.789   2.789  1.0551  0.3769 -0.6719
   92c3c     H1  526   4.369   2.006   2.823  0.4389  0.9387  1.3761
   92c3c     H1  527   4.504   2.109   2.874  2.1715  0.3079 -1.5311
   92c3c     C2  528   4.400   2.186   2.701  0.6657 -0.4600 -0.6632
   92c3c     HC  529   4.371   2.151   2.602  0.8335  3.2079 -2.1099
   92c3c     HC  530   4.475   2.262   2.676 -1.2336  1.5411 -0.4000
   92c3c     CT  531   4.275   2.246   2.749  0.5343  0.1086 -0.1975
   92c3c     HC  532   4.198   2.184   2.702 -0.8854  1.5487  0.1992
   92c3c     HC  533   4.263   2.344   2.704 -1.1785 -0.7290 -1.6345
   92c3c     HC  534   4.259   2.245   2.857  1.5098 -0.7573 -0.0542
   93c3c     N4  535   2.516   4.335   4.096  0.9219 -0.1522  0.0009
   93c3c     C1  536   2.549   4.308   4.237  0.5089  0.2748  1.1504
   93c3c     C1  537   2.585   4.220   4.041 -0.0615 -0.4574  0.4272
   93c3c     C2  538   2.529   4.161   4.257 -0.0555  0.4484  0.0461
   93c3c     C2  539   2.582   4.095   4.135 -0.6582  0.5336  0.4877
   93c3c     C1  540   2.372   4.314   4.071  0.4875  0.1877  0.3079
   93c3c     C1  541   2.538   4.476   4.059 -0.8039  0.0247 -0.0024
   93c3c     H1  542   2.485   4.371   4.299 -1.6697 -0.7834  0.0290
   93c3c     H1  543   2.646   4.346   4.271 -0.2055  0.9748  2.4331
   93c3c     H1  544   2.547   4.196   3.941  3.2952  0.8109 -1.2318
   93c3c     H1  545   2.683   4.258   4.012 -0.5078  1.2256  1.0246
   93c3c     HC  546   2.427   4.123   4.270 -0.7372  1.9592 -0.8588
   93c3c     HC  547   2.598   4.142   4.340  0.5318 -0.0484 -0.5523
   93c3c     HC  548   2.513   4.019   4.098  0.8243 -0.5489 -0.1081
   93c3c     HC  549   2.680   4.051   4.152 -0.1522 -0.3393 -4.0353
   93c3c     H1  550   2.303   4.378   4.126  0.5530 -1.5312  2.4747
   93c3c     H1  551   2.345   4.329   3.967  0.3806 -0.7844  0.1890
   93c3c     H1  552   2.339   4.216   4.105 -0.4066  0.3113 -0.1921
   93c3c     H1  553   2.520   4.486   3.952 -0.6496 -1.5358 -0.1880
   93c3c     H1  554   2.471   4.544   4.112  2.6943  2.0228  2.0834
   93c3c     C2  555   2.682   4.534   4.065  0.7649  0.5983 -0.1357
   93c3c     HC  556   2.721   4.510   3.966  1.8059  2.0950 -0.1032
   93c3c     HC  557   2.746   4.492   4.143 -1.5877  0.5124  1.7855
   93c3c     CT  558   2.698   4.684   4.076  0.2487 -0.0933  1.1751
   93c3c     HC  559   2.695   4.718   4.180 -1.9182  3.1645  0.1139
   93c3c     HC  560   2.615   4.728   4.021  1.1075  0.6259  0.4299
   93c3c     HC  561   2.793   4.709   4.029  0.0008  2.2327  1.8361
   94c3c     N4  562   3.507   3.762   3.586 -0.2054  0.3304  0.3836
   94c3c     C1  563   3.656   3.752   3.571  0.1781  0.1147  0.3639
   94c3c     C1  564   3.484   3.890   3.514 -0.0348  0.6533 -0.4901
   94c3c     C2  565   3.685   3.782   3.415  0.0837 -0.3863  0.3309
   94c3c     C2  566   3.561   3.867   3.376  0.0677  0.7220 -0.7876
   94c3c     C1  567   3.425   3.657   3.520  0.3120 -0.3978 -0.3359
   94c3c     C1  568   3.458   3.766   3.725 -0.9366 -0.1170 -0.0325
   94c3c     H1  569   3.688   3.651   3.594  1.4088  0.0579 -1.4991
   94c3c     H1  570   3.716   3.817   3.635  0.1405  0.3353  0.1761
   94c3c     H1  571   3.381   3.919   3.494  0.2540  2.6730  0.8932
   94c3c     H1  572   3.525   3.973   3.571  0.7426  0.0063 -0.0965
   94c3c     HC  573   3.679   3.696   3.349 -0.6708 -0.2424  0.2099
   94c3c     HC  574   3.780   3.833   3.394 -0.8652  0.5137 -1.8641
   94c3c     HC  575   3.502   3.821   3.297  1.6609 -0.8002 -1.1186
   94c3c     HC  576   3.596   3.961   3.333 -3.2289  1.4594 -1.9604
   94c3c     H1  577   3.413   3.575   3.592 -0.8182  1.2550  1.3848
   94c3c     H1  578   3.323   3.685   3.496  0.3193 -0.3393 -0.2958
   94c3c     H1  579   3.464   3.610   3.429  1.2224  1.8056 -1.1071
   94c3c     H1  580   3.349   3.768   3.721 -0.8993  3.3149 -0.6965
   94c3c     H1  581   3.482   3.674   3.778  1.1202  0.4793  0.1401
   94c3c     C2  582   3.506   3.885   3.816  0.2227  0.5655 -0.4507
   94c3c     HC  583   3.455   3.972   3.774 -1.4477  0.4946  1.3512
   94c3c     HC  584   3.614   3.902   3.820  0.5659 -1.6401  0.0464
   94c3c     CT  585   3.442   3.884   3.953 -0.3058  0.4622 -0.4672
   94c3c     HC  586   3.344   3.836   3.950  0.3222 -0.9633  1.5531
   94c3c     HC  587   3.437   3.985   3.994  2.7652  1.1340 -1.6132
   94c3c     HC  588   3.501   3.833   4.029 -1.1816  0.3249  0.1262
   95c3c     N4  589   3.208   3.777   2.047 -0.3770 -0.4332  0.4090
   95c3c     C1  590   3.271   3.903   2.006 -0.2775  0.3673 -0.4071
   95c3c     C1  591   3.324   3.693   2.061 -0.2063  0.3666 -0.3981
   95c3c     C2  592   3.404   3.920   2.074 -0.2507  0.6191  0.1926
   95c3c     C2  593   3.435   3.780   2.118  0.4056  0.8119 -1.0058
   95c3c     C1  594   3.142   3.791   2.178 -0.1947  0.0138  0.2493
   95c3c     C1  595   3.107   3.731   1.951 -0.0587 -0.1807  0.7545
   95c3c     H1  596   3.203   3.985   2.029 -1.0712 -0.5749  0.6558
   95c3c     H1  597   3.291   3.902   1.899 -1.0709  0.2887 -0.5544
   95c3c     H1  598   3.309   3.605   2.124  0.7773  0.6129  0.1984
   95c3c     H1  599   3.368   3.660   1.967 -1.5724  1.4143 -1.4234
   95c3c     HC  600   3.403   3.987   2.160  0.8529  0.1315  0.6003
   95c3c     HC  601   3.474   3.968   2.005 -1.5988 -0.1440 -1.7632
   95c3c     HC  602   3.425   3.784   2.226 -1.6519 -1.2827 -1.0714
   95c3c     HC  603   3.536   3.753   2.087  1.5426  1.1750  2.2086
   95c3c     H1  604   3.055   3.855   2.162 -1.2096 -1.5319 -0.5263
   95c3c     H1  605   3.117   3.692   2.216  1.3104 -1.1511 -1.7073
   95c3c     H1  606   3.190   3.843   2.261 -1.7831  0.7159  0.7493
   95c3c     H1  607   3.052   3.647   1.994 -0.9985 -0.2082 -0.4850
   95c3c     H1  608   3.031   3.809   1.941 -1.2523 -1.5337 -0.9709
   95c3c     C2  609   3.148   3.706   1.810  0.0636  0.2315  1.1029
   95c3c     HC  610   3.236   3.642   1.802 -0.1584  0.1333 -0.9318
   95c3c     HC  611   3.164   3.801   1.759  0.8957 -0.3369  0.3010
   95c3c     CT  612   3.032   3.631   1.732 -0.7370  0.2338  0.1476
   95c3c     HC  613   3.070   3.612   1.632 -3.1600  0.0563 -0.7649
   95c3c     HC  614   2.946   3.697   1.723 -0.6805  0.4322  1.0181
   95c3c     HC  615   2.997   3.533   1.763 -2.0904  0.8703  0.6713
   96c3c     N4  616   3.820   3.206   2.302  0.2405  0.4221  0.0790
   96c3c     C1  617   3.897   3.091   2.243 -0.6867 -0.5289  0.2499
   96c3c     C1  618   3.706   3.226   2.215 -0.2564 -0.3201  0.3899
   96c3c     C2  619   3.792   3.009   2.176 -0.1132  0.2237 -0.5311
   96c3c     C2  620   3.703   3.104   2.112 -0.1976  0.3191 -0.6245
   96c3c     C1  621   3.769   3.166   2.439  0.1676 -1.0639 -0.2066
   96c3c     C1  622   3.898   3.331   2.317  0.4475  0.1263  0.4097
   96c3c     H1  623   3.948   3.028   2.316  0.7668 -0.5174 -0.7372
   96c3c     H1  624   3.972   3.117   2.168  0.1763 -1.1551  0.8874
   96c3c     H1  625   3.614   3.214   2.273 -1.8464  1.3370 -1.6987
   96c3c     H1  626   3.696   3.316   2.154 -1.3127  0.2613  1.4001
   96c3c     HC  627   3.742   2.959   2.258  0.1945 -0.5922 -0.8417
   96c3c     HC  628   3.835   2.934   2.110  0.4185 -1.2331  1.4462
   96c3c     HC  629   3.609   3.067   2.071 -0.1715 -0.9573  0.4567
   96c3c     HC  630   3.760   3.146   2.029  0.9617  2.9983  1.4526
   96c3c     H1  631   3.852   3.156   2.508 -0.8848  0.8090  1.3771
   96c3c     H1  632   3.702   3.241   2.482  0.7803  0.2701 -1.4926
   96c3c     H1  633   3.709   3.077   2.454  1.1180 -1.2249  3.0620
   96c3c     H1  634   3.824   3.404   2.347 -1.3869 -1.4062 -0.2842
   96c3c     H1  635   3.969   3.322   2.400 -0.6819 -0.4961  1.3227
   96c3c     C2  636   3.972   3.382   2.191  0.1038  0.1534  1.1583
   96c3c     HC  637   3.898   3.395   2.111  0.9160  0.6517  0.4792
   96c3c     HC  638   4.049   3.314   2.154  1.0644  1.0803  1.4397
   96c3c     CT  639   4.044   3.520   2.202 -0.2644  0.7670 -0.0234
   96c3c     HC  640   4.093   3.520   2.299  0.2307  1.3944 -0.2719
   96c3c     HC  641   3.970   3.599   2.211 -2.1601 -0.8457 -0.9265
   96c3c     HC  642   4.114   3.553   2.126 -1.7545 -0.1781 -1.8528
   97c3c     N4  643   1.740   4.016   2.773 -0.0897  0.1996 -0.4834
   97c3c     C1  644   1.593   4.006   2.743 -0.1379  0.3548 -0.2322
   97c3c     C1  645   1.785   3.881   2.751 -0.1425  0.0465  0.6293
   97c3c     C2  646   1.588   3.918   2.613 -0.2684  1.4470 -0.7052
   97c3c     C2  647   1.716   3.834   2.615  0.0061  0.4048 -0.2049
   97c3c     C1  648   1.801   4.114   2.686  0.5129 -0.7027 -0.0409
   97c3c     C1  649   1.768   4.066   2.908  0.4206  0.4401  0.4656
   97c3c     H1  650   1.547   4.105   2.740  1.5057  1.1542  0.4017
   97c3c     H1  651   1.542   3.952   2.822 -1.1459  0.8552 -0.5351
   97c3c     H1  652   1.893   3.867   2.746 -0.2281  0.0050 -2.1588
   97c3c     H1  653   1.747   3.810   2.824  1.6745 -0.0101  1.5672
   97c3c     HC  654   1.588   3.992   2.533  0.6092  0.2613 -1.8015
   97c3c     HC  655   1.498   3.857   2.603 -0.0335  0.8716  0.6197
   97c3c     HC  656   1.774   3.855   2.525 -1.4854 -0.9678 -1.5204
   97c3c     HC  657   1.681   3.731   2.614 -1.0793  0.7664 -0.7259
   97c3c     H1  658   1.769   4.215   2.711 -0.8396 -0.6395 -1.8487
   97c3c     H1  659   1.910   4.118   2.689  0.6245 -2.5098 -1.1600
   97c3c     H1  660   1.772   4.099   2.582 -0.1130 -0.2329  0.0584
   97c3c     H1  661   1.876   4.071   2.922  0.5299  0.5886 -0.4383
   97c3c     H1  662   1.745   4.172   2.918 -0.8748  0.3459 -1.2952
   97c3c     C2  663   1.715   3.994   3.034 -0.0704  0.4955 -0.7053
   97c3c     HC  664   1.706   3.886   3.028 -2.5980  0.5552  1.2426
   97c3c     HC  665   1.616   4.029   3.062  0.1272 -1.1898  2.2963
   97c3c     CT  666   1.808   4.011   3.152 -0.2316  0.0169  0.6733
   97c3c     HC  667   1.789   4.099   3.213 -0.3851 -0.2760  1.0539
   97c3c     HC  668   1.912   4.016   3.120 -0.0693 -3.1217  0.5225
   97c3c     HC  669   1.812   3.921   3.214 -2.0178  0.9203  2.1716
   98c3c     N4  670   3.207   1.202   3.337  0.3002  0.5294 -0.8164
   98c3c     C1  671   3.289   1.148   3.231 -0.2175 -0.5410  0.1636
   98c3c     C1  672   3.172   1.086   3.414 -0.0340 -0.0762 -0.0017
   98c3c     C2  673   3.379   1.039   3.299 -0.0669  0.0939 -0.5280
   98c3c     C2  674   3.303   0.997   3.418 -0.3242  0.5140  0.1362
   98c3c     C1  675   3.287   1.294   3.416 -0.6299  0.4818 -0.5405
   98c3c     C1  676   3.095   1.270   3.280 -0.1059 -0.1831  0.6147
   98c3c     H1  677   3.342   1.234   3.190 -0.0510 -0.8192 -0.2036
   98c3c     H1  678   3.228   1.096   3.158 -0.6997 -0.7585  0.7172
   98c3c     H1  679   3.133   1.105   3.514 -0.1842  0.8929 -0.2423
   98c3c     H1  680   3.093   1.025   3.369 -0.1622  0.4555 -0.4963
   98c3c     HC  681   3.465   1.096   3.336  0.3664 -0.9450  0.0721
   98c3c     HC  682   3.410   0.959   3.232 -1.8089  0.2091 -1.5160
   98c3c     HC  683   3.362   1.020   3.506 -0.4542  1.6286 -0.0677
   98c3c     HC  684   3.285   0.890   3.404  3.5967  0.0327 -1.7164
   98c3c     H1  685   3.319   1.387   3.369 -1.6593  0.6277 -0.9625
   98c3c     H1  686   3.228   1.345   3.493  0.4028 -1.0817  1.3482
   98c3c     H1  687   3.379   1.258   3.463 -0.1991  1.7225 -0.4011
   98c3c     H1  688   3.043   1.316   3.365  1.6117  0.9416  1.0782
   98c3c     H1  689   3.134   1.354   3.221  1.6867 -1.1504  0.3991
   98c3c     C2  690   2.986   1.204   3.189 -0.5294  1.0663 -0.0323
   98c3c     HC  691   2.941   1.120   3.242 -0.2029 -0.3407 -1.9212
   98c3c     HC  692   3.028   1.161   3.097 -1.0377  1.1141 -0.2892
   98c3c     CT  693   2.875   1.312   3.163 -0.0571 -0.2336 -0.4150
   98c3c     HC  694   2.802   1.319   3.244 -0.4988  3.0141 -0.9959
   98c3c     HC  695   2.823   1.283   3.072  2.5699  2.3594 -2.8495
   98c3c     HC  696   2.924   1.407   3.141 -0.5336 -0.3637 -2.1336
   99c3c     N4  697   2.581   3.299   1.937  0.0801 -0.1366  0.7562
   99c3c     C1  698   2.497   3.203   1.863  0.2293  0.3086  0.0549
   99c3c     C1  699   2.615   3.238   2.063 -0.8281  0.3325 -0.2910
   99c3c     C2  700   2.566   3.064   1.899  0.0519  0.0748  0.5177
   99c3c     C2  701   2.643   3.092   2.033  0.2947  0.3590 -0.0824
   99c3c     C1  702   2.696   3.340   1.855  0.7253 -0.5598  0.4956
   99c3c     C1  703   2.495   3.423   1.953  0.3628  0.2759 -0.4786
   99c3c     H1  704   2.500   3.224   1.756 -0.5771  2.5074  0.4266
   99c3c     H1  705   2.389   3.197   1.878  0.4874  0.0872  2.0506
   99c3c     H1  706   2.701   3.285   2.111 -0.6836  1.2609 -1.4181
   99c3c     H1  707   2.533   3.244   2.135  0.9787  1.2086  1.7488
   99c3c     HC  708   2.639   3.039   1.823 -0.6067 -1.0043  0.2229
   99c3c     HC  709   2.486   2.990   1.902 -0.8710  1.0346 -0.0933
   99c3c     HC  710   2.750   3.083   2.015  0.4840  0.3912  0.9952
   99c3c     HC  711   2.614   3.025   2.114 -1.4099 -0.8137 -1.6073
   99c3c     H1  712   2.668   3.384   1.760  0.9078  0.9933  1.1586
   99c3c     H1  713   2.773   3.401   1.903  1.5000 -0.6896 -0.5671
   99c3c     H1  714   2.761   3.253   1.839  3.0773  1.0148  1.2852
   99c3c     H1  715   2.557   3.506   1.988  0.1120  0.5783 -0.7492
   99c3c     H1  716   2.475   3.468   1.856 -0.5691 -0.2225 -0.5170
   99c3c     C2  717   2.368   3.411   2.043  0.0637  0.0206  0.0444
   99c3c     HC  718   2.397   3.401   2.148 -2.0766 -1.5229  0.5302
   99c3c     HC  719   2.303   3.325   2.027  1.3423 -0.8248 -0.6830
   99c3c     CT  720   2.278   3.531   2.027 -0.0534 -0.3843  0.0908
   99c3c     HC  721   2.203   3.527   2.106  1.3611 -1.2079  1.4016
   99c3c     HC  722   2.222   3.533   1.933 -2.8564  1.2272  1.7430
   99c3c     HC  723   2.342   3.619   2.026 -0.6428  0.0539 -1.5702
  100c3c     N4  724   3.131   2.984   4.143 -0.1229  0.1151 -0.2887
  100c3c     C1  725   3.051   2.921   4.253  0.2896 -0.1181 -0.5767
  100c3c     C1  726   3.041   2.966   4.029 -0.2864 -0.5951 -0.4215
  100c3c     C2  727   2.904   2.964   4.230  0.1215  0.3712 -0.3745
  100c3c     C2  728   2.898   2.995   4.082  0.8224 -0.5114 -0.6920
  100c3c     C1  729   3.153   3.125   4.181 -0.0665  0.2390  0.3593
  100c3c     C1  730   3.268   2.930   4.128 -0.2737 -0.1103 -0.4150
  100c3c     H1  731   3.088   2.950   4.352  1.2774  0.0315 -0.9806
  100c3c     H1  732   3.056   2.812   4.254 -0.3738 -0.1474  0.1108
  100c3c     H1  733   3.069   3.020   3.939  1.8711 -1.5805 -0.3548
  100c3c     H1  734   3.029   2.863   3.994 -2.9214 -0.1494 -0.9922
  100c3c     HC  735   2.876   3.051   4.290  2.1928  0.3633  0.6585
  100c3c     HC  736   2.832   2.884   4.249 -0.5437  1.5837  2.4267
  100c3c     HC  737   2.866   3.099   4.081  1.2223 -0.3898 -0.7486
  100c3c     HC  738   2.824   2.930   4.035 -0.0005  0.8180 -1.2876
  100c3c     H1  739   3.211   3.139   4.272 -0.8760 -0.6369  1.0180
  100c3c     H1  740   3.198   3.182   4.100  2.7399  0.3817  1.9524
  100c3c     H1  741   3.063   3.182   4.199  0.0711  0.7700 -0.5872
  100c3c     H1  742   3.310   2.984   4.043  0.8241  0.8634  0.7215
  100c3c     H1  743   3.333   2.944   4.214  2.9646 -0.8064 -2.6301
  100c3c     C2  744   3.289   2.778   4.100  0.1195  0.4329 -0.5344
  100c3c     HC  745   3.223   2.753   4.018  0.9988 -1.9838 -0.5519
  100c3c     HC  746   3.256   2.727   4.190 -0.8108  1.0491 -0.5237
  100c3c     CT  747   3.436   2.740   4.073  0.0634  0.4489 -0.0026
  100c3c     HC  748   3.488   2.735   4.169 -1.6645 -1.2861  0.8776
  100c3c     HC  749   3.486   2.807   4.003 -0.3522 -0.5183 -1.2256
  100c3c     HC  750   3.438   2.635   4.045 -0.7227  0.3009  0.4625
  101fsi    FSI  751   2.695   2.101   1.980 -0.0195 -0.6313  0.5349
  101fsi    SBT  752   2.785   2.211   2.045  0.2227 -0.5725  0.0639
  101fsi    NBT  753   2.878   2.269   1.927 -0.3618  0.1419 -0.1844
  101fsi    OBT  754   2.690   2.305   2.101  0.1432  0.1295  0.4392
  101fsi    OBT  755   2.862   2.129   2.131  0.0641 -0.6965  0.2582
  101fsi    SBT  756   2.848   2.389   1.828  0.3921 -0.0337 -0.0258
  101fsi    OBT  757   2.963   2.479   1.829  0.3760 -0.5127 -0.3881
  101fsi    OBT  758   2.712   2.439   1.840 -0.0043 -0.2807 -0.0938
  101fsi    FSI  759   2.842   2.326   1.681  0.0022 -0.0661 -0.1768
  102fsi    FSI  760   3.343   1.589   4.746 -0.1840  0.3723 -0.3590
  102fsi    SBT  761   3.276   1.723   4.712  0.1164  0.4558  0.4583
  102fsi    NBT  762   3.198   1.775   4.837  0.3378 -0.3552 -0.3754
  102fsi    OBT  763   3.384   1.814   4.686  0.5606  0.3295 -0.2863
  102fsi    OBT  764   3.198   1.697   4.598  0.2811 -0.1296  0.8209
  102fsi    SBT  765   3.081   1.708   4.924  0.1571 -0.0703  0.2153
  102fsi    OBT  766   3.020   1.590   4.861 -0.3720  0.4404  0.2735
  102fsi    OBT  767   2.989   1.809   4.974 -0.3018 -0.3815 -0.9318
  102fsi    FSI  768   3.147   1.654   5.046 -0.6633 -0.3017 -0.6849
  103fsi    FSI  769   4.100   2.626   2.186  0.0857  0.3683 -0.8448
  103fsi    SBT  770   4.031   2.688   2.314 -0.3769 -0.2486 -0.4939
  103fsi    NBT  771   4.094   2.603   2.432 -0.8105 -0.3594  0.0804
  103fsi    OBT  772   4.081   2.822   2.322 -0.4453  0.1852  0.2412
  103fsi    OBT  773   3.889   2.677   2.292 -0.0661 -0.1096  0.4547
  103fsi    SBT  774   4.038   2.465   2.492  0.1585  0.1305  0.4631
  103fsi    OBT  775   4.133   2.356   2.485 -0.3281 -0.1321 -0.3312
  103fsi    OBT  776   3.902   2.437   2.454  0.0109  0.1402 -0.1845
  103fsi    FSI  777   4.031   2.489   2.645 -0.3635 -0.0362 -0.7499
  104fsi    FSI  778   2.191   2.249   3.133  0.2265 -0.1428  0.0330
  104fsi    SBT  779   2.343   2.218   3.154 -0.1666 -0.1311  0.0721
  104fsi    NBT  780   2.366   2.214   3.308 -0.1255 -0.0385  0.1861
  104fsi    OBT  781   2.361   2.085   3.103 -0.6618  0.4255 -0.5325
  104fsi    OBT  782   2.414   2.323   3.082  0.2828 -0.2321 -0.2289
  104fsi    SBT  783   2.491   2.244   3.402  0.1831 -0.0581  0.1529
  104fsi    OBT  784   2.622   2.253   3.336 -0.5305 -0.1024 -1.5431
  104fsi    OBT  785   2.476   2.176   3.531  0.3261 -0.6172 -0.1202
  104fsi    FSI  786   2.466   2.395   3.439 -0.4129 -0.3531 -0.1738
  105fsi    FSI  787   2.674   4.524   5.866  0.2861 -0.4614  0.0908
  105fsi    SBT  788   2.751   4.611   5.972 -0.6265  0.3368 -0.1825
  105fsi    NBT  789   2.650   4.626   6.092 -0.3251  0.4281 -0.5135
  105fsi    OBT  790   2.871   4.534   6.001  0.1374  0.6042  0.6547
  105fsi    OBT  791   2.773   4.742   5.900 -0.4742 -0.1852 -0.1642
  105fsi    SBT  792   2.657   4.541   6.220 -0.0023  0.0325 -0.7596
  105fsi    OBT  793   2.586   4.603   6.329  0.3506 -0.7153 -0.4435
  105fsi    OBT  794   2.777   4.469   6.248  0.3986  0.4836 -0.0225
  105fsi    FSI  795   2.544   4.423   6.202  0.4554 -0.0522  0.2267
  106fsi    FSI  796   3.202   4.009   3.145  0.3566 -0.3926 -0.2979
  106fsi    SBT  797   3.225   3.979   2.987 -0.4180 -0.5017 -0.5184
  106fsi    NBT  798   3.291   3.836   3.001 -0.2645 -0.2082  0.2032
  106fsi    OBT  799   3.095   3.980   2.927  0.5089 -0.5181  0.7162
  106fsi    OBT  800   3.315   4.077   2.943  0.4652  0.2199  0.4963
  106fsi    SBT  801   3.224   3.697   2.971 -0.2708  0.0013  0.2411
  106fsi    OBT  802   3.298   3.625   2.874 -0.1452 -0.3525  0.6759
  106fsi    OBT  803   3.085   3.694   2.955 -0.8258  0.0646  0.2308
  106fsi    FSI  804   3.256   3.629   3.104 -0.2910 -0.3656  0.5201
  107fsi    FSI  805   2.646   1.041   4.396  0.1458 -0.4697 -0.5303
  107fsi    SBT  806   2.752   1.047   4.279  0.4009  0.1579 -0.3802
  107fsi    NBT  807   2.738   1.195   4.226 -0.0612  0.7820  0.1828
  107fsi    OBT  808   2.885   1.028   4.340 -0.0221 -0.0161 -0.5798
  107fsi    OBT  809   2.709   0.946   4.185 -0.1200  0.0374 -0.9325
  107fsi    SBT  810   2.654   1.257   4.115 -0.5500  0.1018 -0.0043
  107fsi    OBT  811   2.606   1.162   4.014 -0.0161 -0.0738 -0.2129
  107fsi    OBT  812   2.717   1.379   4.059  0.0505 -0.1393  0.2751
  107fsi    FSI  813   2.527   1.302   4.198 -0.5380 -0.0113  0.3370
  108fsi    FSI  814   3.505   2.785   2.058 -0.7588  0.1012  0.1283
  108fsi    SBT  815   3.496   2.657   2.139 -0.1180  0.0535  0.0439
  108fsi    NBT  816   3.566   2.555   2.046  0.2013 -0.2384 -0.4283
  108fsi    OBT  817   3.563   2.679   2.269  1.1667  0.1637 -0.0743
  108fsi    OBT  818   3.353   2.640   2.142 -0.6463  0.3329  0.7247
  108fsi    SBT  819   3.675   2.444   2.079 -0.6641 -0.3592 -0.2495
  108fsi    OBT  820   3.672   2.340   1.976  0.5191 -0.0815 -0.3033
  108fsi    OBT  821   3.690   2.399   2.213 -0.2745  0.1464  0.3489
  108fsi    FSI  822   3.815   2.515   2.049 -0.5298 -0.5388  0.4498
  109fsi    FSI  823   3.681   3.173   3.157 -0.2462 -0.4947 -0.9331
  109fsi    SBT  824   3.549   3.101   3.118  0.0972  0.1768  0.5784
  109fsi    NBT  825   3.456   3.207   3.044  0.6016  0.2095 -0.9936
  109fsi    OBT  826   3.599   3.014   3.011 -0.1647  0.8274  0.4681
  109fsi    OBT  827   3.497   3.035   3.239  0.1052  0.4792 -0.8607
  109fsi    SBT  828   3.349   3.309   3.100  0.2125 -0.3139  0.0444
  109fsi    OBT  829   3.272   3.268   3.214  0.1358  0.0672  0.1578
  109fsi    OBT  830   3.269   3.361   2.994  0.1941  0.2041  0.1045
  109fsi    FSI  831   3.436   3.432   3.148  0.0667 -0.0605 -0.3046
  110fsi    FSI  832   2.186   4.014   3.672 -0.0733  0.2534 -0.1953
  110fsi    SBT  833   2.330   3.984   3.725  0.1671 -0.0197  0.2512
  110fsi    NBT  834   2.375   3.873   3.626 -0.0030 -0.2382 -0.7336
  110fsi    OBT  835   2.404   4.101   3.694 -0.2973 -0.3155 -0.0241
  110fsi    OBT  836   2.317   3.947   3.867  0.3126 -0.1210  0.3891
  110fsi    SBT  837   2.322   3.723   3.630  0.2591 -0.3243 -0.1106
  110fsi    OBT  838   2.236   3.682   3.735  0.4046 -0.0547 -0.4275
  110fsi    OBT  839   2.430   3.627   3.609  0.3579 -0.2059 -0.4270
  110fsi    FSI  840   2.233   3.717   3.491 -0.0166  0.1486  0.2013
  111fsi    FSI  841   2.645   3.813   4.064 -0.2690  0.2276  0.0024
  111fsi    SBT  842   2.609   3.714   3.940 -0.2097  0.1921  0.0936
  111fsi    NBT  843   2.723   3.604   3.944 -0.3040  0.4142  0.5374
  111fsi    OBT  844   2.485   3.659   3.970 -0.6462 -0.0207 -1.1186
  111fsi    OBT  845   2.602   3.807   3.829  0.3521  0.3483 -0.2655
  111fsi    SBT  846   2.732   3.461   3.892  0.1041 -0.7982  0.3626
  111fsi    OBT  847   2.869   3.423   3.879  0.3084 -0.2643 -0.0196
  111fsi    OBT  848   2.642   3.435   3.784 -0.7257  0.3112  0.2150
  111fsi    FSI  849   2.687   3.378   4.012 -0.4067  0.2865  0.8550
  112fsi    FSI  850   2.798   4.627   3.083  0.0423  0.3439 -0.2916
  112fsi    SBT  851   2.911   4.604   2.972  0.1411  0.1584 -0.1709
  112fsi    NBT  852   3.032   4.538   3.045  0.3429 -0.6172 -0.3477
  112fsi    OBT  853   2.852   4.523   2.876 -0.0611 -0.1582 -0.8277
  112fsi    OBT  854   2.934   4.739   2.930  1.3188 -0.1435  0.3037
  112fsi    SBT  855   3.069   4.383   3.068  0.1795 -0.1779 -0.0566
  112fsi    OBT  856   3.209   4.365   3.094  0.5552 -0.2560 -0.1405
  112fsi    OBT  857   3.025   4.299   2.961 -0.5611  0.9304 -0.6623
  112fsi    FSI  858   3.007   4.339   3.201 -0.0186  0.0469  0.3399
  113fsi    FSI  859   1.990   3.831   2.306  0.9778 -0.2758 -0.3553
  113fsi    SBT  860   2.093   3.851   2.423  0.6651 -0.3213 -0.0363
  113fsi    NBT  861   2.233   3.868   2.350 -0.4893  0.1208 -0.5631
  113fsi    OBT  862   2.052   3.974   2.482  0.6229 -0.3321 -0.1259
  113fsi    OBT  863   2.081   3.721   2.493  1.2877  0.3811 -0.3073
  113fsi    SBT  864   2.361   3.783   2.362  0.1296 -0.4957  0.4003
  113fsi    OBT  865   2.343   3.644   2.398 -0.5520  0.4920  0.5205
  113fsi    OBT  866   2.461   3.862   2.424  0.5235 -0.0218 -0.3081
  113fsi    FSI  867   2.406   3.767   2.213  0.1156 -0.9459 -0.2638
  114fsi    FSI  868   3.064   1.809   3.291  0.5557 -0.3501  0.3108
  114fsi    SBT  869   2.913   1.788   3.320  0.1141  0.2583  0.1306
  114fsi    NBT  870   2.903   1.743   3.469  0.2259  0.1728 -0.1474
  114fsi    OBT  871   2.849   1.914   3.295  0.0212  0.2040 -0.3082
  114fsi    OBT  872   2.882   1.682   3.225 -0.5342 -0.4519 -0.0560
  114fsi    SBT  873   2.913   1.598   3.531 -0.1503  0.2889  0.0487
  114fsi    OBT  874   2.875   1.584   3.669 -0.4091  0.0728 -0.5332
  114fsi    OBT  875   3.032   1.534   3.491  0.1825 -0.1958  0.3415
  114fsi    FSI  876   2.806   1.509   3.461 -0.2502  0.1500 -0.3527
  115fsi    FSI  877   3.010   0.160   3.363 -0.5395 -0.4508 -0.4876
  115fsi    SBT  878   3.028   0.060   3.481  0.0329  0.2076 -0.1264
  115fsi    NBT  879   3.044  -0.081   3.405 -0.6495  0.3974 -0.1401
  115fsi    OBT  880   3.136   0.106   3.560 -0.1134  0.2450  0.1535
  115fsi    OBT  881   2.896   0.063   3.543  0.3954  0.4917  0.4364
  115fsi    SBT  882   3.142  -0.119   3.291  0.0249 -0.1353 -0.0795
  115fsi    OBT  883   3.112  -0.064   3.161 -0.4085 -0.3826  0.9465
  115fsi    OBT  884   3.161  -0.259   3.296 -0.1226  0.5413  0.1181
  115fsi    FSI  885   3.278  -0.048   3.329  0.2775 -0.1414  0.0953
  116fsi    FSI  886   2.310   4.775   2.945  0.1038  0.4400  0.9094
  116fsi    SBT  887   2.302   4.620   3.000 -0.2010  0.3118 -0.1097
  116fsi    NBT  888   2.326   4.547   2.864  0.4781  0.5232 -0.1703
  116fsi    OBT  889   2.408   4.608   3.090  0.0480  0.6387  0.0780
  116fsi    OBT  890   2.161   4.605   3.043  0.1498 -0.4308  0.5359
  116fsi    SBT  891   2.463   4.499   2.805 -0.0292  0.3519  0.0843
  116fsi    OBT  892   2.454   4.443   2.674  0.4249 -0.0650  0.1470
  116fsi    OBT  893   2.551   4.430   2.896  0.1927 -0.2360  0.4530
  116fsi    FSI  894   2.535   4.635   2.793  0.0730  0.1252  0.1736
  117fsi    FSI  895   4.103   2.385   3.871 -0.0802 -0.1873 -0.0911
  117fsi    SBT  896   4.030   2.291   3.764  0.3180 -0.4114 -0.1042
  117fsi    NBT  897   4.142   2.185   3.732  0.8264 -0.3575  0.1732
  117fsi    OBT  898   3.919   2.226   3.829 -0.3654 -0.5075  0.4021
  117fsi    OBT  899   3.998   2.373   3.648 -0.3151  0.5500 -0.3354
  117fsi    SBT  900   4.261   2.189   3.631  0.1841  0.4394 -0.1452
  117fsi    OBT  901   4.266   2.296   3.537 -0.3419 -0.0055 -0.2762
  117fsi    OBT  902   4.291   2.068   3.571 -0.2643  0.0795 -0.0546
  117fsi    FSI  903   4.384   2.215   3.734 -0.0665 -0.0388 -0.1992
  118fsi    FSI  904   2.514   5.648   2.751 -0.6481 -0.5376  0.3340
  118fsi    SBT  905   2.526   5.592   2.895  0.4773  0.2293  0.3257
  118fsi    NBT  906   2.666   5.637   2.946 -0.1825  0.1781  0.3291
  118fsi    OBT  907   2.423   5.655   2.972 -0.2663  0.0903  0.2757
  118fsi    OBT  908   2.533   5.446   2.886 -0.1240 -0.4755  0.5296
  118fsi    SBT  909   2.715   5.767   3.014  0.1887  0.2733  0.6786
  118fsi    OBT  910   2.687   5.893   2.950  0.9292 -0.2811  0.3480
  118fsi    OBT  911   2.851   5.745   3.053  0.1295 -0.3965 -0.1006
  118fsi    FSI  912   2.646   5.774   3.157 -0.2508 -0.1940  0.3875
  119fsi    FSI  913   3.027   3.853   2.508  0.2540 -0.2618  0.6029
  119fsi    SBT  914   3.068   4.001   2.512  0.3080  0.3443  0.2468
  119fsi    NBT  915   3.188   4.000   2.613  0.1989 -0.3473  0.5226
  119fsi    OBT  916   3.101   4.038   2.375  0.4036  0.3313  0.1654
  119fsi    OBT  917   2.949   4.056   2.569  0.1751  0.5279  0.6030
  119fsi    SBT  918   3.339   3.991   2.585 -0.3076  0.1057  0.3054
  119fsi    OBT  919   3.382   3.956   2.452 -0.4170  0.0593  0.6950
  119fsi    OBT  920   3.414   3.928   2.687 -0.1954  0.0944  0.4972
  119fsi    FSI  921   3.381   4.142   2.599 -0.1529  0.2116 -0.2597
  120fsi    FSI  922   2.555   4.075   2.849 -0.2672  0.8611  0.3033
  120fsi    SBT  923   2.690   4.061   2.767 -0.0212 -0.3123  0.0064
  120fsi    NBT  924   2.638   4.051   2.620  0.0274 -0.0654 -0.3714
  120fsi    OBT  925   2.776   4.175   2.799  0.4316  0.8296  0.7285
  120fsi    OBT  926   2.740   3.932   2.807 -0.1969  0.4864  0.6681
  120fsi    SBT  927   2.616   4.158   2.517 -0.0368 -0.0833 -0.4245
  120fsi    OBT  928   2.684   4.283   2.540  0.7059 -0.0498  0.3596
  120fsi    OBT  929   2.477   4.160   2.488 -0.7662 -0.1817 -0.3924
  120fsi    FSI  930   2.676   4.090   2.389 -0.7107  0.3226 -0.3185
  121fsi    FSI  931   2.207   2.872   1.961  0.2900 -0.5998 -0.1856
  121fsi    SBT  932   2.234   2.907   2.112  0.1338 -0.0195 -0.3641
  121fsi    NBT  933   2.287   2.763   2.168 -0.0439  0.4880  0.1444
  121fsi    OBT  934   2.335   3.004   2.110  0.0850 -0.2259  0.2520
  121fsi    OBT  935   2.104   2.954   2.155  0.3593 -0.6640 -0.3549
  121fsi    SBT  936   2.427   2.700   2.184  0.1297  0.0404  0.1267
  121fsi    OBT  937   2.500   2.693   2.064  0.1103  0.6917  0.4085
  121fsi    OBT  938   2.416   2.582   2.269  0.1636 -0.4753 -0.0069
  121fsi    FSI  939   2.509   2.801   2.275  0.2430  0.4122  0.3621
  122fsi    FSI  940   3.135   0.606   3.213  0.0688  0.1316 -0.2625
  122fsi    SBT  941   3.074   0.713   3.118  0.0553 -0.0734 -0.4330
  122fsi    NBT  942   2.919   0.701   3.152  0.5549 -0.1620  0.2087
  122fsi    OBT  943   3.134   0.836   3.159 -0.5303  0.1163  0.1900
  122fsi    OBT  944   3.110   0.660   2.988  0.4811  0.0992 -0.3630
  122fsi    SBT  945   2.838   0.751   3.282 -0.0044  0.1615 -0.3415
  122fsi    OBT  946   2.914   0.769   3.406 -0.1147  0.5020  0.9488
  122fsi    OBT  947   2.713   0.685   3.286 -0.0026 -0.6174  0.0540
  122fsi    FSI  948   2.793   0.899   3.240 -0.2497  0.2799  0.3289
  123fsi    FSI  949   3.708   0.843   2.315 -0.2469  0.1539 -0.4598
  123fsi    SBT  950   3.594   0.821   2.419 -0.1796  0.0220 -0.1322
  123fsi    NBT  951   3.612   0.673   2.469 -0.1943  0.2567 -0.1277
  123fsi    OBT  952   3.632   0.918   2.518 -0.3598  0.5427 -0.0779
  123fsi    OBT  953   3.484   0.847   2.333  0.5958 -0.2808 -0.2647
  123fsi    SBT  954   3.701   0.618   2.582  0.0201  0.3025 -0.0064
  123fsi    OBT  955   3.662   0.486   2.619 -0.4083  0.9429  0.0408
  123fsi    OBT  956   3.748   0.712   2.678  0.1445  0.1901  0.0993
  123fsi    FSI  957   3.833   0.584   2.505  0.0496  0.0580  0.4178
  124fsi    FSI  958   2.417   4.998   3.754  0.7817 -0.2443 -0.2775
  124fsi    SBT  959   2.470   5.083   3.635 -0.4577 -0.1973  0.2291
  124fsi    NBT  960   2.404   5.020   3.508 -0.7200  0.0552  0.0497
  124fsi    OBT  961   2.430   5.215   3.666 -0.5572  0.0666 -0.2096
  124fsi    OBT  962   2.611   5.055   3.641  0.6549 -0.1191  0.5245
  124fsi    SBT  963   2.383   4.868   3.469  0.3758 -0.1783  0.2512
  124fsi    OBT  964   2.419   4.783   3.570  0.0922  0.3535 -0.1605
  124fsi    OBT  965   2.432   4.833   3.338 -0.2205  0.2149 -0.0501
  124fsi    FSI  966   2.232   4.845   3.447 -0.0948  0.1553  0.3459
  125fsi    FSI  967   3.185   5.382   3.437  0.0062  0.5403 -0.2337
  125fsi    SBT  968   3.160   5.299   3.576  0.3877  0.1084  0.5967
  125fsi    NBT  969   3.007   5.260   3.567  0.1104  0.2064  0.5904
  125fsi    OBT  970   3.257   5.193   3.571  0.2213  0.5337  0.0339
  125fsi    OBT  971   3.177   5.404   3.670  0.4736 -1.4064 -0.1250
  125fsi    SBT  972   2.895   5.269   3.679 -0.4554 -0.2153 -0.2769
  125fsi    OBT  973   2.762   5.306   3.634 -0.1127 -0.1176  0.0463
  125fsi    OBT  974   2.938   5.335   3.802 -0.0901 -0.2867  0.1795
  125fsi    FSI  975   2.873   5.128   3.718 -0.1303  0.1140  0.1485
  126fsi    FSI  976   3.045   1.593   2.998  0.0331 -0.4227 -0.6165
  126fsi    SBT  977   3.160   1.604   2.892  0.4410  0.1744  0.0379
  126fsi    NBT  978   3.263   1.710   2.949  0.1265 -0.5662 -0.6812
  126fsi    OBT  979   3.215   1.470   2.881 -0.2072 -0.5229 -0.0808
  126fsi    OBT  980   3.095   1.658   2.781  0.3335  0.1217 -0.3697
  126fsi    SBT  981   3.397   1.682   3.021  0.0115  0.3218  0.0993
  126fsi    OBT  982   3.487   1.796   3.023 -0.6123 -0.0797 -0.6052
  126fsi    OBT  983   3.460   1.557   2.988 -0.3340 -0.3904  0.4570
  126fsi    FSI  984   3.349   1.656   3.170 -0.2092 -0.3569  0.1700
  127fsi    FSI  985   3.115   1.098   3.867 -0.6172  0.1554  0.0301
  127fsi    SBT  986   3.008   1.152   3.967 -0.2208  0.1248  0.2290
  127fsi    NBT  987   3.074   1.123   4.107 -0.1679 -0.5036 -0.1804
  127fsi    OBT  988   2.988   1.286   3.933  0.0143 -0.5845 -0.3573
  127fsi    OBT  989   2.889   1.075   3.943 -0.7596 -0.0220 -0.9524
  127fsi    SBT  990   3.161   1.219   4.201  0.4508 -0.6056  0.3199
  127fsi    OBT  991   3.269   1.292   4.147 -0.4398 -0.3889  0.1423
  127fsi    OBT  992   3.196   1.146   4.317  0.5092 -0.5205 -0.3924
  127fsi    FSI  993   3.065   1.324   4.253 -0.2240 -0.3680 -0.1277
  128fsi    FSI  994   4.190   1.616   2.473  0.1553  0.2468  0.0880
  128fsi    SBT  995   4.039   1.635   2.501 -0.5389 -0.0528 -0.5065
  128fsi    NBT  996   4.029   1.793   2.522 -0.5865 -0.5288 -0.1737
  128fsi    OBT  997   3.974   1.587   2.384  0.0091  0.0437 -0.2888
  128fsi    OBT  998   4.003   1.561   2.620 -0.3121  0.0418 -0.3066
  128fsi    SBT  999   4.003   1.881   2.650  0.0346  0.0192 -0.1113
  128fsi    OBT 1000   3.996   1.819   2.780  0.2545 -0.5628  0.0395
  128fsi    OBT 1001   3.916   1.992   2.622 -0.4137 -0.0645  0.1530
  128fsi    FSI 1002   4.141   1.956   2.658 -0.0718  0.0127 -0.7431
  129fsi    FSI 1003   3.589   2.102   3.461 -0.5561 -0.6948  0.4432
  129fsi    SBT 1004   3.690   2.160   3.571 -0.2461  0.1952  0.0883
  129fsi    NBT 1005   3.799   2.054   3.560 -0.0697  0.3398 -0.3682
  129fsi    OBT 1006   3.715   2.290   3.524 -0.3479 -0.9937 -0.2063
  129fsi    OBT 1007   3.622   2.140   3.694  0.0362  0.6136  0.1943
  129fsi    SBT 1008   3.905   2.051   3.442 -0.7396 -0.1198  0.0957
  129fsi    OBT 1009   3.999   1.943   3.450 -0.2298 -0.0512 -0.0835
  129fsi    OBT 1010   3.955   2.177   3.396 -0.2032 -0.0777  0.5300
  129fsi    FSI 1011   3.812   2.007   3.326  0.1303  0.8081 -0.3101
  130fsi    FSI 1012   4.231   2.521   3.176 -0.4845 -0.3106  0.7781
  130fsi    SBT 1013   4.115   2.413   3.155  0.4737  0.1972 -0.2530
  130fsi    NBT 1014   4.181   2.281   3.214  0.1023 -0.0488  0.7907
  130fsi    OBT 1015   4.007   2.459   3.242 -0.3062  0.4769 -0.5344
  130fsi    OBT 1016   4.100   2.410   3.017 -0.4661 -0.1527 -0.5166
  130fsi    SBT 1017   4.200   2.140   3.144 -0.3300  0.1543 -0.6302
  130fsi    OBT 1018   4.137   2.108   3.022 -0.3819  0.4381  0.4878
  130fsi    OBT 1019   4.209   2.039   3.243 -0.0650  0.3103  0.1702
  130fsi    FSI 1020   4.351   2.157   3.109 -0.1273  0.0973 -0.1227
  131fsi    FSI 1021   2.945   2.290   3.689  0.3992  0.2826  0.1604
  131fsi    SBT 1022   2.990   2.246   3.830  0.0467 -0.0224  0.1964
  131fsi    NBT 1023   3.131   2.309   3.850  0.2588 -0.2061 -0.6486
  131fsi    OBT 1024   2.893   2.303   3.923  0.1678 -0.2816  0.2305
  131fsi    OBT 1025   2.998   2.106   3.819  0.1979 -0.0653 -0.1108
  131fsi    SBT 1026   3.184   2.427   3.935 -0.3245  0.0692  0.1892
  131fsi    OBT 1027   3.269   2.386   4.042  0.0058 -0.2149  0.7221
  131fsi    OBT 1028   3.079   2.518   3.975  0.5892 -0.3949 -0.2004
  131fsi    FSI 1029   3.276   2.516   3.839  0.3990  0.2355 -0.0911
  132fsi    FSI 1030   3.292   1.121   2.779 -0.2058  0.0320  0.0870
  132fsi    SBT 1031   3.245   1.170   2.633 -0.5246  0.5813 -0.3017
  132fsi    NBT 1032   3.088   1.156   2.656  0.4866  0.3677  0.1042
  132fsi    OBT 1033   3.301   1.300   2.618 -0.1798 -0.3500  0.1238
  132fsi    OBT 1034   3.295   1.067   2.546 -0.2429 -0.1803 -0.3160
  132fsi    SBT 1035   2.984   1.272   2.678  0.0236 -0.0230 -0.0926
  132fsi    OBT 1036   2.858   1.224   2.635 -0.5481 -0.1489 -0.2558
  132fsi    OBT 1037   3.027   1.399   2.630 -0.1552  0.1540 -0.4329
  132fsi    FSI 1038   2.974   1.286   2.837 -0.1700 -0.8585  0.8982
  133fsi    FSI 1039   3.209   4.400   0.539 -0.2197 -0.3118 -0.2067
  133fsi    SBT 1040   3.164   4.525   0.449  0.0171 -0.0710  0.3264
  133fsi    NBT 1041   3.021   4.545   0.504  0.1107 -0.7729  0.2573
  133fsi    OBT 1042   3.253   4.635   0.475 -0.1611 -0.0573 -0.1388
  133fsi    OBT 1043   3.169   4.467   0.320 -0.1482 -0.0962 -0.2623
  133fsi    SBT 1044   2.962   4.637   0.610 -0.0954  0.1072  0.3571
  133fsi    OBT 1045   2.824   4.674   0.590 -0.5053 -0.7067  0.1555
  133fsi    OBT 1046   3.059   4.735   0.659  0.9494 -0.2996  0.2344
  133fsi    FSI 1047   2.948   4.537   0.731  0.1521  0.0249  0.6800
  134fsi    FSI 1048   2.140   4.127   3.070 -0.2643 -0.4945 -0.2740
  134fsi    SBT 1049   2.163   4.178   2.920  0.1725 -0.3831 -0.2453
  134fsi    NBT 1050   2.116   4.050   2.831 -0.1915 -0.1655 -0.4850
  134fsi    OBT 1051   2.080   4.291   2.900 -0.3089 -0.5493 -0.4723
  134fsi    OBT 1052   2.301   4.207   2.919  0.2411 -0.4558  0.1363
  134fsi    SBT 1053   2.215   3.937   2.786 -0.1734  0.3486  0.3653
  134fsi    OBT 1054   2.284   3.891   2.902  0.0752  0.8291 -0.1444
  134fsi    OBT 1055   2.284   3.963   2.665  0.0868  0.4500  0.1488
  134fsi    FSI 1056   2.117   3.812   2.748 -0.1110  0.0181  0.2184
  135fsi    FSI 1057   3.213   5.628   2.725  0.1829 -0.0435  0.0222
  135fsi    SBT 1058   3.095   5.667   2.822  0.0194  0.0450 -0.1683
  135fsi    NBT 1059   3.004   5.764   2.737  0.1182 -0.3873 -0.0138
  135fsi    OBT 1060   3.032   5.544   2.847 -0.2828  0.6012 -0.1319
  135fsi    OBT 1061   3.157   5.734   2.927 -0.2948 -0.5976  0.0531
  135fsi    SBT 1062   2.876   5.743   2.646 -0.3192  0.3696 -0.1844
  135fsi    OBT 1063   2.784   5.859   2.640 -0.2307  0.4555  0.1503
  135fsi    OBT 1064   2.808   5.614   2.655 -0.2881 -0.0013  0.4489
  135fsi    FSI 1065   2.930   5.742   2.505 -0.1983 -0.7453 -0.0078
  136fsi    FSI 1066   2.781   2.715   3.565 -0.1785 -0.1763 -0.2154
  136fsi    SBT 1067   2.752   2.591   3.662  0.1236 -0.2295 -0.1473
  136fsi    NBT 1068   2.606   2.626   3.722 -0.5484  0.1646 -0.5535
  136fsi    OBT 1069   2.747   2.475   3.580 -0.2063 -0.0001 -0.0421
  136fsi    OBT 1070   2.855   2.599   3.761 -0.2667 -0.1142  0.0604
  136fsi    SBT 1071   2.557   2.681   3.861  0.1127  0.8966 -0.3507
  136fsi    OBT 1072   2.454   2.775   3.844  0.1281 -0.4684 -0.0256
  136fsi    OBT 1073   2.659   2.707   3.956 -0.1313  0.2223  0.3096
  136fsi    FSI 1074   2.484   2.553   3.923  0.1814  0.0779 -0.1541
  137fsi    FSI 1075   2.480   5.549   3.273 -0.3176 -0.7156  0.4575
  137fsi    SBT 1076   2.492   5.393   3.276  0.3468 -0.0619  0.0374
  137fsi    NBT 1077   2.609   5.355   3.182  0.0327 -0.1700 -0.2970
  137fsi    OBT 1078   2.505   5.362   3.416  0.5634  0.6867  0.2086
  137fsi    OBT 1079   2.364   5.349   3.210  0.1642  0.5554 -0.9171
  137fsi    SBT 1080   2.762   5.392   3.198 -0.2807  0.1920 -0.1633
  137fsi    OBT 1081   2.791   5.486   3.302  0.9145 -0.4986 -0.1835
  137fsi    OBT 1082   2.826   5.419   3.074  0.0139  0.5533 -0.0577
  137fsi    FSI 1083   2.817   5.253   3.253 -0.8124  0.5871 -0.6116
  138fsi    FSI 1084   3.006   0.113   2.624 -0.0666 -0.0184 -0.0327
  138fsi    SBT 1085   2.972   0.187   2.765 -0.6097 -0.7336 -0.2737
  138fsi    NBT 1086   3.092   0.140   2.861 -0.0308 -0.7049 -0.4928
  138fsi    OBT 1087   2.979   0.326   2.739  0.5720 -0.5376  0.1344
  138fsi    OBT 1088   2.845   0.131   2.800  0.1997 -0.0157 -0.1588
  138fsi    SBT 1089   3.228   0.216   2.900  0.2156  0.0560 -0.3891
  138fsi    OBT 1090   3.233   0.354   2.867  0.0841 -0.2778 -0.2102
  138fsi    OBT 1091   3.349   0.145   2.867 -0.1758 -0.1971  0.0790
  138fsi    FSI 1092   3.223   0.212   3.055  0.4703  0.2732  0.3557
  139fsi    FSI 1093   3.323   1.825   2.628 -0.3404 -0.1498 -0.0323
  139fsi    SBT 1094   3.384   1.698   2.556 -0.1022 -0.0664 -0.0022
  139fsi    NBT 1095   3.489   1.646   2.661 -0.0750 -0.1310  0.1824
  139fsi    OBT 1096   3.276   1.601   2.540  0.8252  0.0402  0.0453
  139fsi    OBT 1097   3.445   1.751   2.436  0.4436  0.0889  0.4453
  139fsi    SBT 1098   3.643   1.664   2.660 -0.1405  0.6215 -0.2101
  139fsi    OBT 1099   3.702   1.615   2.535 -0.4360  0.1329 -0.0212
  139fsi    OBT 1100   3.698   1.637   2.789  0.5823 -0.1718  0.3711
  139fsi    FSI 1101   3.649   1.819   2.658 -0.4031  0.1730  0.0379
  140fsi    FSI 1102   3.598   3.573   2.495  0.2767 -0.1093 -0.3095
  140fsi    SBT 1103   3.685   3.609   2.616  0.3168 -0.2608 -0.0122
  140fsi    NBT 1104   3.714   3.467   2.678  0.3180  0.4092  0.1506
  140fsi    OBT 1105   3.795   3.671   2.553 -0.3189  0.3838 -0.3618
  140fsi    OBT 1106   3.601   3.694   2.699  0.3696  0.5089  0.3011
  140fsi    SBT 1107   3.658   3.402   2.808 -0.4772 -0.4145 -0.4380
  140fsi    OBT 1108   3.699   3.263   2.822  0.1837  0.5009 -0.3149
  140fsi    OBT 1109   3.520   3.428   2.835  0.3520  0.1695  0.3232
  140fsi    FSI 1110   3.740   3.467   2.914 -0.3540 -0.0274 -0.3241
  141fsi    FSI 1111   2.999   5.845   3.796  0.2534 -0.3601  0.0193
  141fsi    SBT 1112   2.958   5.700   3.762 -0.0508 -0.0170  0.4990
  141fsi    NBT 1113   2.801   5.696   3.779 -0.5913  0.4199 -0.0671
  141fsi    OBT 1114   3.003   5.673   3.626  0.0596  0.2000 -0.3012
  141fsi    OBT 1115   3.021   5.628   3.872 -0.4330  0.6631 -0.4375
  141fsi    SBT 1116   2.700   5.697   3.660 -0.2874 -0.3110 -0.1637
  141fsi    OBT 1117   2.606   5.594   3.672  0.4538  0.5035  0.4482
  141fsi    OBT 1118   2.753   5.716   3.530 -0.0302 -1.0368 -0.6996
  141fsi    FSI 1119   2.627   5.831   3.694  0.6227 -0.2664 -0.3542
  142fsi    FSI 1120   2.077   3.322   4.629  0.3123 -0.2481  0.0734
  142fsi    SBT 1121   2.190   3.258   4.548  0.0101 -0.4330  0.0873
  142fsi    NBT 1122   2.123   3.157   4.450 -0.0153 -0.2797  0.2134
  142fsi    OBT 1123   2.250   3.364   4.476 -0.2551  0.4238  0.0760
  142fsi    OBT 1124   2.274   3.204   4.654 -0.0180 -0.7721 -0.0489
  142fsi    SBT 1125   2.126   3.002   4.450  0.1846 -0.0212 -0.1042
  142fsi    OBT 1126   2.217   2.939   4.550  0.0396 -0.0159  0.1777
  142fsi    OBT 1127   2.114   2.946   4.321  0.0645 -0.1610  0.0973
  142fsi    FSI 1128   1.977   2.969   4.511  0.0626  0.4047 -0.9292
  143fsi    FSI 1129   2.744   3.318   4.340  0.3139  0.0421  0.2361
  143fsi    SBT 1130   2.584   3.305   4.353 -0.1998  0.1959  0.0190
  143fsi    NBT 1131   2.529   3.198   4.250 -0.1054  0.5878  1.0111
  143fsi    OBT 1132   2.567   3.265   4.495 -0.2192  0.3218  0.4416
  143fsi    OBT 1133   2.551   3.438   4.315 -0.4823 -1.0433 -0.2321
  143fsi    SBT 1134   2.481   3.051   4.260  0.2756 -0.2051 -0.5792
  143fsi    OBT 1135   2.384   3.009   4.158  0.3028 -0.2745  0.7812
  143fsi    OBT 1136   2.447   3.024   4.395 -0.2646  0.3472  0.7868
  143fsi    FSI 1137   2.608   2.968   4.232 -0.3325 -0.4219  0.3738
  144fsi    FSI 1138   2.544   4.380   3.483 -0.1330  0.0437 -0.4908
  144fsi    SBT 1139   2.659   4.463   3.407  0.8628 -0.2255 -0.4977
  144fsi    NBT 1140   2.669   4.581   3.512  0.1845  0.0572  0.5373
  144fsi    OBT 1141   2.761   4.367   3.405  0.9224  0.1088  0.2768
  144fsi    OBT 1142   2.600   4.493   3.279  1.1012  0.7881 -0.0230
  144fsi    SBT 1143   2.748   4.584   3.651  0.3395  0.5063  0.2870
  144fsi    OBT 1144   2.788   4.453   3.710 -0.9076 -0.2517 -0.2167
  144fsi    OBT 1145   2.692   4.679   3.744  0.0316  0.4851  0.3320
  144fsi    FSI 1146   2.880   4.650   3.606 -0.2610 -0.2547 -0.2939
  145fsi    FSI 1147   4.337   1.835   3.118  0.1232  0.0393 -0.6396
  145fsi    SBT 1148   4.259   1.707   3.172 -0.3882  0.3242 -0.2395
  145fsi    NBT 1149   4.131   1.706   3.076  0.7115  0.7617 -0.4464
  145fsi    OBT 1150   4.350   1.602   3.139 -0.0321  1.1006  0.1512
  145fsi    OBT 1151   4.243   1.748   3.308 -0.7344 -0.5671 -0.2605
  145fsi    SBT 1152   3.978   1.718   3.109  0.4410 -0.3597 -0.4177
  145fsi    OBT 1153   3.939   1.695   3.242 -0.1340 -0.1278 -0.2650
  145fsi    OBT 1154   3.891   1.661   3.011 -0.6596 -0.5144  0.0239
  145fsi    FSI 1155   3.953   1.866   3.091 -0.1499 -0.4508 -0.3328
  146fsi    FSI 1156   2.844   1.042   3.531  0.0617  0.0090  0.5059
  146fsi    SBT 1157   2.730   1.015   3.630  0.0662 -0.5489  0.2160
  146fsi    NBT 1158   2.711   1.157   3.698  0.4002 -0.2148 -0.3354
  146fsi    OBT 1159   2.620   0.972   3.546  0.1536  0.5207 -0.6678
  146fsi    OBT 1160   2.779   0.921   3.730  0.3723  0.0751  0.1091
  146fsi    SBT 1161   2.614   1.276   3.651  0.0677 -0.4177  0.2436
  146fsi    OBT 1162   2.612   1.301   3.508 -0.0984  1.0069 -0.0221
  146fsi    OBT 1163   2.639   1.388   3.743  0.0879  0.1727  0.7028
  146fsi    FSI 1164   2.469   1.230   3.682  0.3624  0.3283  0.2892
  147fsi    FSI 1165   2.800   1.713   2.345 -0.6040  0.2715  0.2760
  147fsi    SBT 1166   2.907   1.816   2.407  0.0210  0.1129 -0.1027
  147fsi    NBT 1167   2.989   1.871   2.285 -0.2652 -0.1459 -0.1249
  147fsi    OBT 1168   2.821   1.915   2.467 -0.6192 -0.1112 -0.1411
  147fsi    OBT 1169   2.987   1.739   2.493  0.7330 -0.1604  0.2481
  147fsi    SBT 1170   3.089   1.794   2.194  0.3766 -0.1157 -0.0453
  147fsi    OBT 1171   3.103   1.867   2.069 -0.2191  0.4757  0.4680
  147fsi    OBT 1172   3.078   1.651   2.200  0.2540  0.6547 -0.3662
  147fsi    FSI 1173   3.225   1.824   2.263  0.2940  0.1211 -0.7532
  148fsi    FSI 1174   2.316   3.212   2.359  0.0221  0.2469 -0.0365
  148fsi    SBT 1175   2.198   3.213   2.463  0.2909  0.0589  0.1586
  148fsi    NBT 1176   2.113   3.338   2.421 -0.3224  0.1716  0.0895
  148fsi    OBT 1177   2.133   3.093   2.447  0.1905  0.6819  0.2475
  148fsi    OBT 1178   2.246   3.248   2.591  0.5847 -0.7411  0.4316
  148fsi    SBT 1179   1.975   3.351   2.339 -0.2875  0.0765 -0.0350
  148fsi    OBT 1180   1.946   3.242   2.249 -0.1092 -0.1596 -0.5424
  148fsi    OBT 1181   1.956   3.487   2.295 -0.6723 -0.0305  0.1449
  148fsi    FSI 1182   1.859   3.334   2.447  0.3257  0.1551 -0.5821
  149fsi    FSI 1183   3.122   2.591   3.222  0.3621  0.1709 -0.0878
  149fsi    SBT 1184   3.028   2.632   3.346 -0.1989  0.2047  0.1866
  149fsi    NBT 1185   2.899   2.682   3.277 -0.0310  0.3854 -0.4930
  149fsi    OBT 1186   3.022   2.512   3.429 -0.0084 -0.1202 -0.0304
  149fsi    OBT 1187   3.102   2.741   3.400 -0.2486 -0.0735  0.3724
  149fsi    SBT 1188   2.784   2.595   3.217  0.1922 -0.0988  0.0379
  149fsi    OBT 1189   2.799   2.454   3.242  0.0809  0.3229  0.4172
  149fsi    OBT 1190   2.761   2.629   3.078  0.1744 -0.2799 -0.0926
  149fsi    FSI 1191   2.661   2.637   3.285  0.3960  0.3423  0.1938
  150fsi    FSI 1192   2.901   5.128   3.015 -0.4426 -0.2866  0.2693
  150fsi    SBT 1193   2.826   5.116   2.874 -0.1503  0.4109 -0.2519
  150fsi    NBT 1194   2.676   5.116   2.903 -0.5295 -0.4393 -0.1992
  150fsi    OBT 1195   2.866   5.234   2.809 -0.0291  0.3920 -0.1537
  150fsi    OBT 1196   2.864   4.998   2.808 -0.4062  0.1921 -0.0504
  150fsi    SBT 1197   2.574   5.004   2.933  0.1617  0.4537 -0.2426
  150fsi    OBT 1198   2.465   5.052   3.013  0.4311 -0.5457  1.1181
  150fsi    OBT 1199   2.623   4.872   2.970 -0.1389 -0.1810  0.6540
  150fsi    FSI 1200   2.509   4.986   2.788 -0.1064 -0.2841  0.2031
  151fsi    FSI 1201   3.031   0.704   2.326 -0.2527 -0.7492 -0.1156
  151fsi    SBT 1202   3.115   0.818   2.400  0.2100  0.1834  0.1643
  151fsi    NBT 1203   3.206   0.736   2.495 -0.3769 -0.2075  0.5839
  151fsi    OBT 1204   3.185   0.874   2.289  0.3203 -0.2727 -0.3502
  151fsi    OBT 1205   3.009   0.892   2.463 -0.3981  0.6118  0.1637
  151fsi    SBT 1206   3.215   0.738   2.650  0.1824  0.0179 -0.1244
  151fsi    OBT 1207   3.204   0.606   2.702  0.2500  0.3521 -0.0263
  151fsi    OBT 1208   3.133   0.835   2.721  0.3682 -0.3045  0.6282
  151fsi    FSI 1209   3.370   0.787   2.683 -0.2973 -0.3517  0.2130
  152fsi    FSI 1210   2.509   2.145   2.813  0.0346  0.0520  0.3457
  152fsi    SBT 1211   2.579   2.250   2.717  0.2480 -0.1637  0.1322
  152fsi    NBT 1212   2.485   2.270   2.591 -0.5256 -0.6818  0.3024
  152fsi    OBT 1213   2.579   2.364   2.802  0.0621  0.2494 -0.1594
  152fsi    OBT 1214   2.708   2.200   2.686  0.0138 -0.3884 -0.0775
  152fsi    SBT 1215   2.503   2.214   2.449  0.1446  0.1124 -0.0528
  152fsi    OBT 1216   2.630   2.155   2.419  0.3925  0.2337 -0.6156
  152fsi    OBT 1217   2.457   2.308   2.347  0.1538  0.1604 -0.4715
  152fsi    FSI 1218   2.397   2.099   2.448  0.5393  0.0556 -0.4424
  153fsi    FSI 1219   3.287   4.605   3.519  0.5646  0.0813  0.4055
  153fsi    SBT 1220   3.204   4.528   3.408  0.0254  0.3893 -0.1694
  153fsi    NBT 1221   3.312   4.425   3.363  0.0531 -0.4553  1.1496
  153fsi    OBT 1222   3.097   4.467   3.484  0.3070 -0.0261  0.1469
  153fsi    OBT 1223   3.169   4.622   3.304  0.3380 -0.3459 -0.2194
  153fsi    SBT 1224   3.340   4.288   3.424  0.0279  0.3490  0.5380
  153fsi    OBT 1225   3.442   4.216   3.348  0.0349  0.6127 -0.4274
  153fsi    OBT 1226   3.220   4.217   3.457  0.7163  0.3890 -0.3936
  153fsi    FSI 1227   3.403   4.302   3.560 -0.2383  0.2129  0.1202
  154fsi    FSI 1228   2.771   3.430   3.309 -0.2078  0.3576 -0.4978
  154fsi    SBT 1229   2.738   3.327   3.423 -0.2531 -0.5977  0.1645
  154fsi    NBT 1230   2.782   3.189   3.365 -0.2572  1.0030  0.2913
  154fsi    OBT 1231   2.816   3.370   3.535 -0.3808 -0.4137  0.0677
  154fsi    OBT 1232   2.596   3.342   3.438  0.2392 -0.4705 -0.1905
  154fsi    SBT 1233   2.910   3.099   3.377  0.0476  0.3555 -0.8558
  154fsi    OBT 1234   3.029   3.170   3.347  0.1040 -0.4200  0.0543
  154fsi    OBT 1235   2.885   2.974   3.305 -0.0094  0.6022  0.6691
  154fsi    FSI 1236   2.913   3.050   3.527  0.1473  0.2501 -0.0002
  155fsi    FSI 1237   3.085   2.128   4.508 -0.1632 -0.2514  0.2423
  155fsi    SBT 1238   3.120   2.154   4.660  0.0697  0.4879 -0.1874
  155fsi    NBT 1239   3.007   2.055   4.716 -0.8167  0.3783  0.2662
  155fsi    OBT 1240   3.250   2.102   4.677 -0.2916  0.8282 -0.2440
  155fsi    OBT 1241   3.093   2.290   4.685  0.3356  0.2302 -0.9172
  155fsi    SBT 1242   2.849   2.077   4.706  0.1518 -0.0133  0.3206
  155fsi    OBT 1243   2.804   2.201   4.644 -0.3132  0.3512 -0.0412
  155fsi    OBT 1244   2.771   2.035   4.821  0.0146 -0.3226 -0.4167
  155fsi    FSI 1245   2.817   1.961   4.604 -0.2811 -0.2849  0.1408
  156fsi    FSI 1246   2.382   3.237   3.922 -0.3596 -0.2271  0.5522
  156fsi    SBT 1247   2.252   3.272   3.849 -0.0749 -0.2607 -0.0231
  156fsi    NBT 1248   2.194   3.380   3.948  0.0869 -0.0192 -0.6096
  156fsi    OBT 1249   2.300   3.333   3.731  0.2377 -0.0223 -0.1673
  156fsi    OBT 1250   2.174   3.156   3.840  0.2211 -0.4833 -0.1058
  156fsi    SBT 1251   2.142   3.359   4.098  0.0401  0.2438 -0.1145
  156fsi    OBT 1252   2.223   3.437   4.191  0.2071 -0.5756 -0.2855
  156fsi    OBT 1253   2.107   3.221   4.134 -0.2470 -0.1196  0.5690
  156fsi    FSI 1254   2.004   3.425   4.113  0.1921 -0.2012  0.0493
  157fsi    FSI 1255   3.118   1.568   4.137 -0.0071  0.1159  0.1563
  157fsi    SBT 1256   3.011   1.665   4.069  0.2741 -0.2964  0.4406
  157fsi    NBT 1257   3.087   1.809   4.068 -0.2412  0.4525  0.3147
  157fsi    OBT 1258   2.992   1.618   3.937 -0.0642 -0.1362 -0.1219
  157fsi    OBT 1259   2.907   1.659   4.158  0.5984 -0.0813 -0.7715
  157fsi    SBT 1260   3.060   1.939   4.157 -0.1040 -0.0593  0.5019
  157fsi    OBT 1261   2.924   1.976   4.178  0.0408 -0.3830 -0.2950
  157fsi    OBT 1262   3.145   2.052   4.129 -0.4177 -0.4390 -0.1888
  157fsi    FSI 1263   3.114   1.889   4.293 -0.0790 -0.3085  0.1381
  158fsi    FSI 1264   3.120   2.087   3.192  0.4083  0.4680 -0.4617
  158fsi    SBT 1265   3.083   2.225   3.259 -0.1703 -0.3965 -0.3628
  158fsi    NBT 1266   3.215   2.262   3.335 -0.2456 -1.1387  0.0444
  158fsi    OBT 1267   3.053   2.310   3.144  0.6303 -0.1914  0.0749
  158fsi    OBT 1268   2.976   2.197   3.351 -0.1762 -0.2732 -0.4514
  158fsi    SBT 1269   3.348   2.318   3.274 -0.3319  0.1104 -0.1362
  158fsi    OBT 1270   3.445   2.365   3.369  0.0020  0.5705 -0.6915
  158fsi    OBT 1271   3.349   2.376   3.144 -0.0863  0.1749 -0.3854
  158fsi    FSI 1272   3.412   2.180   3.229 -0.1295  0.3341  0.0566
  159fsi    FSI 1273   2.643   3.707   3.404 -0.4506  0.3508 -0.5098
  159fsi    SBT 1274   2.752   3.759   3.494  0.0274  0.4254 -0.1498
  159fsi    NBT 1275   2.865   3.769   3.394 -0.6142  0.5946  0.1567
  159fsi    OBT 1276   2.697   3.887   3.540 -0.0319  0.1362 -0.2860
  159fsi    OBT 1277   2.763   3.657   3.598 -0.0547 -0.6102  0.2162
  159fsi    SBT 1278   3.016   3.716   3.401 -0.3926  0.0420  0.2414
  159fsi    OBT 1279   3.050   3.631   3.510 -0.2733 -0.5789  0.2339
  159fsi    OBT 1280   3.107   3.819   3.380  0.3279 -0.7608 -0.2827
  159fsi    FSI 1281   3.034   3.616   3.275 -0.4883  0.0750  0.7598
  160fsi    FSI 1282   2.640   4.786   2.448 -0.2046  0.3159 -0.1248
  160fsi    SBT 1283   2.713   4.654   2.452  0.3547  0.0037 -0.5464
  160fsi    NBT 1284   2.844   4.678   2.365 -0.3664  0.1439  0.7168
  160fsi    OBT 1285   2.744   4.639   2.592  0.0091  0.7699 -0.5685
  160fsi    OBT 1286   2.619   4.555   2.398  0.2177 -0.6741  0.8772
  160fsi    SBT 1287   2.990   4.732   2.403 -0.9194  0.5205 -0.0666
  160fsi    OBT 1288   3.094   4.635   2.369  0.6691 -0.1202 -0.0482
  160fsi    OBT 1289   2.999   4.789   2.537 -0.3609  0.0812  0.0023
  160fsi    FSI 1290   3.005   4.853   2.310  0.0411  0.0754 -0.1332
  161fsi    FSI 1291   3.696   1.762   3.569 -0.3834  0.1329 -0.1070
  161fsi    SBT 1292   3.780   1.717   3.691 -0.2185 -0.1793  0.3774
  161fsi    NBT 1293   3.928   1.714   3.638 -0.3342  0.0506 -0.0773
  161fsi    OBT 1294   3.748   1.826   3.787 -0.2830  0.4499  0.6049
  161fsi    OBT 1295   3.728   1.591   3.722  0.5287 -0.0130  0.1840
  161fsi    SBT 1296   4.048   1.784   3.704  0.1221 -0.2084  0.3275
  161fsi    OBT 1297   4.027   1.913   3.767 -0.2376 -0.0703  1.0848
  161fsi    OBT 1298   4.165   1.768   3.625 -0.2864  0.1413  0.7658
  161fsi    FSI 1299   4.082   1.683   3.822 -0.2393 -0.1724  0.2477
  162fsi    FSI 1300   3.158   4.394   2.509 -0.7289  0.5341  0.2612
  162fsi    SBT 1301   3.093   4.409   2.644  0.0057 -0.1326  0.0381
  162fsi    NBT 1302   3.130   4.558   2.701 -0.7127 -0.2443 -0.0485
  162fsi    OBT 1303   2.954   4.394   2.622 -0.4037 -0.4824  0.1246
  162fsi    OBT 1304   3.155   4.302   2.728 -0.2014 -0.0997  0.2485
  162fsi    SBT 1305   3.250   4.607   2.790  0.6576 -0.0457 -0.1042
  162fsi    OBT 1306   3.322   4.499   2.847 -0.0872 -0.3146 -0.7193
  162fsi    OBT 1307   3.217   4.714   2.875  0.2701  0.2192  0.0515
  162fsi    FSI 1308   3.344   4.665   2.672  0.5878  0.3075 -0.2799
  163fsi    FSI 1309   2.344   2.919   2.472 -0.5751  0.2470  0.3772
  163fsi    SBT 1310   2.322   2.819   2.598  0.1493  0.2888  0.0865
  163fsi    NBT 1311   2.464   2.806   2.669  0.6721  0.6638 -0.3903
  163fsi    OBT 1312   2.222   2.889   2.678  0.0714  0.0096 -0.2086
  163fsi    OBT 1313   2.276   2.696   2.535  0.4596 -0.2477  0.3574
  163fsi    SBT 1314   2.585   2.721   2.618  0.2475 -0.3777  0.0492
  163fsi    OBT 1315   2.545   2.612   2.536  0.1673  0.2541 -0.3515
  163fsi    OBT 1316   2.679   2.691   2.720  0.5073 -0.2815  1.0054
  163fsi    FSI 1317   2.665   2.814   2.517 -0.1340  0.2667  0.1189
  164fsi    FSI 1318   3.823   1.318   2.794  0.5063 -0.6089  0.1931
  164fsi    SBT 1319   3.724   1.249   2.698 -0.0498  0.0256 -0.0713
  164fsi    NBT 1320   3.806   1.264   2.567 -0.6793  0.5791  0.2914
  164fsi    OBT 1321   3.705   1.123   2.755 -0.0527  0.6630  0.1449
  164fsi    OBT 1322   3.606   1.336   2.688 -0.1473 -0.4906  0.7249
  164fsi    SBT 1323   3.909   1.165   2.506  0.1104 -0.2354 -0.0137
  164fsi    OBT 1324   3.909   1.037   2.564  0.4854 -0.0431 -0.0211
  164fsi    OBT 1325   4.029   1.234   2.469  0.3111 -0.2886  0.2646
  164fsi    FSI 1326   3.850   1.152   2.359 -0.2490 -0.1077  0.1495
  165fsi    FSI 1327   2.597   3.840   1.957  0.0367 -0.4947 -0.2354
  165fsi    SBT 1328   2.740   3.827   2.014 -0.2796  0.2503  0.3288
  165fsi    NBT 1329   2.720   3.827   2.168 -0.0136  0.4898  0.1303
  165fsi    OBT 1330   2.788   3.702   1.968  0.3165 -0.5348 -0.5667
  165fsi    OBT 1331   2.811   3.942   1.967  0.2343  0.0911  0.1437
  165fsi    SBT 1332   2.763   3.722   2.278 -0.2946  0.0187  0.4650
  165fsi    OBT 1333   2.752   3.778   2.408  0.0465  0.3209 -0.9405
  165fsi    OBT 1334   2.881   3.647   2.244 -0.4763 -0.6632  0.3521
  165fsi    FSI 1335   2.646   3.616   2.270 -0.5351 -0.3892  0.0079
  166fsi    FSI 1336   3.249   2.066   2.467 -0.0632 -0.4717  0.2643
  166fsi    SBT 1337   3.167   2.197   2.430  0.1949  0.1411  0.1336
  166fsi    NBT 1338   3.171   2.196   2.268  0.9247 -0.4791  0.2380
  166fsi    OBT 1339   3.032   2.165   2.480  0.3218  0.6035  0.3171
  166fsi    OBT 1340   3.242   2.296   2.504 -0.1144  0.2251 -0.4034
  166fsi    SBT 1341   3.263   2.276   2.173  0.2513 -0.1976  0.3954
  166fsi    OBT 1342   3.301   2.198   2.062  0.7862  0.1644  0.1777
  166fsi    OBT 1343   3.371   2.343   2.229 -0.2743  0.0437 -0.1695
  166fsi    FSI 1344   3.181   2.393   2.116  0.1358  0.2506 -0.1576
  167fsi    FSI 1345   2.582   3.496   2.701 -0.1612 -0.5060  0.1165
  167fsi    SBT 1346   2.474   3.597   2.759 -0.3672  0.2395  0.0497
  167fsi    NBT 1347   2.467   3.562   2.913  0.1607  0.4696 -0.3915
  167fsi    OBT 1348   2.531   3.725   2.729  0.1343  0.2514  0.4649
  167fsi    OBT 1349   2.352   3.564   2.691  0.2095 -0.6066  0.2937
  167fsi    SBT 1350   2.572   3.605   3.029  0.1336 -0.0146 -0.3423
  167fsi    OBT 1351   2.513   3.692   3.127  0.1446  0.4051  0.5808
  167fsi    OBT 1352   2.702   3.650   2.981 -0.0586  0.1726  0.1295
  167fsi    FSI 1353   2.607   3.470   3.096  0.3456 -0.0616  0.2667
  168fsi    FSI 1354   1.885   3.374   2.870 -0.3913 -0.4778  0.0244
  168fsi    SBT 1355   2.024   3.435   2.830 -0.1212 -0.1581 -0.1573
  168fsi    NBT 1356   2.039   3.556   2.927 -0.7887  0.4698 -0.4127
  168fsi    OBT 1357   2.114   3.326   2.842  0.1109 -0.4089 -0.2946
  168fsi    OBT 1358   2.008   3.481   2.696 -0.3796 -0.2528 -0.0476
  168fsi    SBT 1359   2.123   3.561   3.068  0.2454  0.1337  0.1277
  168fsi    OBT 1360   2.168   3.693   3.104  1.1826 -0.2921  0.3964
  168fsi    OBT 1361   2.221   3.458   3.084 -0.0244  0.3307 -0.4128
  168fsi    FSI 1362   2.013   3.531   3.172 -0.4106  0.1898 -0.6968
  169fsi    FSI 1363   3.027   4.977   0.323 -0.2247  0.0001 -0.9154
  169fsi    SBT 1364   2.920   4.900   0.246  0.5994 -0.0508  0.7568
  169fsi    NBT 1365   2.792   4.907   0.336 -0.6442 -0.2142 -0.2005
  169fsi    OBT 1366   2.906   4.971   0.124  0.2101 -0.2046 -0.0280
  169fsi    OBT 1367   2.976   4.767   0.231  0.0968 -0.1518 -0.0945
  169fsi    SBT 1368   2.653   4.976   0.309 -0.2799  0.0148 -0.0979
  169fsi    OBT 1369   2.546   4.919   0.380  0.2782 -0.1104  0.4997
  169fsi    OBT 1370   2.635   5.000   0.167  0.2239 -0.4615  0.0331
  169fsi    FSI 1371   2.668   5.116   0.366 -0.0825 -0.2355  0.1015
  170fsi    FSI 1372   2.893   4.203   3.923 -0.2496 -0.3318 -0.3972
  170fsi    SBT 1373   2.858   4.123   3.788 -0.1606 -0.6498  0.7073
  170fsi    NBT 1374   2.891   3.979   3.828 -0.3335 -1.1754 -0.0360
  170fsi    OBT 1375   2.716   4.142   3.776  0.0415 -0.2633  0.0683
  170fsi    OBT 1376   2.945   4.175   3.684  0.0650  0.7098 -0.7366
  170fsi    SBT 1377   3.028   3.897   3.831 -0.1969  0.3012  0.0609
  170fsi    OBT 1378   3.124   3.942   3.734 -0.5760 -0.1608  0.2162
  170fsi    OBT 1379   3.010   3.751   3.834  0.5257  0.6872 -0.2211
  170fsi    FSI 1380   3.101   3.933   3.965 -0.6370 -0.0391  0.1942
  171fsi    FSI 1381   3.724   3.175   3.407 -0.4143 -0.2504  0.1541
  171fsi    SBT 1382   3.644   3.307   3.452 -0.2361 -0.1017  0.3136
  171fsi    NBT 1383   3.669   3.289   3.608 -0.0397 -0.0001  0.1171
  171fsi    OBT 1384   3.706   3.418   3.391 -0.3761  0.1147 -0.3510
  171fsi    OBT 1385   3.507   3.272   3.418  0.0661  1.2415 -0.0266
  171fsi    SBT 1386   3.797   3.335   3.697  0.0583 -0.1403 -0.0472
  171fsi    OBT 1387   3.772   3.315   3.837 -0.3010  0.3039  0.0387
  171fsi    OBT 1388   3.849   3.465   3.656  0.8165 -0.0083  0.1027
  171fsi    FSI 1389   3.915   3.239   3.656  0.0986 -0.4329 -0.0822
  172fsi    FSI 1390   3.338   2.569   4.358 -0.1361  0.0671  0.3676
  172fsi    SBT 1391   3.231   2.626   4.467 -0.0592  0.2748  0.2676
  172fsi    NBT 1392   3.095   2.595   4.399  0.2967 -0.8588 -0.2097
  172fsi    OBT 1393   3.261   2.549   4.588 -0.0314 -0.3754  0.1681
  172fsi    OBT 1394   3.270   2.765   4.469  0.0797  0.6026 -0.3714
  172fsi    SBT 1395   3.036   2.460   4.331 -0.1372 -0.2245  0.0419
  172fsi    OBT 1396   3.137   2.360   4.294  0.2046  0.2305 -0.6345
  172fsi    OBT 1397   2.928   2.482   4.236  0.1234 -0.7038 -0.1468
  172fsi    FSI 1398   2.956   2.406   4.455  0.0327 -0.2231  0.4693
  173fsi    FSI 1399   2.181   3.763   4.461 -0.4814  0.2900 -0.4344
  173fsi    SBT 1400   2.285   3.813   4.358 -0.2568 -0.0102  0.1352
  173fsi    NBT 1401   2.194   3.893   4.257  0.3362 -0.3020 -0.3339
  173fsi    OBT 1402   2.354   3.911   4.435  0.5873 -0.0366  0.5062
  173fsi    OBT 1403   2.360   3.704   4.305  0.4629 -0.4576 -0.5181
  173fsi    SBT 1404   2.109   3.830   4.140  0.6483 -0.2057 -0.0210
  173fsi    OBT 1405   2.164   3.713   4.074 -1.1585 -0.5712  0.1015
  173fsi    OBT 1406   2.061   3.935   4.052  0.5137 -0.7145 -0.1739
  173fsi    FSI 1407   1.977   3.766   4.203 -0.4573  0.3801 -0.0851
  174fsi    FSI 1408   3.836   3.976   3.022 -0.3399  0.2872 -0.0735
  174fsi    SBT 1409   3.681   3.993   2.979 -0.1542  0.7433  0.3244
  174fsi    NBT 1410   3.632   4.125   3.051 -0.7906 -0.3215  0.4165
  174fsi    OBT 1411   3.681   4.003   2.837 -0.1168 -0.3200  0.1004
  174fsi    OBT 1412   3.616   3.874   3.030  0.4247 -0.5224 -0.1828
  174fsi    SBT 1413   3.616   4.268   2.990 -0.4899  0.0170 -0.1282
  174fsi    OBT 1414   3.573   4.362   3.089  0.0973 -0.4366  0.5820
  174fsi    OBT 1415   3.551   4.271   2.862  0.1526  0.1960 -0.2366
  174fsi    FSI 1416   3.763   4.308   2.969 -0.0184  0.1622 -0.5792
  175fsi    FSI 1417   4.692   1.479   2.915  0.1265  0.3836 -0.2179
  175fsi    SBT 1418   4.582   1.373   2.884 -0.1692 -0.3378 -0.0054
  175fsi    NBT 1419   4.444   1.451   2.877 -0.0968  0.2329 -0.1272
  175fsi    OBT 1420   4.621   1.318   2.760 -0.1342  0.2001 -0.2204
  175fsi    OBT 1421   4.585   1.289   3.000  0.5888  0.3758  0.1145
  175fsi    SBT 1422   4.370   1.504   2.749 -0.0544 -0.3015  0.3929
  175fsi    OBT 1423   4.446   1.540   2.634 -0.4964 -0.0396  0.1538
  175fsi    OBT 1424   4.268   1.601   2.789 -0.1434 -0.0184  0.2224
  175fsi    FSI 1425   4.288   1.383   2.694  0.0851 -0.0393 -0.5237
  176fsi    FSI 1426   4.026   1.159   3.037 -0.0413 -0.6433  0.1662
  176fsi    SBT 1427   4.113   1.295   3.047 -0.0673  0.0005 -0.3474
  176fsi    NBT 1428   4.090   1.356   3.189  0.3179 -0.1620 -0.3263
  176fsi    OBT 1429   4.250   1.252   3.027  0.4890 -0.5753 -0.3371
  176fsi    OBT 1430   4.058   1.391   2.955  0.8774 -0.3116  0.1189
  176fsi    SBT 1431   4.180   1.346   3.321  0.7229  0.2098 -0.0611
  176fsi    OBT 1432   4.121   1.413   3.433 -0.0046 -0.5846  0.5318
  176fsi    OBT 1433   4.322   1.351   3.307  0.1840  0.1878  0.4657
  176fsi    FSI 1434   4.151   1.199   3.376 -0.1379  0.2862 -0.3616
  177fsi    FSI 1435   3.169   1.353   2.115  0.3883  0.3203  0.3746
  177fsi    SBT 1436   3.226   1.310   2.259 -0.4401 -0.1994  0.0145
  177fsi    NBT 1437   3.370   1.382   2.265 -0.4481  0.7477  0.1162
  177fsi    OBT 1438   3.130   1.356   2.357  0.2091  0.7710 -0.2285
  177fsi    OBT 1439   3.226   1.166   2.252  0.0610 -0.3254 -0.3951
  177fsi    SBT 1440   3.514   1.323   2.283 -0.1554  0.0898 -0.2266
  177fsi    OBT 1441   3.527   1.185   2.338 -0.0774 -0.4257  0.7092
  177fsi    OBT 1442   3.616   1.425   2.312 -0.0284  0.3905 -1.1187
  177fsi    FSI 1443   3.554   1.296   2.133 -0.1220  0.5716 -0.2056
  178fsi    FSI 1444   2.677   0.594   2.667  0.0935  0.0129  0.0865
  178fsi    SBT 1445   2.821   0.641   2.701  0.3958  0.1813  0.1040
  178fsi    NBT 1446   2.811   0.796   2.705  0.0295  0.0946  0.1569
  178fsi    OBT 1447   2.836   0.579   2.831 -0.8722 -0.0313 -0.2138
  178fsi    OBT 1448   2.909   0.594   2.602  0.1401 -0.1495  0.1451
  178fsi    SBT 1449   2.763   0.888   2.823  0.0371  0.1779  0.3062
  178fsi    OBT 1450   2.859   0.990   2.842  0.4552  0.8791 -0.0968
  178fsi    OBT 1451   2.699   0.825   2.934 -0.5438 -0.1802 -0.5706
  178fsi    FSI 1452   2.645   0.966   2.749 -0.1996  0.6630 -0.5057
  179fsi    FSI 1453   2.282   2.581   3.085 -0.1074 -0.1201  0.4824
  179fsi    SBT 1454   2.333   2.652   2.962  0.1243 -0.0669  0.1599
  179fsi    NBT 1455   2.286   2.796   2.995  0.3906  0.5121  0.4395
  179fsi    OBT 1456   2.476   2.650   2.968  0.7160  0.7055 -0.1543
  179fsi    OBT 1457   2.270   2.589   2.853  0.3942  0.4310 -0.3568
  179fsi    SBT 1458   2.140   2.855   2.979  0.6046 -0.0453 -0.2376
  179fsi    OBT 1459   2.035   2.774   2.924  0.0381 -0.0496 -0.2316
  179fsi    OBT 1460   2.149   2.991   2.934  0.1872  0.0809 -0.5826
  179fsi    FSI 1461   2.090   2.888   3.128  0.2880  0.6429 -0.6480
  180fsi    FSI 1462   2.159   4.465   2.105  0.1004  0.0826 -0.0893
  180fsi    SBT 1463   2.309   4.433   2.108  0.2031 -0.2921  0.0568
  180fsi    NBT 1464   2.317   4.287   2.048 -0.1948  0.1135 -0.1820
  180fsi    OBT 1465   2.362   4.532   2.016 -0.1448 -0.4189  0.3607
  180fsi    OBT 1466   2.357   4.448   2.245  0.4028 -0.6448  0.5218
  180fsi    SBT 1467   2.290   4.145   2.124  0.2615 -0.2128 -0.1855
  180fsi    OBT 1468   2.235   4.157   2.256 -0.3734  0.3489 -0.5978
  180fsi    OBT 1469   2.397   4.050   2.106 -0.0789  0.3977 -0.9914
  180fsi    FSI 1470   2.172   4.094   2.034 -0.7272 -0.2705 -0.2630
  181fsi    FSI 1471   3.752   1.201   3.178  0.3329 -0.0395  0.1453
  181fsi    SBT 1472   3.664   1.322   3.123  0.2606 -0.2567  0.0644
  181fsi    NBT 1473   3.608   1.383   3.254 -0.3519  0.1289 -0.0813
  181fsi    OBT 1474   3.755   1.411   3.062  0.0811  0.5875  0.4905
  181fsi    OBT 1475   3.561   1.266   3.043  0.2220 -0.1277 -0.2589
  181fsi    SBT 1476   3.652   1.514   3.322 -0.4500 -0.6007 -0.0095
  181fsi    OBT 1477   3.651   1.629   3.235 -0.5607  0.4036  0.6846
  181fsi    OBT 1478   3.766   1.495   3.407 -0.6560 -0.6414  0.0571
  181fsi    FSI 1479   3.541   1.550   3.425  0.3167 -0.1502  0.3434
  182fsi    FSI 1480   3.242   3.690   2.460  0.2588 -0.1611 -0.2384
  182fsi    SBT 1481   3.204   3.552   2.531  0.2342 -0.4048  0.4934
  182fsi    NBT 1482   3.093   3.589   2.643 -0.4509 -0.4171 -0.2885
  182fsi    OBT 1483   3.161   3.477   2.417  0.1567  0.3444 -0.5178
  182fsi    OBT 1484   3.328   3.518   2.596 -0.5361 -0.7353 -0.0962
  182fsi    SBT 1485   2.940   3.553   2.646  0.1708 -0.2576 -0.2481
  182fsi    OBT 1486   2.882   3.483   2.537  0.0634 -0.3218  0.4018
  182fsi    OBT 1487   2.870   3.668   2.700 -0.1992  0.1835  0.7005
  182fsi    FSI 1488   2.941   3.450   2.765  0.3016 -0.2859  0.1419
  183fsi    FSI 1489   2.765   2.256   4.300 -0.6347  0.6601  0.1515
  183fsi    SBT 1490   2.630   2.300   4.244  0.2344  0.3516 -0.4152
  183fsi    NBT 1491   2.551   2.164   4.244 -0.0149  0.6513  0.0843
  183fsi    OBT 1492   2.587   2.390   4.352  0.1627 -0.2504 -0.0242
  183fsi    OBT 1493   2.656   2.352   4.118 -0.7791 -0.2156  0.2663
  183fsi    SBT 1494   2.472   2.088   4.368  0.0317  0.0439 -0.2247
  183fsi    OBT 1495   2.510   2.150   4.495 -0.3898 -0.0090 -0.4766
  183fsi    OBT 1496   2.470   1.946   4.362  0.1268 -0.2265 -0.4314
  183fsi    FSI 1497   2.327   2.133   4.357 -0.3175  0.0398  0.5765
  184fsi    FSI 1498   3.357   3.377   3.719 -0.2053  0.1232 -0.0705
  184fsi    SBT 1499   3.212   3.329   3.675 -0.0138  0.6997  0.0148
  184fsi    NBT 1500   3.192   3.185   3.734 -0.9545  0.0842 -0.4015
  184fsi    OBT 1501   3.137   3.432   3.746  0.4564  0.1068 -0.1602
  184fsi    OBT 1502   3.211   3.337   3.530  0.6028  0.3754 -0.0556
  184fsi    SBT 1503   3.264   3.044   3.695  0.0870  0.2793 -0.2045
  184fsi    OBT 1504   3.345   2.995   3.803  0.4642  0.6200 -0.1735
  184fsi    OBT 1505   3.315   3.042   3.560 -0.1174 -0.1819 -0.1490
  184fsi    FSI 1506   3.142   2.945   3.700 -0.1323  0.0246  0.3277
  185fsi    FSI 1507   2.809   2.843   2.210  0.1924  0.1139  0.5565
  185fsi    SBT 1508   2.857   2.701   2.165 -0.5185  0.1371  0.4218
  185fsi    NBT 1509   2.803   2.601   2.267  0.1874  0.4512  0.0503
  185fsi    OBT 1510   2.792   2.688   2.037 -0.5900  0.5533 -0.1462
  185fsi    OBT 1511   2.999   2.713   2.155  0.4502 -0.2050 -0.7979
  185fsi    SBT 1512   2.882   2.523   2.383  0.2326  0.2644  0.5782
  185fsi    OBT 1513   3.024   2.509   2.358  1.0342  0.6174  0.2332
  185fsi    OBT 1514   2.805   2.409   2.433  0.1061 -0.0391  0.5497
  185fsi    FSI 1515   2.881   2.631   2.506 -0.1976  0.1001 -0.1741
  186fsi    FSI 1516   1.767   2.694   2.472 -0.5444 -0.1238 -0.5619
  186fsi    SBT 1517   1.922   2.712   2.532  0.2100 -0.1841 -0.2090
  186fsi    NBT 1518   1.905   2.819   2.646  0.3951  0.4338  0.3381
  186fsi    OBT 1519   1.955   2.577   2.577 -0.5284  0.4112  0.1681
  186fsi    OBT 1520   1.992   2.768   2.420  0.4851 -0.7156 -0.3931
  186fsi    SBT 1521   1.862   2.970   2.624 -0.2720  0.1650  0.0735
  186fsi    OBT 1522   1.831   3.014   2.486  0.1252 -0.1957 -0.1628
  186fsi    OBT 1523   1.957   3.043   2.709 -0.1331 -0.0845  0.1631
  186fsi    FSI 1524   1.722   2.978   2.702 -0.1355 -0.2013  0.2038
  187fsi    FSI 1525   2.469   4.079   3.418 -0.2336 -0.3109 -0.2296
  187fsi    SBT 1526   2.468   4.064   3.262  0.2525  0.2745  0.0744
  187fsi    NBT 1527   2.607   4.000   3.232  0.8838  0.0916 -0.2912
  187fsi    OBT 1528   2.359   3.976   3.241  0.3879  0.8830  0.1757
  187fsi    OBT 1529   2.448   4.197   3.207  0.1734 -0.7258  0.3703
  187fsi    SBT 1530   2.739   4.068   3.178 -0.6436  0.2716 -0.0025
  187fsi    OBT 1531   2.728   4.208   3.141 -0.6112  0.3537  0.8335
  187fsi    OBT 1532   2.812   3.984   3.092  0.3344 -0.3074  0.3166
  187fsi    FSI 1533   2.830   4.076   3.307 -0.1805 -0.5406 -0.1417
  188fsi    FSI 1534   3.359   3.146   1.970 -0.1755 -0.1072  0.1413
  188fsi    SBT 1535   3.329   3.303   1.962  0.5652  0.1212  0.2752
  188fsi    NBT 1536   3.203   3.319   2.051 -0.5950 -0.0737  0.4536
  188fsi    OBT 1537   3.445   3.363   2.020  0.4640  0.0699  0.4823
  188fsi    OBT 1538   3.311   3.328   1.824 -0.8907 -0.4604  0.1291
  188fsi    SBT 1539   3.055   3.275   2.031  0.0387 -0.2769  0.1735
  188fsi    OBT 1540   3.012   3.266   1.898 -0.4170 -0.2083 -0.1180
  188fsi    OBT 1541   2.975   3.344   2.129 -0.0268  0.1458  0.2435
  188fsi    FSI 1542   3.053   3.128   2.079 -0.1259  0.1318 -0.3934
  189fsi    FSI 1543   3.101   4.746   3.903 -0.3684  0.0935 -0.2296
  189fsi    SBT 1544   3.077   4.877   3.820 -0.1539  0.0077  0.0780
  189fsi    NBT 1545   3.131   4.996   3.913  0.8489 -0.5349  0.6882
  189fsi    OBT 1546   3.153   4.860   3.702 -0.2140 -0.9365  0.6129
  189fsi    OBT 1547   2.935   4.877   3.817 -0.0372  0.0031 -0.6703
  189fsi    SBT 1548   3.276   5.062   3.922  0.3045  0.0382  0.2182
  189fsi    OBT 1549   3.259   5.201   3.959 -0.1800 -0.3844  0.0402
  189fsi    OBT 1550   3.363   5.031   3.811 -0.1607 -1.0247  0.1422
  189fsi    FSI 1551   3.342   5.003   4.047  0.0481  0.0056  0.2652
  190fsi    FSI 1552   3.602   2.350   4.949  0.4542 -0.3947 -0.0645
  190fsi    SBT 1553   3.478   2.313   4.855  0.2865 -0.5650 -0.2289
  190fsi    NBT 1554   3.376   2.235   4.950 -0.8459  0.1529 -0.1018
  190fsi    OBT 1555   3.420   2.434   4.806 -0.2587 -0.0480  0.6401
  190fsi    OBT 1556   3.538   2.227   4.756 -0.0261  0.4728  0.1977
  190fsi    SBT 1557   3.357   2.084   4.996 -0.1703 -0.1329  0.1192
  190fsi    OBT 1558   3.445   1.992   4.932  0.2510 -0.8594 -0.1828
  190fsi    OBT 1559   3.220   2.042   5.004  0.3586  0.1070 -0.1661
  190fsi    FSI 1560   3.406   2.096   5.145 -0.5734  0.2565  0.1005
  191fsi    FSI 1561   2.764   2.652   4.852  0.5645  0.0148 -0.0383
  191fsi    SBT 1562   2.825   2.530   4.776 -0.4254 -0.2215 -0.2025
  191fsi    NBT 1563   2.837   2.425   4.891 -0.3047 -0.3753  0.2032
  191fsi    OBT 1564   2.722   2.490   4.684 -0.0062 -0.2888 -0.1756
  191fsi    OBT 1565   2.947   2.578   4.725 -0.1933  0.2425 -0.3421
  191fsi    SBT 1566   2.960   2.383   4.984 -0.1440 -0.2966  0.2644
  191fsi    OBT 1567   3.079   2.463   4.973 -0.4021  0.1649 -0.2900
  191fsi    OBT 1568   2.970   2.239   4.988 -0.1121 -0.1309 -0.2781
  191fsi    FSI 1569   2.909   2.419   5.127 -0.0713  0.1660 -0.1983
  192fsi    FSI 1570   3.685   4.866   3.336 -0.2033 -0.2448 -0.0119
  192fsi    SBT 1571   3.534   4.838   3.354 -0.0994  0.3518 -0.0796
  192fsi    NBT 1572   3.482   4.873   3.212  0.1827 -0.5308 -0.3417
  192fsi    OBT 1573   3.525   4.694   3.387 -0.0928 -0.2565 -0.2426
  192fsi    OBT 1574   3.486   4.929   3.451 -0.4592  0.2473 -0.3502
  192fsi    SBT 1575   3.488   4.798   3.074  0.1304 -0.2017  0.1862
  192fsi    OBT 1576   3.447   4.883   2.965 -0.0402  0.0413 -0.1084
  192fsi    OBT 1577   3.435   4.666   3.088 -0.5103  0.0561 -0.4905
  192fsi    FSI 1578   3.640   4.776   3.045 -0.1558 -0.0305  0.7245
  193fsi    FSI 1579   3.250   3.068   2.280  0.3924  0.0692  0.8313
  193fsi    SBT 1580   3.324   2.973   2.378  0.0179  0.1371  0.2440
  193fsi    NBT 1581   3.305   3.036   2.520  0.3525  0.4189  0.1022
  193fsi    OBT 1582   3.252   2.849   2.364 -0.3022  0.2808 -0.1461
  193fsi    OBT 1583   3.459   2.973   2.327 -0.1306 -0.7699  0.0536
  193fsi    SBT 1584   3.393   3.130   2.614  0.3338 -0.0870  0.2332
  193fsi    OBT 1585   3.510   3.065   2.652  0.5677  0.0628  0.3056
  193fsi    OBT 1586   3.317   3.203   2.714  0.2518 -0.0098 -0.3257
  193fsi    FSI 1587   3.445   3.242   2.514  0.1590 -0.1800  0.1528
  194fsi    FSI 1588   3.375   2.506   2.677  0.1495 -0.0012  0.7242
  194fsi    SBT 1589   3.432   2.567   2.546  0.2520 -0.3895 -0.2701
  194fsi    NBT 1590   3.500   2.705   2.582 -0.0294  0.3230 -0.0360
  194fsi    OBT 1591   3.531   2.475   2.503  0.7630  0.2111  0.2120
  194fsi    OBT 1592   3.320   2.585   2.455  0.4887  0.4534 -0.4328
  194fsi    SBT 1593   3.647   2.736   2.620  0.3226  0.1865  0.0354
  194fsi    OBT 1594   3.740   2.625   2.617  0.1891  0.3024 -0.4185
  194fsi    OBT 1595   3.652   2.824   2.733  0.3857  0.1365 -0.4513
  194fsi    FSI 1596   3.699   2.832   2.507  0.6537  0.4614 -0.2425
  195fsi    FSI 1597   2.830   4.893   3.496  0.4067  0.3164 -0.0762
  195fsi    SBT 1598   2.855   4.864   3.346 -0.4026 -0.4586  0.4328
  195fsi    NBT 1599   2.954   4.975   3.294 -0.6666 -1.2832 -0.3427
  195fsi    OBT 1600   2.912   4.732   3.338  0.1539 -0.2168 -0.0809
  195fsi    OBT 1601   2.725   4.881   3.291  0.4648 -0.4809  0.0540
  195fsi    SBT 1602   3.110   4.974   3.276 -0.1454  0.1198  0.2855
  195fsi    OBT 1603   3.149   4.906   3.154 -0.1279  0.1569  0.2959
  195fsi    OBT 1604   3.179   4.952   3.402 -0.4058 -0.3390 -0.3465
  195fsi    FSI 1605   3.146   5.120   3.242  0.6806 -0.4430  0.5908
  196fsi    FSI 1606   2.923   0.571   4.092  0.2645  0.6084  0.3160
  196fsi    SBT 1607   2.952   0.718   4.056 -0.1823  0.2294  0.1605
  196fsi    NBT 1608   3.062   0.716   3.946  0.4845  0.0832 -0.0900
  196fsi    OBT 1609   2.826   0.765   3.995  0.1599 -0.1274  0.6829
  196fsi    OBT 1610   2.995   0.774   4.180  0.1583 -0.0676 -0.0928
  196fsi    SBT 1611   3.217   0.732   3.965 -0.1000 -0.1614 -0.3035
  196fsi    OBT 1612   3.253   0.807   4.082 -0.1107  0.0975  0.0664
  196fsi    OBT 1613   3.292   0.756   3.842  0.0453  0.5642 -0.3635
  196fsi    FSI 1614   3.263   0.580   4.002  0.1870  0.0311  0.5911
  197fsi    FSI 1615   2.701   0.291   3.234  0.5217  0.2358 -0.6962
  197fsi    SBT 1616   2.765   0.273   3.090  0.0342 -0.2680 -0.1680
  197fsi    NBT 1617   2.639   0.228   3.005 -0.3161  0.2288  0.0823
  197fsi    OBT 1618   2.830   0.400   3.066 -0.1206  0.6505  0.4477
  197fsi    OBT 1619   2.849   0.154   3.112 -0.3918  0.0643  0.3835
  197fsi    SBT 1620   2.540   0.335   2.939  0.2883  0.2440 -0.5127
  197fsi    OBT 1621   2.525   0.297   2.805  0.8658  0.0423  0.2878
  197fsi    OBT 1622   2.554   0.471   2.974  0.1167  0.1572  0.0802
  197fsi    FSI 1623   2.406   0.297   2.998  0.6097 -0.8889 -0.6038
  198fsi    FSI 1624   2.636   3.101   2.357 -0.0683  0.0096  0.2057
  198fsi    SBT 1625   2.683   3.227   2.445  0.4293  0.2890  0.1404
  198fsi    NBT 1626   2.774   3.146   2.548  0.1901 -0.3552  0.3154
  198fsi    OBT 1627   2.749   3.315   2.356  0.4271 -0.0704 -0.3034
  198fsi    OBT 1628   2.562   3.276   2.504  0.5415  0.6915  0.0586
  198fsi    SBT 1629   2.928   3.108   2.539  0.0213  0.4782 -0.3515
  198fsi    OBT 1630   2.979   3.074   2.669  0.0624 -0.3584 -0.1392
  198fsi    OBT 1631   3.000   3.205   2.460  0.1030  0.5811  0.5459
  198fsi    FSI 1632   2.926   2.973   2.457 -0.4735  0.3941  0.3656
  199fsi    FSI 1633   3.668   2.258   4.082  0.1381 -0.0521  0.0889
  199fsi    SBT 1634   3.599   2.115   4.087 -0.4129 -0.0376  0.0451
  199fsi    NBT 1635   3.632   2.076   4.239  0.1340  0.2620 -0.1657
  199fsi    OBT 1636   3.463   2.139   4.047  0.3088  0.8006  0.0395
  199fsi    OBT 1637   3.679   2.048   3.992 -0.5270  0.3144  0.1277
  199fsi    SBT 1638   3.551   2.120   4.371  0.5536  0.0641 -0.2733
  199fsi    OBT 1639   3.565   2.025   4.479  0.4759  0.4678 -0.1844
  199fsi    OBT 1640   3.427   2.167   4.328  0.3551  0.4608 -0.1756
  199fsi    FSI 1641   3.629   2.247   4.427  0.2621 -0.2844  0.0881
  200fsi    FSI 1642   2.044   4.359   2.385  0.1622 -0.7361 -0.4516
  200fsi    SBT 1643   2.107   4.366   2.526  0.1113 -0.1732 -0.1768
  200fsi    NBT 1644   2.191   4.495   2.514 -0.2439  0.0118  0.1673
  200fsi    OBT 1645   1.999   4.377   2.621 -0.6002 -0.0049  0.1738
  200fsi    OBT 1646   2.193   4.253   2.534  0.2081 -0.5307  0.3877
  200fsi    SBT 1647   2.168   4.643   2.565  0.0008 -0.1814 -0.4331
  200fsi    OBT 1648   2.294   4.706   2.568 -0.5279 -0.2798  0.1589
  200fsi    OBT 1649   2.090   4.665   2.682  1.1971  0.8867 -0.4536
  200fsi    FSI 1650   2.083   4.704   2.449  0.5253 -0.0642 -0.5674
   5.96390   5.96390   5.96390
