created by fftool
 2300
    1Li      Li    1   0.469   1.940   0.578
    2Li      Li    2   0.567   1.097   1.073
    3Li      Li    3   1.274   1.978   2.595
    4Li      Li    4   0.150   1.821   1.286
    5Li      Li    5   1.963   2.020   0.897
    6Li      Li    6   2.531   2.324   2.284
    7Li      Li    7   1.620   2.435   2.936
    8Li      Li    8   2.069   1.586   1.220
    9Li      Li    9   1.919   1.083   0.393
   10Li      Li   10   0.705   1.672   1.162
   11Li      Li   11   2.150   0.353   1.698
   12Li      Li   12   0.337   1.033   1.015
   13Li      Li   13   1.259   2.935   1.599
   14Li      Li   14   1.544   2.694   0.548
   15Li      Li   15   1.785   2.936   2.564
   16Li      Li   16   1.891   0.266   0.293
   17Li      Li   17   0.674   2.375   1.905
   18Li      Li   18   2.075   0.590   2.914
   19Li      Li   19   2.170   0.308   2.443
   20Li      Li   20   0.722   2.271   0.786
   21Li      Li   21   0.234   1.480   0.660
   22Li      Li   22   1.789   2.102   1.854
   23Li      Li   23   0.583   2.577   0.716
   24Li      Li   24   1.176   1.855   1.304
   25Li      Li   25   1.099   0.974   0.514
   26Li      Li   26   2.638   2.531   0.830
   27Li      Li   27   0.799   2.590   1.775
   28Li      Li   28   0.672   2.490   0.473
   29Li      Li   29   1.603   2.092   2.855
   30Li      Li   30   1.518   1.816   0.152
   31Li      Li   31   0.791   0.800   0.150
   32Li      Li   32   2.090   2.515   2.936
   33Li      Li   33   0.482   2.897   2.864
   34Li      Li   34   1.027   2.936   1.786
   35Li      Li   35   1.712   1.336   1.595
   36Li      Li   36   1.343   1.622   2.068
   37Li      Li   37   2.648   1.924   0.783
   38Li      Li   38   2.288   0.333   0.958
   39Li      Li   39   1.195   2.616   2.404
   40Li      Li   40   0.386   2.907   2.101
   41Li      Li   41   1.790   1.795   1.043
   42Li      Li   42   2.084   2.595   2.469
   43Li      Li   43   0.389   2.735   0.635
   44Li      Li   44   1.626   2.222   2.678
   45Li      Li   45   2.476   1.787   2.033
   46Li      Li   46   2.905   1.633   0.824
   47Li      Li   47   1.137   2.246   1.868
   48Li      Li   48   0.276   1.958   0.358
   49Li      Li   49   1.083   1.988   2.430
   50Li      Li   50   2.450   0.930   2.537
   51c3c      N   51   0.294   1.558   2.234
   51c3c     C1   52   0.209   1.678   2.247
   51c3c     C2   53   0.435   1.597   2.236
   51c3c     C3   54   0.299   1.802   2.259
   51c3c     C4   55   0.446   1.749   2.252
   51c3c     C5   56   0.266   1.466   2.345
   51c3c     C6   57   0.263   1.491   2.106
   51c3c     H1   58   0.147   1.669   2.336
   51c3c     H2   59   0.146   1.688   2.159
   51c3c     H3   60   0.485   1.548   2.320
   51c3c     H4   61   0.483   1.567   2.143
   51c3c     H5   62   0.280   1.853   2.354
   51c3c     H6   63   0.278   1.872   2.178
   51c3c     H7   64   0.501   1.774   2.343
   51c3c     H8   65   0.499   1.793   2.167
   51c3c     H9   66   0.161   1.437   2.343
   51c3c    H10   67   0.328   1.377   2.335
   51c3c    H11   68   0.288   1.515   2.440
   51c3c    H12   69   0.326   1.402   2.096
   51c3c    H13   70   0.158   1.462   2.104
   51c3c     C7   71   0.292   1.587   1.990
   51c3c    H14   72   0.397   1.615   1.992
   51c3c    H15   73   0.230   1.676   2.000
   51c3c     C8   74   0.261   1.517   1.858
   51c3c    H16   75   0.155   1.488   1.856
   51c3c    H17   76   0.323   1.428   1.848
   51c3c    H18   77   0.281   1.585   1.775
   52c3c      N   78   0.884   0.941   1.409
   52c3c     C1   79   1.018   0.952   1.350
   52c3c     C2   80   0.787   0.907   1.304
   52c3c     C3   81   1.011   0.924   1.200
   52c3c     C4   82   0.859   0.894   1.169
   52c3c     C5   83   0.884   0.836   1.512
   52c3c     C6   84   0.846   1.070   1.469
   52c3c     H1   85   1.084   0.880   1.397
   52c3c     H2   86   1.057   1.053   1.366
   52c3c     H3   87   0.739   0.812   1.328
   52c3c     H4   88   0.711   0.985   1.297
   52c3c     H5   89   1.073   0.838   1.174
   52c3c     H6   90   1.046   1.010   1.143
   52c3c     H7   91   0.847   0.794   1.128
   52c3c     H8   92   0.820   0.966   1.097
   52c3c     H9   93   0.955   0.862   1.590
   52c3c    H10   94   0.784   0.829   1.555
   52c3c    H11   95   0.911   0.741   1.467
   52c3c    H12   96   0.747   1.062   1.513
   52c3c    H13   97   0.918   1.096   1.547
   52c3c     C7   98   0.847   1.179   1.362
   52c3c    H14   99   0.775   1.154   1.284
   52c3c    H15  100   0.946   1.187   1.319
   52c3c     C8  101   0.808   1.313   1.426
   52c3c    H16  102   0.880   1.338   1.504
   52c3c    H17  103   0.708   1.305   1.469
   52c3c    H18  104   0.808   1.391   1.349
   53c3c      N  105   2.463   1.251   0.456
   53c3c     C1  106   2.454   1.105   0.437
   53c3c     C2  107   2.539   1.311   0.346
   53c3c     C3  108   2.528   1.067   0.308
   53c3c     C4  109   2.584   1.201   0.249
   53c3c     C5  110   2.327   1.308   0.459
   53c3c     C6  111   2.530   1.279   0.584
   53c3c     H1  112   2.349   1.076   0.428
   53c3c     H2  113   2.500   1.054   0.521
   53c3c     H3  114   2.477   1.383   0.294
   53c3c     H4  115   2.627   1.361   0.387
   53c3c     H5  116   2.460   1.019   0.238
   53c3c     H6  117   2.609   0.997   0.330
   53c3c     H7  118   2.543   1.220   0.150
   53c3c     H8  119   2.692   1.198   0.242
   53c3c     H9  120   2.270   1.263   0.540
   53c3c    H10  121   2.333   1.416   0.473
   53c3c    H11  122   2.277   1.287   0.364
   53c3c    H12  123   2.536   1.387   0.599
   53c3c    H13  124   2.473   1.234   0.666
   53c3c     C7  125   2.671   1.219   0.582
   53c3c    H14  126   2.728   1.264   0.500
   53c3c    H15  127   2.664   1.112   0.567
   53c3c     C8  128   2.741   1.249   0.715
   53c3c    H16  129   2.684   1.204   0.796
   53c3c    H17  130   2.747   1.357   0.729
   53c3c    H18  131   2.841   1.207   0.713
   54c3c      N  132   0.879   0.394   1.397
   54c3c     C1  133   0.859   0.449   1.531
   54c3c     C2  134   0.798   0.272   1.381
   54c3c     C3  135   0.762   0.361   1.609
   54c3c     C4  136   0.721   0.245   1.511
   54c3c     C5  137   0.837   0.493   1.296
   54c3c     C6  138   1.021   0.361   1.377
   54c3c     H1  139   0.819   0.550   1.524
   54c3c     H2  140   0.955   0.452   1.584
   54c3c     H3  141   0.727   0.285   1.300
   54c3c     H4  142   0.863   0.187   1.359
   54c3c     H5  143   0.674   0.418   1.640
   54c3c     H6  144   0.809   0.321   1.699
   54c3c     H7  145   0.614   0.245   1.493
   54c3c     H8  146   0.749   0.148   1.552
   54c3c     H9  147   0.897   0.583   1.308
   54c3c    H10  148   0.852   0.452   1.196
   54c3c    H11  149   0.732   0.517   1.311
   54c3c    H12  150   1.035   0.320   1.277
   54c3c    H13  151   1.081   0.451   1.388
   54c3c     C7  152   1.064   0.257   1.481
   54c3c    H14  153   1.004   0.167   1.470
   54c3c    H15  154   1.050   0.298   1.581
   54c3c     C8  155   1.212   0.223   1.461
   54c3c    H16  156   1.272   0.313   1.472
   54c3c    H17  157   1.226   0.182   1.361
   54c3c    H18  158   1.243   0.150   1.535
   55c3c      N  159   2.639   0.947   2.073
   55c3c     C1  160   2.572   0.943   1.943
   55c3c     C2  161   2.555   1.018   2.170
   55c3c     C3  162   2.437   1.015   1.953
   55c3c     C4  163   2.426   1.064   2.102
   55c3c     C5  164   2.663   0.810   2.120
   55c3c     C6  165   2.768   1.017   2.060
   55c3c     H1  166   2.556   0.840   1.913
   55c3c     H2  167   2.634   0.993   1.868
   55c3c     H3  168   2.530   0.951   2.253
   55c3c     H4  169   2.608   1.105   2.208
   55c3c     H5  170   2.356   0.947   1.928
   55c3c     H6  171   2.433   1.099   1.884
   55c3c     H7  172   2.339   1.020   2.150
   55c3c     H8  173   2.416   1.172   2.106
   55c3c     H9  174   2.726   0.757   2.049
   55c3c    H10  175   2.713   0.812   2.217
   55c3c    H11  176   2.568   0.758   2.130
   55c3c    H12  177   2.818   1.020   2.157
   55c3c    H13  178   2.831   0.964   1.988
   55c3c     C7  179   2.744   1.160   2.011
   55c3c    H14  180   2.681   1.213   2.083
   55c3c    H15  181   2.694   1.157   1.915
   55c3c     C8  182   2.878   1.232   1.998
   55c3c    H16  183   2.941   1.180   1.926
   55c3c    H17  184   2.928   1.235   2.095
   55c3c    H18  185   2.861   1.334   1.963
   56c3c      N  186   1.965   1.743   0.356
   56c3c     C1  187   2.047   1.753   0.234
   56c3c     C2  188   2.026   1.648   0.449
   56c3c     C3  189   2.168   1.660   0.247
   56c3c     C4  190   2.154   1.591   0.388
   56c3c     C5  191   1.957   1.876   0.420
   56c3c     C6  192   1.830   1.698   0.321
   56c3c     H1  193   2.081   1.855   0.221
   56c3c     H2  194   1.987   1.723   0.148
   56c3c     H3  195   2.050   1.699   0.543
   56c3c     H4  196   1.956   1.567   0.470
   56c3c     H5  197   2.260   1.716   0.240
   56c3c     H6  198   2.167   1.585   0.168
   56c3c     H7  199   2.240   1.614   0.450
   56c3c     H8  200   2.147   1.483   0.378
   56c3c     H9  201   1.911   1.947   0.350
   56c3c    H10  202   1.896   1.869   0.510
   56c3c    H11  203   2.057   1.910   0.446
   56c3c    H12  204   1.769   1.691   0.411
   56c3c    H13  205   1.784   1.768   0.252
   56c3c     C7  206   1.838   1.560   0.255
   56c3c    H14  207   1.883   1.489   0.324
   56c3c    H15  208   1.899   1.566   0.165
   56c3c     C8  209   1.697   1.512   0.218
   56c3c    H16  210   1.652   1.583   0.149
   56c3c    H17  211   1.637   1.505   0.308
   56c3c    H18  212   1.703   1.414   0.171
   57c3c      N  213   1.333   0.759   2.735
   57c3c     C1  214   1.316   0.614   2.758
   57c3c     C2  215   1.201   0.824   2.736
   57c3c     C3  216   1.168   0.583   2.776
   57c3c     C4  217   1.092   0.720   2.761
   57c3c     C5  218   1.417   0.816   2.841
   57c3c     C6  219   1.397   0.780   2.604
   57c3c     H1  220   1.370   0.586   2.848
   57c3c     H2  221   1.355   0.559   2.673
   57c3c     H3  222   1.199   0.899   2.815
   57c3c     H4  223   1.184   0.873   2.640
   57c3c     H5  224   1.149   0.538   2.874
   57c3c     H6  225   1.134   0.512   2.700
   57c3c     H7  226   1.037   0.743   2.852
   57c3c     H8  227   1.022   0.717   2.678
   57c3c     H9  228   1.515   0.768   2.839
   57c3c    H10  229   1.430   0.923   2.823
   57c3c    H11  230   1.370   0.800   2.937
   57c3c    H12  231   1.409   0.887   2.587
   57c3c    H13  232   1.494   0.732   2.603
   57c3c     C7  233   1.309   0.721   2.494
   57c3c    H14  234   1.212   0.769   2.495
   57c3c    H15  235   1.297   0.614   2.511
   57c3c     C8  236   1.375   0.743   2.358
   57c3c    H16  237   1.473   0.695   2.357
   57c3c    H17  238   1.388   0.850   2.341
   57c3c    H18  239   1.313   0.701   2.279
   58c3c      N  240   0.358   1.129   2.723
   58c3c     C1  241   0.442   1.009   2.706
   58c3c     C2  242   0.235   1.093   2.796
   58c3c     C3  243   0.372   0.889   2.770
   58c3c     C4  244   0.237   0.944   2.829
   58c3c     C5  245   0.432   1.230   2.799
   58c3c     C6  246   0.323   1.183   2.591
   58c3c     H1  247   0.538   1.025   2.754
   58c3c     H2  248   0.457   0.989   2.600
   58c3c     H3  249   0.230   1.151   2.888
   58c3c     H4  250   0.148   1.115   2.734
   58c3c     H5  251   0.434   0.846   2.849
   58c3c     H6  252   0.353   0.811   2.696
   58c3c     H7  253   0.232   0.928   2.937
   58c3c     H8  254   0.152   0.893   2.784
   58c3c     H9  255   0.523   1.257   2.745
   58c3c    H10  256   0.370   1.319   2.811
   58c3c    H11  257   0.458   1.190   2.897
   58c3c    H12  258   0.261   1.271   2.603
   58c3c    H13  259   0.414   1.209   2.537
   58c3c     C7  260   0.245   1.077   2.512
   58c3c    H14  261   0.154   1.051   2.566
   58c3c    H15  262   0.307   0.988   2.499
   58c3c     C8  263   0.208   1.133   2.374
   58c3c    H16  264   0.299   1.160   2.320
   58c3c    H17  265   0.146   1.222   2.387
   58c3c    H18  266   0.153   1.058   2.318
   59c3c      N  267   1.947   0.317   1.344
   59c3c     C1  268   1.863   0.435   1.319
   59c3c     C2  269   2.081   0.361   1.386
   59c3c     C3  270   1.943   0.562   1.345
   59c3c     C4  271   2.086   0.514   1.389
   59c3c     C5  272   1.887   0.235   1.451
   59c3c     C6  273   1.959   0.237   1.221
   59c3c     H1  274   1.776   0.432   1.385
   59c3c     H2  275   1.829   0.433   1.215
   59c3c     H3  276   2.103   0.322   1.486
   59c3c     H4  277   2.156   0.324   1.316
   59c3c     H5  278   1.896   0.622   1.423
   59c3c     H6  279   1.949   0.623   1.255
   59c3c     H7  280   2.110   0.550   1.489
   59c3c     H8  281   2.162   0.551   1.320
   59c3c     H9  282   1.788   0.202   1.420
   59c3c    H10  283   1.950   0.148   1.469
   59c3c    H11  284   1.879   0.294   1.542
   59c3c    H12  285   2.021   0.150   1.240
   59c3c    H13  286   1.859   0.204   1.190
   59c3c     C7  287   2.021   0.322   1.111
   59c3c    H14  288   2.120   0.355   1.142
   59c3c    H15  289   1.959   0.409   1.092
   59c3c     C8  290   2.033   0.239   0.983
   59c3c    H16  291   1.934   0.206   0.952
   59c3c    H17  292   2.095   0.152   1.002
   59c3c    H18  293   2.077   0.299   0.904
   60c3c      N  294   0.823   2.187   2.736
   60c3c     C1  295   0.965   2.148   2.736
   60c3c     C2  296   0.738   2.067   2.731
   60c3c     C3  297   0.975   1.995   2.730
   60c3c     C4  298   0.826   1.943   2.727
   60c3c     C5  299   0.794   2.263   2.859
   60c3c     C6  300   0.796   2.272   2.619
   60c3c     H1  301   1.013   2.184   2.826
   60c3c     H2  302   1.014   2.190   2.649
   60c3c     H3  303   0.674   2.064   2.819
   60c3c     H4  304   0.676   2.070   2.642
   60c3c     H5  305   1.027   1.957   2.818
   60c3c     H6  306   1.029   1.963   2.642
   60c3c     H7  307   0.806   1.879   2.813
   60c3c     H8  308   0.808   1.885   2.637
   60c3c     H9  309   0.857   2.352   2.862
   60c3c    H10  310   0.689   2.293   2.859
   60c3c    H11  311   0.814   2.201   2.946
   60c3c    H12  312   0.691   2.301   2.619
   60c3c    H13  313   0.859   2.361   2.622
   60c3c     C7  314   0.826   2.193   2.491
   60c3c    H14  315   0.763   2.104   2.487
   60c3c    H15  316   0.931   2.163   2.491
   60c3c     C8  317   0.798   2.280   2.369
   60c3c    H16  318   0.861   2.369   2.373
   60c3c    H17  319   0.693   2.310   2.369
   60c3c    H18  320   0.819   2.224   2.278
   61c3c      N  321   1.879   1.704   1.596
   61c3c     C1  322   1.991   1.799   1.601
   61c3c     C2  323   1.774   1.756   1.507
   61c3c     C3  324   1.959   1.920   1.512
   61c3c     C4  325   1.817   1.891   1.451
   61c3c     C5  326   1.927   1.575   1.544
   61c3c     C6  327   1.824   1.685   1.731
   61c3c     H1  328   2.082   1.751   1.565
   61c3c     H2  329   2.006   1.833   1.704
   61c3c     H3  330   1.758   1.686   1.425
   61c3c     H4  331   1.681   1.768   1.564
   61c3c     H5  332   2.034   1.931   1.434
   61c3c     H6  333   1.958   2.012   1.571
   61c3c     H7  334   1.822   1.888   1.342
   61c3c     H8  335   1.746   1.969   1.479
   61c3c     H9  336   2.005   1.536   1.610
   61c3c    H10  337   1.844   1.504   1.540
   61c3c    H11  338   1.968   1.588   1.444
   61c3c    H12  339   1.742   1.614   1.727
   61c3c    H13  340   1.902   1.646   1.797
   61c3c     C7  341   1.774   1.819   1.785
   61c3c    H14  342   1.696   1.858   1.719
   61c3c    H15  343   1.857   1.890   1.789
   61c3c     C8  344   1.717   1.800   1.925
   61c3c    H16  345   1.795   1.761   1.991
   61c3c    H17  346   1.634   1.729   1.921
   61c3c    H18  347   1.681   1.895   1.964
   62c3c      N  348   1.276   2.392   0.552
   62c3c     C1  349   1.139   2.363   0.507
   62c3c     C2  350   1.346   2.467   0.447
   62c3c     C3  351   1.117   2.421   0.368
   62c3c     C4  352   1.253   2.489   0.328
   62c3c     C5  353   1.272   2.472   0.675
   62c3c     C6  354   1.347   2.266   0.578
   62c3c     H1  355   1.068   2.408   0.577
   62c3c     H2  356   1.124   2.255   0.505
   62c3c     H3  357   1.378   2.564   0.486
   62c3c     H4  358   1.434   2.411   0.414
   62c3c     H5  359   1.036   2.493   0.368
   62c3c     H6  360   1.091   2.342   0.297
   62c3c     H7  361   1.238   2.595   0.309
   62c3c     H8  362   1.294   2.444   0.237
   62c3c     H9  363   1.220   2.417   0.753
   62c3c    H10  364   1.373   2.494   0.707
   62c3c    H11  365   1.219   2.566   0.656
   62c3c    H12  366   1.449   2.288   0.610
   62c3c    H13  367   1.295   2.210   0.655
   62c3c     C7  368   1.352   2.182   0.450
   62c3c    H14  369   1.404   2.238   0.372
   62c3c    H15  370   1.250   2.161   0.417
   62c3c     C8  371   1.426   2.052   0.477
   62c3c    H16  372   1.374   1.996   0.554
   62c3c    H17  373   1.527   2.073   0.509
   62c3c    H18  374   1.429   1.992   0.385
   63c3c      N  375   0.306   2.331   0.720
   63c3c     C1  376   0.227   2.209   0.698
   63c3c     C2  377   0.447   2.305   0.687
   63c3c     C3  378   0.319   2.097   0.650
   63c3c     C4  379   0.463   2.160   0.642
   63c3c     C5  380   0.255   2.438   0.633
   63c3c     C6  381   0.295   2.373   0.860
   63c3c     H1  382   0.150   2.228   0.623
   63c3c     H2  383   0.180   2.179   0.792
   63c3c     H3  384   0.479   2.372   0.607
   63c3c     H4  385   0.508   2.323   0.775
   63c3c     H5  386   0.287   2.061   0.552
   63c3c     H6  387   0.317   2.013   0.719
   63c3c     H7  388   0.502   2.155   0.541
   63c3c     H8  389   0.531   2.106   0.708
   63c3c     H9  390   0.150   2.458   0.657
   63c3c    H10  391   0.313   2.529   0.649
   63c3c    H11  392   0.263   2.408   0.529
   63c3c    H12  393   0.353   2.463   0.876
   63c3c    H13  394   0.190   2.392   0.885
   63c3c     C7  395   0.348   2.261   0.951
   63c3c    H14  396   0.452   2.242   0.927
   63c3c    H15  397   0.289   2.171   0.935
   63c3c     C8  398   0.336   2.305   1.097
   63c3c    H16  399   0.232   2.324   1.121
   63c3c    H17  400   0.395   2.395   1.113
   63c3c    H18  401   0.374   2.225   1.161
   64c3c      N  402   1.312   1.604   0.999
   64c3c     C1  403   1.322   1.681   1.124
   64c3c     C2  404   1.353   1.689   0.886
   64c3c     C3  405   1.370   1.823   1.093
   64c3c     C4  406   1.391   1.828   0.937
   64c3c     C5  407   1.401   1.487   1.007
   64c3c     C6  408   1.173   1.559   0.979
   64c3c     H1  409   1.392   1.633   1.192
   64c3c     H2  410   1.223   1.686   1.171
   64c3c     H3  411   1.439   1.644   0.836
   64c3c     H4  412   1.270   1.697   0.815
   64c3c     H5  413   1.464   1.843   1.145
   64c3c     H6  414   1.297   1.897   1.125
   64c3c     H7  415   1.495   1.851   0.913
   64c3c     H8  416   1.328   1.904   0.892
   64c3c     H9  417   1.371   1.424   1.091
   64c3c    H10  418   1.394   1.430   0.914
   64c3c    H11  419   1.504   1.520   1.022
   64c3c    H12  420   1.167   1.502   0.887
   64c3c    H13  421   1.143   1.497   1.063
   64c3c     C7  422   1.081   1.681   0.971
   64c3c    H14  423   1.112   1.744   0.887
   64c3c    H15  424   1.088   1.738   1.063
   64c3c     C8  425   0.937   1.635   0.950
   64c3c    H16  426   0.907   1.572   1.034
   64c3c    H17  427   0.930   1.577   0.858
   64c3c    H18  428   0.871   1.721   0.944
   65c3c      N  429   0.289   2.293   2.537
   65c3c     C1  430   0.433   2.321   2.552
   65c3c     C2  431   0.212   2.405   2.594
   65c3c     C3  432   0.452   2.456   2.621
   65c3c     C4  433   0.307   2.511   2.649
   65c3c     C5  434   0.256   2.279   2.394
   65c3c     C6  435   0.256   2.169   2.608
   65c3c     H1  436   0.480   2.324   2.453
   65c3c     H2  437   0.479   2.243   2.612
   65c3c     H3  438   0.149   2.448   2.516
   65c3c     H4  439   0.148   2.367   2.675
   65c3c     H5  440   0.507   2.525   2.557
   65c3c     H6  441   0.507   2.444   2.714
   65c3c     H7  442   0.291   2.606   2.598
   65c3c     H8  443   0.291   2.526   2.755
   65c3c     H9  444   0.314   2.196   2.352
   65c3c    H10  445   0.150   2.258   2.384
   65c3c    H11  446   0.281   2.371   2.342
   65c3c    H12  447   0.149   2.148   2.597
   65c3c    H13  448   0.313   2.086   2.566
   65c3c     C7  449   0.290   2.184   2.757
   65c3c    H14  450   0.232   2.267   2.799
   65c3c    H15  451   0.396   2.205   2.767
   65c3c     C8  452   0.255   2.055   2.830
   65c3c    H16  453   0.312   1.972   2.788
   65c3c    H17  454   0.148   2.034   2.819
   65c3c    H18  455   0.279   2.066   2.936
   66c3c      N  456   1.342   1.354   2.750
   66c3c     C1  457   1.275   1.318   2.876
   66c3c     C2  458   1.277   1.284   2.638
   66c3c     C3  459   1.161   1.220   2.847
   66c3c     C4  460   1.163   1.198   2.691
   66c3c     C5  461   1.332   1.500   2.729
   66c3c     C6  462   1.484   1.315   2.757
   66c3c     H1  463   1.235   1.408   2.923
   66c3c     H2  464   1.347   1.271   2.943
   66c3c     H3  465   1.238   1.357   2.567
   66c3c     H4  466   1.350   1.221   2.588
   66c3c     H5  467   1.066   1.262   2.879
   66c3c     H6  468   1.177   1.126   2.899
   66c3c     H7  469   1.068   1.229   2.647
   66c3c     H8  470   1.179   1.093   2.667
   66c3c     H9  471   1.380   1.552   2.812
   66c3c    H10  472   1.382   1.526   2.636
   66c3c    H11  473   1.227   1.529   2.724
   66c3c    H12  474   1.533   1.342   2.663
   66c3c    H13  475   1.532   1.367   2.839
   66c3c     C7  476   1.494   1.164   2.778
   66c3c    H14  477   1.446   1.112   2.695
   66c3c    H15  478   1.444   1.137   2.871
   66c3c     C8  479   1.641   1.124   2.785
   66c3c    H16  480   1.689   1.176   2.868
   66c3c    H17  481   1.691   1.151   2.692
   66c3c    H18  482   1.649   1.016   2.800
   67c3c      N  483   0.821   1.192   2.381
   67c3c     C1  484   0.683   1.243   2.390
   67c3c     C2  485   0.828   1.087   2.278
   67c3c     C3  486   0.595   1.169   2.290
   67c3c     C4  487   0.689   1.067   2.216
   67c3c     C5  488   0.911   1.302   2.344
   67c3c     C6  489   0.862   1.136   2.510
   67c3c     H1  490   0.682   1.349   2.368
   67c3c     H2  491   0.645   1.226   2.491
   67c3c     H3  492   0.898   1.117   2.200
   67c3c     H4  493   0.862   0.994   2.323
   67c3c     H5  494   0.550   1.239   2.219
   67c3c     H6  495   0.514   1.116   2.341
   67c3c     H7  496   0.692   1.087   2.109
   67c3c     H8  497   0.655   0.965   2.231
   67c3c     H9  498   0.906   1.380   2.421
   67c3c    H10  499   1.013   1.265   2.337
   67c3c    H11  500   0.881   1.344   2.248
   67c3c    H12  501   0.964   1.099   2.503
   67c3c    H13  502   0.857   1.214   2.587
   67c3c     C7  503   0.768   1.021   2.548
   67c3c    H14  504   0.773   0.943   2.472
   67c3c    H15  505   0.666   1.059   2.555
   67c3c     C8  506   0.811   0.963   2.683
   67c3c    H16  507   0.805   1.040   2.759
   67c3c    H17  508   0.913   0.925   2.676
   67c3c    H18  509   0.744   0.881   2.710
   68c3c      N  510   2.227   2.255   1.908
   68c3c     C1  511   2.322   2.161   1.846
   68c3c     C2  512   2.103   2.184   1.942
   68c3c     C3  513   2.258   2.023   1.837
   68c3c     C4  514   2.115   2.038   1.900
   68c3c     C5  515   2.287   2.310   2.031
   68c3c     C6  516   2.198   2.365   1.815
   68c3c     H1  517   2.413   2.156   1.906
   68c3c     H2  518   2.347   2.196   1.746
   68c3c     H3  519   2.085   2.190   2.049
   68c3c     H4  520   2.020   2.230   1.889
   68c3c     H5  521   2.317   1.950   1.893
   68c3c     H6  522   2.252   1.990   1.734
   68c3c     H7  523   2.103   1.972   1.986
   68c3c     H8  524   2.038   2.012   1.827
   68c3c     H9  525   2.379   2.363   2.007
   68c3c    H10  526   2.217   2.380   2.078
   68c3c    H11  527   2.309   2.229   2.101
   68c3c    H12  528   2.128   2.434   1.861
   68c3c    H13  529   2.290   2.417   1.790
   68c3c     C7  530   2.136   2.307   1.687
   68c3c    H14  531   2.044   2.255   1.712
   68c3c    H15  532   2.206   2.238   1.641
   68c3c     C8  533   2.106   2.421   1.590
   68c3c    H16  534   2.198   2.474   1.565
   68c3c    H17  535   2.036   2.491   1.636
   68c3c    H18  536   2.062   2.381   1.499
   69c3c      N  537   0.755   2.751   2.231
   69c3c     C1  538   0.869   2.842   2.246
   69c3c     C2  539   0.803   2.614   2.209
   69c3c     C3  540   0.999   2.763   2.234
   69c3c     C4  541   0.956   2.614   2.210
   69c3c     C5  542   0.672   2.755   2.353
   69c3c     C6  543   0.674   2.794   2.115
   69c3c     H1  544   0.865   2.890   2.344
   69c3c     H2  545   0.866   2.919   2.168
   69c3c     H3  546   0.766   2.549   2.288
   69c3c     H4  547   0.767   2.578   2.113
   69c3c     H5  548   1.059   2.772   2.325
   69c3c     H6  549   1.060   2.800   2.151
   69c3c     H7  550   0.994   2.549   2.289
   69c3c     H8  551   0.995   2.577   2.115
   69c3c     H9  552   0.636   2.857   2.369
   69c3c    H10  553   0.587   2.688   2.341
   69c3c    H11  554   0.732   2.724   2.438
   69c3c    H12  555   0.589   2.726   2.104
   69c3c    H13  556   0.638   2.895   2.132
   69c3c     C7  557   0.759   2.790   1.989
   69c3c    H14  558   0.795   2.688   1.973
   69c3c    H15  559   0.844   2.857   2.000
   69c3c     C8  560   0.675   2.833   1.869
   69c3c    H16  561   0.639   2.935   1.885
   69c3c    H17  562   0.590   2.766   1.858
   69c3c    H18  563   0.736   2.830   1.779
   70c3c      N  564   0.517   0.431   2.738
   70c3c     C1  565   0.580   0.335   2.645
   70c3c     C2  566   0.568   0.408   2.874
   70c3c     C3  567   0.678   0.246   2.722
   70c3c     C4  568   0.670   0.294   2.872
   70c3c     C5  569   0.548   0.568   2.695
   70c3c     C6  570   0.371   0.411   2.737
   70c3c     H1  571   0.635   0.390   2.568
   70c3c     H2  572   0.504   0.273   2.599
   70c3c     H3  573   0.617   0.499   2.910
   70c3c     H4  574   0.486   0.383   2.940
   70c3c     H5  575   0.779   0.257   2.684
   70c3c     H6  576   0.649   0.141   2.714
   70c3c     H7  577   0.767   0.329   2.907
   70c3c     H8  578   0.638   0.213   2.937
   70c3c     H9  579   0.510   0.585   2.595
   70c3c    H10  580   0.501   0.639   2.764
   70c3c    H11  581   0.656   0.583   2.696
   70c3c    H12  582   0.324   0.481   2.805
   70c3c    H13  583   0.333   0.427   2.636
   70c3c     C7  584   0.339   0.268   2.781
   70c3c    H14  585   0.377   0.251   2.882
   70c3c    H15  586   0.386   0.197   2.712
   70c3c     C8  587   0.188   0.247   2.780
   70c3c    H16  588   0.149   0.263   2.679
   70c3c    H17  589   0.141   0.318   2.848
   70c3c    H18  590   0.164   0.145   2.811
   71c3c      N  591   1.707   0.824   1.999
   71c3c     C1  592   1.813   0.914   1.953
   71c3c     C2  593   1.765   0.695   2.039
   71c3c     C3  594   1.948   0.843   1.962
   71c3c     C4  595   1.917   0.700   2.019
   71c3c     C5  596   1.638   0.884   2.114
   71c3c     C6  597   1.610   0.802   1.890
   71c3c     H1  598   1.815   1.004   2.015
   71c3c     H2  599   1.794   0.943   1.849
   71c3c     H3  600   1.743   0.676   2.144
   71c3c     H4  601   1.723   0.615   1.978
   71c3c     H5  602   2.015   0.897   2.029
   71c3c     H6  603   1.995   0.837   1.865
   71c3c     H7  604   1.969   0.683   2.113
   71c3c     H8  605   1.949   0.623   1.948
   71c3c     H9  606   1.594   0.979   2.084
   71c3c    H10  607   1.559   0.817   2.148
   71c3c    H11  608   1.709   0.900   2.195
   71c3c    H12  609   1.531   0.735   1.924
   71c3c    H13  610   1.567   0.897   1.860
   71c3c     C7  611   1.682   0.739   1.770
   71c3c    H14  612   1.726   0.644   1.799
   71c3c    H15  613   1.761   0.806   1.736
   71c3c     C8  614   1.582   0.717   1.657
   71c3c    H16  615   1.538   0.812   1.627
   71c3c    H17  616   1.503   0.650   1.691
   71c3c    H18  617   1.633   0.672   1.571
   72c3c      N  618   2.756   2.068   2.065
   72c3c     C1  619   2.824   2.089   2.194
   72c3c     C2  620   2.721   2.198   2.006
   72c3c     C3  621   2.834   2.239   2.222
   72c3c     C4  622   2.767   2.310   2.099
   72c3c     C5  623   2.846   1.996   1.974
   72c3c     C6  624   2.634   1.989   2.086
   72c3c     H1  625   2.924   2.046   2.190
   72c3c     H2  626   2.767   2.041   2.273
   72c3c     H3  627   2.770   2.209   1.910
   72c3c     H4  628   2.613   2.204   1.993
   72c3c     H5  629   2.939   2.269   2.232
   72c3c     H6  630   2.783   2.264   2.315
   72c3c     H7  631   2.838   2.376   2.049
   72c3c     H8  632   2.682   2.371   2.132
   72c3c     H9  633   2.872   1.899   2.017
   72c3c    H10  634   2.796   1.980   1.878
   72c3c    H11  635   2.937   2.054   1.958
   72c3c    H12  636   2.584   1.974   1.990
   72c3c    H13  637   2.660   1.893   2.130
   72c3c     C7  638   2.540   2.065   2.181
   72c3c    H14  639   2.514   2.161   2.137
   72c3c    H15  640   2.590   2.080   2.276
   72c3c     C8  641   2.413   1.982   2.203
   72c3c    H16  642   2.439   1.886   2.246
   72c3c    H17  643   2.363   1.967   2.107
   72c3c    H18  644   2.346   2.036   2.270
   73c3c      N  645   1.814   2.415   0.326
   73c3c     C1  646   1.720   2.314   0.375
   73c3c     C2  647   1.924   2.349   0.254
   73c3c     C3  648   1.770   2.175   0.336
   73c3c     C4  649   1.903   2.198   0.256
   73c3c     C5  650   1.744   2.507   0.234
   73c3c     C6  651   1.869   2.492   0.439
   73c3c     H1  652   1.622   2.331   0.332
   73c3c     H2  653   1.714   2.320   0.484
   73c3c     H3  654   1.927   2.384   0.150
   73c3c     H4  655   2.019   2.374   0.302
   73c3c     H5  656   1.696   2.124   0.273
   73c3c     H6  657   1.788   2.113   0.424
   73c3c     H7  658   1.895   2.159   0.154
   73c3c     H8  659   1.987   2.148   0.305
   73c3c     H9  660   1.662   2.556   0.287
   73c3c    H10  661   1.814   2.582   0.197
   73c3c    H11  662   1.704   2.450   0.150
   73c3c    H12  663   1.938   2.567   0.402
   73c3c    H13  664   1.787   2.541   0.492
   73c3c     C7  665   1.942   2.397   0.534
   73c3c    H14  666   2.024   2.348   0.481
   73c3c    H15  667   1.872   2.322   0.571
   73c3c     C8  668   1.998   2.477   0.652
   73c3c    H16  669   1.917   2.526   0.705
   73c3c    H17  670   2.068   2.552   0.615
   73c3c    H18  671   2.051   2.409   0.719
   74c3c      N  672   2.128   2.013   2.655
   74c3c     C1  673   2.001   2.023   2.730
   74c3c     C2  674   2.208   1.903   2.711
   74c3c     C3  675   1.998   1.917   2.839
   74c3c     C4  676   2.133   1.838   2.827
   74c3c     C5  677   2.099   1.985   2.513
   74c3c     C6  678   2.202   2.139   2.666
   74c3c     H1  679   1.917   2.009   2.662
   74c3c     H2  680   1.994   2.122   2.775
   74c3c     H3  681   2.227   1.828   2.633
   74c3c     H4  682   2.303   1.942   2.746
   74c3c     H5  683   1.913   1.850   2.825
   74c3c     H6  684   1.989   1.963   2.938
   74c3c     H7  685   2.115   1.732   2.806
   74c3c     H8  686   2.191   1.845   2.919
   74c3c     H9  687   2.039   2.067   2.472
   74c3c    H10  688   2.192   1.977   2.458
   74c3c    H11  689   2.043   1.892   2.505
   74c3c    H12  690   2.296   2.131   2.611
   74c3c    H13  691   2.142   2.220   2.625
   74c3c     C7  692   2.233   2.167   2.813
   74c3c    H14  693   2.292   2.086   2.855
   74c3c    H15  694   2.139   2.175   2.869
   74c3c     C8  695   2.310   2.298   2.825
   74c3c    H16  696   2.250   2.380   2.784
   74c3c    H17  697   2.404   2.290   2.770
   74c3c    H18  698   2.332   2.319   2.930
   75c3c      N  699   1.665   0.382   2.767
   75c3c     C1  700   1.754   0.319   2.865
   75c3c     C2  701   1.720   0.365   2.632
   75c3c     C3  702   1.873   0.256   2.793
   75c3c     C4  703   1.852   0.286   2.641
   75c3c     C5  704   1.532   0.320   2.774
   75c3c     C6  705   1.654   0.526   2.797
   75c3c     H1  706   1.699   0.241   2.919
   75c3c     H2  707   1.789   0.394   2.936
   75c3c     H3  708   1.649   0.310   2.570
   75c3c     H4  709   1.740   0.462   2.587
   75c3c     H5  710   1.877   0.149   2.811
   75c3c     H6  711   1.967   0.300   2.828
   75c3c     H7  712   1.845   0.194   2.583
   75c3c     H8  713   1.934   0.345   2.600
   75c3c     H9  714   1.491   0.333   2.874
   75c3c    H10  715   1.466   0.367   2.701
   75c3c    H11  716   1.540   0.214   2.752
   75c3c    H12  717   1.588   0.573   2.724
   75c3c    H13  718   1.612   0.539   2.897
   75c3c     C7  719   1.792   0.591   2.790
   75c3c    H14  720   1.833   0.578   2.690
   75c3c    H15  721   1.858   0.544   2.863
   75c3c     C8  722   1.780   0.740   2.821
   75c3c    H16  723   1.739   0.753   2.921
   75c3c    H17  724   1.714   0.787   2.748
   75c3c    H18  725   1.879   0.786   2.816
   76c3c      N  726   1.644   2.156   0.980
   76c3c     C1  727   1.679   2.297   0.960
   76c3c     C2  728   1.664   2.082   0.855
   76c3c     C3  729   1.724   2.318   0.815
   76c3c     C4  730   1.714   2.177   0.746
   76c3c     C5  731   1.730   2.099   1.085
   76c3c     C6  732   1.503   2.146   1.022
   76c3c     H1  733   1.761   2.325   1.027
   76c3c     H2  734   1.592   2.360   0.980
   76c3c     H3  735   1.737   2.003   0.870
   76c3c     H4  736   1.569   2.038   0.824
   76c3c     H5  737   1.826   2.356   0.811
   76c3c     H6  738   1.659   2.391   0.765
   76c3c     H7  739   1.811   2.145   0.709
   76c3c     H8  740   1.644   2.180   0.662
   76c3c     H9  741   1.716   2.154   1.178
   76c3c    H10  742   1.704   1.994   1.100
   76c3c    H11  743   1.835   2.106   1.054
   76c3c    H12  744   1.477   2.041   1.037
   76c3c    H13  745   1.489   2.201   1.115
   76c3c     C7  746   1.414   2.205   0.913
   76c3c    H14  747   1.428   2.150   0.820
   76c3c    H15  748   1.440   2.310   0.898
   76c3c     C8  749   1.268   2.195   0.956
   76c3c    H16  750   1.253   2.250   1.049
   76c3c    H17  751   1.242   2.090   0.972
   76c3c    H18  752   1.204   2.237   0.879
   77c3c      N  753   0.363   0.968   1.531
   77c3c     C1  754   0.229   0.968   1.592
   77c3c     C2  755   0.449   0.871   1.600
   77c3c     C3  756   0.225   0.867   1.706
   77c3c     C4  757   0.369   0.804   1.712
   77c3c     C5  758   0.352   0.931   1.388
   77c3c     C6  759   0.421   1.102   1.542
   77c3c     H1  760   0.155   0.941   1.517
   77c3c     H2  761   0.206   1.067   1.630
   77c3c     H3  762   0.483   0.796   1.529
   77c3c     H4  763   0.535   0.923   1.643
   77c3c     H5  764   0.150   0.790   1.688
   77c3c     H6  765   0.201   0.916   1.801
   77c3c     H7  766   0.364   0.696   1.696
   77c3c     H8  767   0.416   0.822   1.809
   77c3c     H9  768   0.288   1.003   1.337
   77c3c    H10  769   0.451   0.931   1.343
   77c3c    H11  770   0.308   0.831   1.380
   77c3c    H12  771   0.521   1.103   1.496
   77c3c    H13  772   0.358   1.174   1.490
   77c3c     C7  773   0.433   1.141   1.689
   77c3c    H14  774   0.497   1.069   1.741
   77c3c    H15  775   0.334   1.141   1.735
   77c3c     C8  776   0.494   1.281   1.701
   77c3c    H16  777   0.431   1.353   1.649
   77c3c    H17  778   0.593   1.281   1.655
   77c3c    H18  779   0.502   1.308   1.806
   78c3c      N  780   0.437   1.406   1.211
   78c3c     C1  781   0.411   1.507   1.107
   78c3c     C2  782   0.345   1.293   1.194
   78c3c     C3  783   0.296   1.459   1.018
   78c3c     C4  784   0.253   1.319   1.074
   78c3c     C5  785   0.576   1.358   1.199
   78c3c     C6  786   0.417   1.466   1.344
   78c3c     H1  787   0.500   1.521   1.047
   78c3c     H2  788   0.383   1.601   1.154
   78c3c     H3  789   0.402   1.201   1.177
   78c3c     H4  790   0.285   1.281   1.284
   78c3c     H5  791   0.330   1.450   0.914
   78c3c     H6  792   0.213   1.529   1.020
   78c3c     H7  793   0.265   1.241   0.999
   78c3c     H8  794   0.149   1.320   1.105
   78c3c     H9  795   0.644   1.442   1.212
   78c3c    H10  796   0.595   1.283   1.276
   78c3c    H11  797   0.591   1.314   1.101
   78c3c    H12  798   0.437   1.391   1.421
   78c3c    H13  799   0.486   1.550   1.356
   78c3c     C7  800   0.273   1.515   1.356
   78c3c    H14  801   0.205   1.431   1.344
   78c3c    H15  802   0.253   1.590   1.280
   78c3c     C8  803   0.252   1.578   1.495
   78c3c    H16  804   0.321   1.661   1.507
   78c3c    H17  805   0.272   1.503   1.571
   78c3c    H18  806   0.150   1.613   1.503
   79c3c      N  807   1.123   1.458   0.323
   79c3c     C1  808   0.987   1.482   0.373
   79c3c     C2  809   1.127   1.331   0.249
   79c3c     C3  810   0.896   1.366   0.331
   79c3c     C4  811   0.988   1.268   0.250
   79c3c     C5  812   1.162   1.568   0.234
   79c3c     C6  813   1.216   1.452   0.437
   79c3c     H1  814   0.948   1.575   0.332
   79c3c     H2  815   0.988   1.489   0.482
   79c3c     H3  816   1.158   1.350   0.146
   79c3c     H4  817   1.198   1.264   0.296
   79c3c     H5  818   0.814   1.402   0.269
   79c3c     H6  819   0.854   1.317   0.418
   79c3c     H7  820   0.951   1.255   0.148
   79c3c     H8  821   0.990   1.170   0.297
   79c3c     H9  822   1.159   1.663   0.288
   79c3c    H10  823   1.263   1.551   0.197
   79c3c    H11  824   1.093   1.573   0.149
   79c3c    H12  825   1.317   1.434   0.399
   79c3c    H13  826   1.214   1.546   0.491
   79c3c     C7  827   1.176   1.337   0.530
   79c3c    H14  828   1.179   1.243   0.475
   79c3c    H15  829   1.075   1.355   0.567
   79c3c     C8  830   1.273   1.331   0.647
   79c3c    H16  831   1.270   1.425   0.702
   79c3c    H17  832   1.374   1.313   0.610
   79c3c    H18  833   1.244   1.249   0.714
   80c3c      N  834   0.407   0.483   1.165
   80c3c     C1  835   0.449   0.623   1.179
   80c3c     C2  836   0.287   0.475   1.080
   80c3c     C3  837   0.353   0.713   1.100
   80c3c     C4  838   0.248   0.616   1.035
   80c3c     C5  839   0.516   0.405   1.104
   80c3c     C6  840   0.376   0.428   1.298
   80c3c     H1  841   0.550   0.635   1.140
   80c3c     H2  842   0.446   0.652   1.284
   80c3c     H3  843   0.309   0.414   0.992
   80c3c     H4  844   0.205   0.430   1.136
   80c3c     H5  845   0.407   0.768   1.023
   80c3c     H6  846   0.304   0.785   1.165
   80c3c     H7  847   0.250   0.623   0.926
   80c3c     H8  848   0.147   0.640   1.069
   80c3c     H9  849   0.604   0.410   1.167
   80c3c    H10  850   0.485   0.301   1.094
   80c3c    H11  851   0.539   0.446   1.005
   80c3c    H12  852   0.345   0.324   1.288
   80c3c    H13  853   0.464   0.433   1.361
   80c3c     C7  854   0.263   0.508   1.362
   80c3c    H14  855   0.174   0.503   1.298
   80c3c    H15  856   0.293   0.612   1.372
   80c3c     C8  857   0.230   0.451   1.500
   80c3c    H16  858   0.319   0.456   1.563
   80c3c    H17  859   0.200   0.347   1.490
   80c3c    H18  860   0.150   0.508   1.545
   81c3c      N  861   1.698   2.789   1.497
   81c3c     C1  862   1.567   2.856   1.496
   81c3c     C2  863   1.679   2.643   1.496
   81c3c     C3  864   1.456   2.751   1.495
   81c3c     C4  865   1.529   2.612   1.495
   81c3c     C5  866   1.774   2.829   1.377
   81c3c     C6  867   1.772   2.829   1.617
   81c3c     H1  868   1.558   2.918   1.407
   81c3c     H2  869   1.557   2.918   1.585
   81c3c     H3  870   1.726   2.601   1.408
   81c3c     H4  871   1.724   2.600   1.585
   81c3c     H5  872   1.394   2.761   1.406
   81c3c     H6  873   1.392   2.761   1.583
   81c3c     H7  874   1.503   2.554   1.406
   81c3c     H8  875   1.502   2.553   1.583
   81c3c     H9  876   1.788   2.937   1.378
   81c3c    H10  877   1.871   2.780   1.378
   81c3c    H11  878   1.719   2.800   1.288
   81c3c    H12  879   1.869   2.779   1.618
   81c3c    H13  880   1.786   2.937   1.618
   81c3c     C7  881   1.693   2.787   1.742
   81c3c    H14  882   1.679   2.679   1.741
   81c3c    H15  883   1.596   2.836   1.741
   81c3c     C8  884   1.770   2.828   1.867
   81c3c    H16  885   1.785   2.936   1.868
   81c3c    H17  886   1.868   2.778   1.868
   81c3c    H18  887   1.714   2.798   1.956
   82c3c      N  888   0.511   0.405   1.969
   82c3c     C1  889   0.578   0.285   2.021
   82c3c     C2  890   0.421   0.460   2.071
   82c3c     C3  891   0.532   0.259   2.164
   82c3c     C4  892   0.428   0.373   2.197
   82c3c     C5  893   0.611   0.506   1.933
   82c3c     C6  894   0.433   0.369   1.849
   82c3c     H1  895   0.686   0.301   2.021
   82c3c     H2  896   0.554   0.199   1.959
   82c3c     H3  897   0.450   0.562   2.095
   82c3c     H4  898   0.318   0.460   2.033
   82c3c     H5  899   0.616   0.262   2.234
   82c3c     H6  900   0.485   0.161   2.172
   82c3c     H7  901   0.462   0.432   2.283
   82c3c     H8  902   0.331   0.331   2.221
   82c3c     H9  903   0.678   0.466   1.857
   82c3c    H10  904   0.561   0.595   1.894
   82c3c    H11  905   0.669   0.533   2.021
   82c3c    H12  906   0.383   0.457   1.810
   82c3c    H13  907   0.500   0.328   1.773
   82c3c     C7  908   0.328   0.263   1.887
   82c3c    H14  909   0.262   0.304   1.963
   82c3c    H15  910   0.378   0.175   1.926
   82c3c     C8  911   0.247   0.226   1.762
   82c3c    H16  912   0.314   0.185   1.686
   82c3c    H17  913   0.197   0.314   1.723
   82c3c    H18  914   0.173   0.151   1.789
   83c3c      N  915   2.462   2.729   2.753
   83c3c     C1  916   2.528   2.852   2.799
   83c3c     C2  917   2.561   2.644   2.684
   83c3c     C3  918   2.675   2.850   2.759
   83c3c     C4  919   2.697   2.714   2.684
   83c3c     C5  920   2.408   2.656   2.868
   83c3c     C6  921   2.353   2.763   2.660
   83c3c     H1  922   2.519   2.859   2.907
   83c3c     H2  923   2.479   2.938   2.753
   83c3c     H3  924   2.569   2.548   2.735
   83c3c     H4  925   2.529   2.627   2.581
   83c3c     H5  926   2.739   2.856   2.848
   83c3c     H6  927   2.699   2.934   2.694
   83c3c     H7  928   2.771   2.652   2.735
   83c3c     H8  929   2.732   2.731   2.582
   83c3c     H9  930   2.335   2.718   2.919
   83c3c    H10  931   2.359   2.564   2.834
   83c3c    H11  932   2.488   2.631   2.937
   83c3c    H12  933   2.305   2.671   2.626
   83c3c    H13  934   2.280   2.825   2.711
   83c3c     C7  935   2.410   2.838   2.540
   83c3c    H14  936   2.483   2.775   2.489
   83c3c    H15  937   2.459   2.930   2.574
   83c3c     C8  938   2.297   2.873   2.443
   83c3c    H16  939   2.224   2.936   2.494
   83c3c    H17  940   2.249   2.782   2.409
   83c3c    H18  941   2.338   2.927   2.358
   84c3c      N  942   1.470   2.375   2.153
   84c3c     C1  943   1.448   2.232   2.178
   84c3c     C2  944   1.353   2.451   2.199
   84c3c     C3  945   1.311   2.212   2.243
   84c3c     C4  946   1.249   2.355   2.257
   84c3c     C5  947   1.590   2.420   2.226
   84c3c     C6  948   1.489   2.398   2.009
   84c3c     H1  949   1.526   2.194   2.244
   84c3c     H2  950   1.451   2.178   2.083
   84c3c     H3  951   1.384   2.522   2.276
   84c3c     H4  952   1.309   2.506   2.115
   84c3c     H5  953   1.322   2.164   2.341
   84c3c     H6  954   1.248   2.148   2.181
   84c3c     H7  955   1.229   2.379   2.362
   84c3c     H8  956   1.155   2.363   2.202
   84c3c     H9  957   1.676   2.363   2.191
   84c3c    H10  958   1.606   2.526   2.207
   84c3c    H11  959   1.576   2.403   2.332
   84c3c    H12  960   1.505   2.504   1.990
   84c3c    H13  961   1.576   2.341   1.974
   84c3c     C7  962   1.365   2.352   1.933
   84c3c    H14  963   1.278   2.408   1.967
   84c3c    H15  964   1.348   2.245   1.951
   84c3c     C8  965   1.385   2.375   1.783
   84c3c    H16  966   1.471   2.319   1.748
   84c3c    H17  967   1.401   2.481   1.765
   84c3c    H18  968   1.296   2.342   1.729
   85c3c      N  969   2.439   0.359   2.750
   85c3c     C1  970   2.346   0.312   2.646
   85c3c     C2  971   2.384   0.328   2.882
   85c3c     C3  972   2.224   0.248   2.712
   85c3c     C4  973   2.249   0.258   2.867
   85c3c     C5  974   2.568   0.291   2.734
   85c3c     C6  975   2.458   0.504   2.737
   85c3c     H1  976   2.395   0.239   2.582
   85c3c     H2  977   2.314   0.397   2.585
   85c3c     H3  978   2.452   0.262   2.936
   85c3c     H4  979   2.371   0.420   2.939
   85c3c     H5  980   2.214   0.144   2.681
   85c3c     H6  981   2.132   0.301   2.684
   85c3c     H7  982   2.251   0.159   2.912
   85c3c     H8  983   2.170   0.316   2.915
   85c3c     H9  984   2.609   0.313   2.635
   85c3c    H10  985   2.637   0.325   2.810
   85c3c    H11  986   2.554   0.183   2.743
   85c3c    H12  987   2.527   0.538   2.814
   85c3c    H13  988   2.499   0.527   2.638
   85c3c     C7  989   2.323   0.575   2.754
   85c3c    H14  990   2.283   0.552   2.852
   85c3c    H15  991   2.254   0.540   2.677
   85c3c     C8  992   2.343   0.726   2.741
   85c3c    H16  993   2.384   0.749   2.642
   85c3c    H17  994   2.412   0.760   2.818
   85c3c    H18  995   2.247   0.776   2.753
   86c3c      N  996   0.357   1.597   0.347
   86c3c     C1  997   0.387   1.638   0.209
   86c3c     C2  998   0.453   1.659   0.440
   86c3c     C3  999   0.508   1.732   0.210
   86c3c     C4 1000   0.551   1.746   0.360
   86c3c     C5 1001   0.221   1.639   0.383
   86c3c     C6 1002   0.367   1.450   0.358
   86c3c     H1 1003   0.301   1.690   0.168
   86c3c     H2 1004   0.410   1.550   0.149
   86c3c     H3 1005   0.400   1.722   0.511
   86c3c     H4 1006   0.508   1.582   0.493
   86c3c     H5 1007   0.481   1.829   0.168
   86c3c     H6 1008   0.589   1.691   0.150
   86c3c     H7 1009   0.546   1.850   0.393
   86c3c     H8 1010   0.654   1.711   0.374
   86c3c     H9 1011   0.149   1.593   0.315
   86c3c    H10 1012   0.199   1.608   0.485
   86c3c    H11 1013   0.213   1.748   0.375
   86c3c    H12 1014   0.345   1.420   0.460
   86c3c    H13 1015   0.296   1.404   0.290
   86c3c     C7 1016   0.509   1.406   0.321
   86c3c    H14 1017   0.580   1.453   0.390
   86c3c    H15 1018   0.531   1.437   0.219
   86c3c     C8 1019   0.520   1.254   0.332
   86c3c    H16 1020   0.448   1.208   0.264
   86c3c    H17 1021   0.497   1.223   0.435
   86c3c    H18 1022   0.621   1.223   0.306
   87c3c      N 1023   0.633   0.384   0.632
   87c3c     C1 1024   0.501   0.333   0.670
   87c3c     C2 1025   0.734   0.337   0.728
   87c3c     C3 1026   0.513   0.248   0.796
   87c3c     C4 1027   0.665   0.250   0.835
   87c3c     C5 1028   0.668   0.336   0.497
   87c3c     C6 1029   0.631   0.532   0.632
   87c3c     H1 1030   0.461   0.272   0.589
   87c3c     H2 1031   0.433   0.417   0.689
   87c3c     H3 1032   0.809   0.278   0.676
   87c3c     H4 1033   0.782   0.422   0.776
   87c3c     H5 1034   0.479   0.146   0.777
   87c3c     H6 1035   0.452   0.290   0.877
   87c3c     H7 1036   0.707   0.150   0.835
   87c3c     H8 1037   0.680   0.293   0.934
   87c3c     H9 1038   0.594   0.372   0.426
   87c3c    H10 1039   0.766   0.374   0.469
   87c3c    H11 1040   0.670   0.227   0.497
   87c3c    H12 1041   0.729   0.570   0.604
   87c3c    H13 1042   0.557   0.567   0.561
   87c3c     C7 1043   0.595   0.582   0.772
   87c3c    H14 1044   0.670   0.546   0.844
   87c3c    H15 1045   0.497   0.544   0.800
   87c3c     C8 1046   0.593   0.735   0.772
   87c3c    H16 1047   0.519   0.770   0.701
   87c3c    H17 1048   0.691   0.773   0.744
   87c3c    H18 1049   0.567   0.770   0.872
   88c3c      N 1050   0.783   2.402   1.074
   88c3c     C1 1051   0.899   2.486   1.105
   88c3c     C2 1052   0.704   2.380   1.196
   88c3c     C3 1053   0.898   2.521   1.254
   88c3c     C4 1054   0.770   2.451   1.313
   88c3c     C5 1055   0.700   2.470   0.973
   88c3c     C6 1056   0.829   2.273   1.020
   88c3c     H1 1057   0.895   2.578   1.046
   88c3c     H2 1058   0.991   2.432   1.082
   88c3c     H3 1059   0.603   2.418   1.181
   88c3c     H4 1060   0.699   2.273   1.216
   88c3c     H5 1061   0.893   2.629   1.268
   88c3c     H6 1062   0.988   2.485   1.303
   88c3c     H7 1063   0.702   2.525   1.356
   88c3c     H8 1064   0.797   2.381   1.391
   88c3c     H9 1065   0.758   2.486   0.882
   88c3c    H10 1066   0.613   2.407   0.949
   88c3c    H11 1067   0.665   2.565   1.012
   88c3c    H12 1068   0.743   2.211   0.997
   88c3c    H13 1069   0.887   2.289   0.930
   88c3c     C7 1070   0.915   2.203   1.125
   88c3c    H14 1071   0.857   2.186   1.215
   88c3c    H15 1072   1.002   2.265   1.149
   88c3c     C8 1073   0.963   2.068   1.070
   88c3c    H16 1074   1.022   2.085   0.979
   88c3c    H17 1075   0.877   2.006   1.046
   88c3c    H18 1076   1.025   2.018   1.144
   89c3c      N 1077   2.681   2.557   1.232
   89c3c     C1 1078   2.552   2.503   1.276
   89c3c     C2 1079   2.789   2.466   1.273
   89c3c     C3 1080   2.573   2.370   1.348
   89c3c     C4 1081   2.729   2.346   1.347
   89c3c     C5 1082   2.682   2.571   1.086
   89c3c     C6 1083   2.703   2.689   1.294
   89c3c     H1 1084   2.488   2.486   1.189
   89c3c     H2 1085   2.503   2.574   1.343
   89c3c     H3 1086   2.843   2.431   1.185
   89c3c     H4 1087   2.858   2.518   1.339
   89c3c     H5 1088   2.521   2.289   1.298
   89c3c     H6 1089   2.536   2.376   1.451
   89c3c     H7 1090   2.753   2.253   1.295
   89c3c     H8 1091   2.768   2.339   1.449
   89c3c     H9 1092   2.602   2.639   1.055
   89c3c    H10 1093   2.778   2.611   1.054
   89c3c    H11 1094   2.666   2.473   1.040
   89c3c    H12 1095   2.799   2.729   1.262
   89c3c    H13 1096   2.623   2.757   1.263
   89c3c     C7 1097   2.702   2.674   1.446
   89c3c    H14 1098   2.782   2.607   1.477
   89c3c    H15 1099   2.606   2.634   1.479
   89c3c     C8 1100   2.724   2.811   1.510
   89c3c    H16 1101   2.645   2.879   1.480
   89c3c    H17 1102   2.820   2.852   1.478
   89c3c    H18 1103   2.724   2.801   1.619
   90c3c      N 1104   1.507   2.651   2.665
   90c3c     C1 1105   1.478   2.753   2.562
   90c3c     C2 1106   1.407   2.660   2.772
   90c3c     C3 1107   1.354   2.832   2.602
   90c3c     C4 1108   1.307   2.772   2.740
   90c3c     C5 1109   1.502   2.517   2.604
   90c3c     C6 1110   1.641   2.675   2.721
   90c3c     H1 1111   1.460   2.703   2.466
   90c3c     H2 1112   1.563   2.820   2.553
   90c3c     H3 1113   1.354   2.565   2.780
   90c3c     H4 1114   1.456   2.682   2.866
   90c3c     H5 1115   1.276   2.822   2.527
   90c3c     H6 1116   1.378   2.938   2.613
   90c3c     H7 1117   1.206   2.732   2.732
   90c3c     H8 1118   1.308   2.848   2.818
   90c3c     H9 1119   1.576   2.510   2.524
   90c3c    H10 1120   1.523   2.442   2.680
   90c3c    H11 1121   1.403   2.500   2.562
   90c3c    H12 1122   1.662   2.599   2.797
   90c3c    H13 1123   1.715   2.668   2.641
   90c3c     C7 1124   1.646   2.814   2.784
   90c3c    H14 1125   1.572   2.820   2.863
   90c3c    H15 1126   1.625   2.889   2.708
   90c3c     C8 1127   1.785   2.838   2.842
   90c3c    H16 1128   1.860   2.832   2.763
   90c3c    H17 1129   1.807   2.763   2.918
   90c3c    H18 1130   1.789   2.938   2.887
   91c3c      N 1131   2.556   0.300   1.791
   91c3c     C1 1132   2.587   0.443   1.804
   91c3c     C2 1133   2.659   0.220   1.858
   91c3c     C3 1134   2.717   0.459   1.884
   91c3c     C4 1135   2.764   0.313   1.918
   91c3c     C5 1136   2.425   0.273   1.852
   91c3c     C6 1137   2.551   0.264   1.648
   91c3c     H1 1138   2.506   0.493   1.857
   91c3c     H2 1139   2.599   0.487   1.706
   91c3c     H3 1140   2.614   0.160   1.936
   91c3c     H4 1141   2.707   0.154   1.785
   91c3c     H5 1142   2.700   0.517   1.975
   91c3c     H6 1143   2.792   0.511   1.824
   91c3c     H7 1144   2.770   0.299   2.026
   91c3c     H8 1145   2.862   0.293   1.876
   91c3c     H9 1146   2.348   0.332   1.803
   91c3c    H10 1147   2.401   0.167   1.842
   91c3c    H11 1148   2.428   0.299   1.958
   91c3c    H12 1149   2.527   0.159   1.638
   91c3c    H13 1150   2.474   0.324   1.598
   91c3c     C7 1151   2.687   0.293   1.584
   91c3c    H14 1152   2.763   0.233   1.633
   91c3c    H15 1153   2.710   0.399   1.594
   91c3c     C8 1154   2.681   0.256   1.435
   91c3c    H16 1155   2.605   0.315   1.386
   91c3c    H17 1156   2.658   0.150   1.425
   91c3c    H18 1157   2.778   0.276   1.390
   92c3c      N 1158   2.748   0.790   0.977
   92c3c     C1 1159   2.879   0.724   0.980
   92c3c     C2 1160   2.642   0.689   0.987
   92c3c     C3 1161   2.860   0.573   0.991
   92c3c     C4 1162   2.704   0.550   0.995
   92c3c     C5 1163   2.738   0.883   1.091
   92c3c     C6 1164   2.734   0.866   0.852
   92c3c     H1 1165   2.937   0.760   1.065
   92c3c     H2 1166   2.933   0.747   0.888
   92c3c     H3 1167   2.581   0.708   1.075
   92c3c     H4 1168   2.578   0.695   0.898
   92c3c     H5 1169   2.907   0.534   1.081
   92c3c     H6 1170   2.904   0.522   0.905
   92c3c     H7 1171   2.675   0.501   1.088
   92c3c     H8 1172   2.672   0.488   0.912
   92c3c     H9 1173   2.817   0.958   1.084
   92c3c    H10 1174   2.641   0.932   1.089
   92c3c    H11 1175   2.749   0.827   1.184
   92c3c    H12 1176   2.636   0.915   0.850
   92c3c    H13 1177   2.812   0.941   0.845
   92c3c     C7 1178   2.744   0.770   0.733
   92c3c    H14 1179   2.665   0.695   0.740
   92c3c    H15 1180   2.841   0.720   0.735
   92c3c     C8 1181   2.729   0.848   0.603
   92c3c    H16 1182   2.808   0.923   0.596
   92c3c    H17 1183   2.632   0.897   0.601
   92c3c    H18 1184   2.736   0.779   0.518
   93c3c      N 1185   1.085   0.639   0.379
   93c3c     C1 1186   1.122   0.610   0.240
   93c3c     C2 1187   1.207   0.669   0.457
   93c3c     C3 1188   1.273   0.621   0.223
   93c3c     C4 1189   1.329   0.660   0.365
   93c3c     C5 1190   0.995   0.755   0.383
   93c3c     C6 1191   1.017   0.522   0.438
   93c3c     H1 1192   1.073   0.682   0.174
   93c3c     H2 1193   1.090   0.509   0.214
   93c3c     H3 1194   1.200   0.770   0.498
   93c3c     H4 1195   1.217   0.597   0.538
   93c3c     H5 1196   1.299   0.697   0.150
   93c3c     H6 1197   1.315   0.526   0.190
   93c3c     H7 1198   1.382   0.755   0.362
   93c3c     H8 1199   1.398   0.584   0.402
   93c3c     H9 1200   0.905   0.733   0.326
   93c3c    H10 1201   0.968   0.777   0.486
   93c3c    H11 1202   1.045   0.842   0.340
   93c3c    H12 1203   0.990   0.544   0.541
   93c3c    H13 1204   0.927   0.500   0.381
   93c3c     C7 1205   1.111   0.402   0.434
   93c3c    H14 1206   1.201   0.424   0.491
   93c3c    H15 1207   1.138   0.380   0.331
   93c3c     C8 1208   1.041   0.280   0.495
   93c3c    H16 1209   0.951   0.258   0.438
   93c3c    H17 1210   1.014   0.302   0.598
   93c3c    H18 1211   1.108   0.194   0.492
   94c3c      N 1212   2.195   1.370   0.936
   94c3c     C1 1213   2.178   1.311   0.803
   94c3c     C2 1214   2.129   1.502   0.939
   94c3c     C3 1215   2.098   1.406   0.714
   94c3c     C4 1216   2.066   1.531   0.803
   94c3c     C5 1217   2.134   1.283   1.037
   94c3c     C6 1218   2.338   1.386   0.965
   94c3c     H1 1219   2.124   1.216   0.811
   94c3c     H2 1220   2.276   1.293   0.758
   94c3c     H3 1221   2.052   1.502   1.016
   94c3c     H4 1222   2.203   1.579   0.963
   94c3c     H5 1223   2.006   1.359   0.679
   94c3c     H6 1224   2.156   1.435   0.626
   94c3c     H7 1225   1.959   1.546   0.813
   94c3c     H8 1226   2.109   1.622   0.760
   94c3c     H9 1227   2.182   1.185   1.035
   94c3c    H10 1228   2.146   1.327   1.136
   94c3c    H11 1229   2.027   1.271   1.016
   94c3c    H12 1230   2.351   1.430   1.064
   94c3c    H13 1231   2.387   1.289   0.962
   94c3c     C7 1232   2.401   1.477   0.860
   94c3c    H14 1233   2.353   1.575   0.863
   94c3c    H15 1234   2.389   1.433   0.761
   94c3c     C8 1235   2.550   1.494   0.890
   94c3c    H16 1236   2.599   1.396   0.887
   94c3c    H17 1237   2.563   1.538   0.989
   94c3c    H18 1238   2.596   1.559   0.815
   95c3c      N 1239   1.825   1.490   2.474
   95c3c     C1 1240   1.751   1.377   2.415
   95c3c     C2 1241   1.952   1.508   2.402
   95c3c     C3 1242   1.833   1.317   2.301
   95c3c     C4 1243   1.964   1.403   2.292
   95c3c     C5 1244   1.744   1.612   2.462
   95c3c     C6 1245   1.852   1.463   2.616
   95c3c     H1 1246   1.655   1.411   2.378
   95c3c     H2 1247   1.735   1.301   2.492
   95c3c     H3 1248   1.955   1.608   2.358
   95c3c     H4 1249   2.035   1.497   2.472
   95c3c     H5 1250   1.777   1.322   2.207
   95c3c     H6 1251   1.857   1.212   2.320
   95c3c     H7 1252   1.973   1.451   2.194
   95c3c     H8 1253   2.052   1.341   2.308
   95c3c     H9 1254   1.649   1.599   2.515
   95c3c    H10 1255   1.798   1.696   2.505
   95c3c    H11 1256   1.724   1.632   2.357
   95c3c    H12 1257   1.906   1.547   2.659
   95c3c    H13 1258   1.758   1.449   2.669
   95c3c     C7 1259   1.936   1.336   2.629
   95c3c    H14 1260   2.030   1.350   2.576
   95c3c    H15 1261   1.882   1.252   2.585
   95c3c     C8 1262   1.964   1.308   2.776
   95c3c    H16 1263   1.870   1.294   2.829
   95c3c    H17 1264   2.018   1.392   2.820
   95c3c    H18 1265   2.024   1.218   2.785
   96c3c      N 1266   2.555   0.446   0.527
   96c3c     C1 1267   2.502   0.421   0.662
   96c3c     C2 1268   2.498   0.347   0.433
   96c3c     C3 1269   2.407   0.301   0.659
   96c3c     C4 1270   2.405   0.253   0.509
   96c3c     C5 1271   2.517   0.581   0.483
   96c3c     C6 1272   2.701   0.434   0.528
   96c3c     H1 1273   2.448   0.510   0.696
   96c3c     H2 1274   2.585   0.400   0.730
   96c3c     H3 1275   2.443   0.398   0.355
   96c3c     H4 1276   2.579   0.289   0.389
   96c3c     H5 1277   2.307   0.331   0.692
   96c3c     H6 1278   2.443   0.222   0.725
   96c3c     H7 1279   2.304   0.258   0.469
   96c3c     H8 1280   2.439   0.149   0.502
   96c3c     H9 1281   2.558   0.654   0.552
   96c3c    H10 1282   2.556   0.599   0.383
   96c3c    H11 1283   2.408   0.590   0.482
   96c3c    H12 1284   2.740   0.452   0.428
   96c3c    H13 1285   2.743   0.507   0.597
   96c3c     C7 1286   2.740   0.293   0.573
   96c3c    H14 1287   2.699   0.220   0.504
   96c3c    H15 1288   2.702   0.275   0.674
   96c3c     C8 1289   2.893   0.281   0.575
   96c3c    H16 1290   2.935   0.354   0.644
   96c3c    H17 1291   2.932   0.299   0.475
   96c3c    H18 1292   2.921   0.181   0.607
   97c3c      N 1293   1.547   0.313   0.906
   97c3c     C1 1294   1.549   0.460   0.915
   97c3c     C2 1295   1.510   0.274   0.769
   97c3c     C3 1296   1.512   0.521   0.780
   97c3c     C4 1297   1.486   0.399   0.684
   97c3c     C5 1298   1.680   0.259   0.938
   97c3c     C6 1299   1.449   0.259   1.001
   97c3c     H1 1300   1.650   0.493   0.944
   97c3c     H2 1301   1.478   0.493   0.991
   97c3c     H3 1302   1.590   0.214   0.725
   97c3c     H4 1303   1.418   0.214   0.772
   97c3c     H5 1304   1.594   0.583   0.742
   97c3c     H6 1305   1.423   0.583   0.789
   97c3c     H7 1306   1.555   0.401   0.599
   97c3c     H8 1307   1.384   0.401   0.646
   97c3c     H9 1308   1.708   0.289   1.039
   97c3c    H10 1309   1.678   0.151   0.930
   97c3c    H11 1310   1.753   0.299   0.867
   97c3c    H12 1311   1.447   0.150   0.994
   97c3c    H13 1312   1.476   0.288   1.102
   97c3c     C7 1313   1.310   0.315   0.968
   97c3c    H14 1314   1.282   0.285   0.867
   97c3c    H15 1315   1.312   0.424   0.975
   97c3c     C8 1316   1.208   0.259   1.067
   97c3c    H16 1317   1.235   0.288   1.168
   97c3c    H17 1318   1.206   0.150   1.060
   97c3c    H18 1319   1.109   0.298   1.043
   98c3c      N 1320   1.810   0.973   0.775
   98c3c     C1 1321   1.789   0.829   0.751
   98c3c     C2 1322   1.827   0.997   0.919
   98c3c     C3 1323   1.792   0.755   0.884
   98c3c     C4 1324   1.817   0.864   0.994
   98c3c     C5 1325   1.931   1.018   0.703
   98c3c     C6 1326   1.694   1.048   0.726
   98c3c     H1 1327   1.868   0.791   0.686
   98c3c     H2 1328   1.692   0.814   0.703
   98c3c     H3 1329   1.925   1.042   0.937
   98c3c     H4 1330   1.749   1.065   0.954
   98c3c     H5 1331   1.872   0.680   0.885
   98c3c     H6 1332   1.698   0.703   0.902
   98c3c     H7 1333   1.909   0.844   1.049
   98c3c     H8 1334   1.735   0.867   1.066
   98c3c     H9 1335   1.918   1.000   0.596
   98c3c    H10 1336   1.946   1.124   0.720
   98c3c    H11 1337   2.017   0.962   0.739
   98c3c    H12 1338   1.709   1.155   0.743
   98c3c    H13 1339   1.681   1.031   0.619
   98c3c     C7 1340   1.568   1.002   0.800
   98c3c    H14 1341   1.581   1.020   0.907
   98c3c    H15 1342   1.553   0.896   0.783
   98c3c     C8 1343   1.447   1.081   0.750
   98c3c    H16 1344   1.434   1.063   0.643
   98c3c    H17 1345   1.463   1.187   0.767
   98c3c    H18 1346   1.358   1.048   0.803
   99c3c      N 1347   2.620   1.673   1.708
   99c3c     C1 1348   2.614   1.535   1.658
   99c3c     C2 1349   2.733   1.743   1.644
   99c3c     C3 1350   2.726   1.512   1.557
   99c3c     C4 1351   2.804   1.648   1.547
   99c3c     C5 1352   2.495   1.743   1.676
   99c3c     C6 1353   2.641   1.672   1.854
   99c3c     H1 1354   2.517   1.518   1.610
   99c3c     H2 1355   2.625   1.466   1.741
   99c3c     H3 1356   2.695   1.829   1.589
   99c3c     H4 1357   2.803   1.777   1.720
   99c3c     H5 1358   2.685   1.484   1.460
   99c3c     H6 1359   2.792   1.432   1.590
   99c3c     H7 1360   2.801   1.687   1.446
   99c3c     H8 1361   2.908   1.635   1.576
   99c3c     H9 1362   2.411   1.691   1.724
   99c3c    H10 1363   2.500   1.846   1.713
   99c3c    H11 1364   2.480   1.744   1.568
   99c3c    H12 1365   2.645   1.775   1.891
   99c3c    H13 1366   2.557   1.620   1.901
   99c3c     C7 1367   2.771   1.600   1.887
   99c3c    H14 1368   2.854   1.651   1.839
   99c3c    H15 1369   2.766   1.497   1.850
   99c3c     C8 1370   2.792   1.599   2.038
   99c3c    H16 1371   2.709   1.547   2.086
   99c3c    H17 1372   2.797   1.701   2.075
   99c3c    H18 1373   2.885   1.547   2.062
  100c3c      N 1374   2.375   1.234   2.651
  100c3c     C1 1375   2.288   1.172   2.752
  100c3c     C2 1376   2.510   1.177   2.662
  100c3c     C3 1377   2.367   1.070   2.833
  100c3c     C4 1378   2.513   1.073   2.774
  100c3c     C5 1379   2.321   1.209   2.517
  100c3c     C6 1380   2.382   1.379   2.675
  100c3c     H1 1381   2.204   1.123   2.702
  100c3c     H2 1382   2.249   1.249   2.819
  100c3c     H3 1383   2.537   1.130   2.567
  100c3c     H4 1384   2.582   1.256   2.684
  100c3c     H5 1385   2.324   0.970   2.823
  100c3c     H6 1386   2.368   1.096   2.938
  100c3c     H7 1387   2.541   0.975   2.734
  100c3c     H8 1388   2.585   1.100   2.850
  100c3c     H9 1389   2.221   1.251   2.509
  100c3c    H10 1390   2.386   1.255   2.442
  100c3c    H11 1391   2.317   1.101   2.500
  100c3c    H12 1392   2.447   1.425   2.600
  100c3c    H13 1393   2.282   1.422   2.667
  100c3c     C7 1394   2.438   1.406   2.814
  100c3c    H14 1395   2.538   1.364   2.822
  100c3c    H15 1396   2.373   1.360   2.889
  100c3c     C8 1397   2.445   1.557   2.839
  100c3c    H16 1398   2.345   1.600   2.831
  100c3c    H17 1399   2.510   1.603   2.764
  100c3c    H18 1400   2.485   1.576   2.938
  101fsi     F1 1401   1.019   1.448   1.989
  101fsi     S1 1402   1.151   1.531   2.010
  101fsi      N 1403   1.138   1.641   1.909
  101fsi     O1 1404   1.143   1.575   2.148
  101fsi     O2 1405   1.257   1.437   1.984
  101fsi     S2 1406   1.071   1.770   1.946
  101fsi     O3 1407   0.976   1.729   2.046
  101fsi     O4 1408   1.015   1.814   1.820
  101fsi     F2 1409   1.191   1.858   2.000
  102fsi     F1 1410   2.135   1.215   1.325
  102fsi     S1 1411   2.227   1.087   1.332
  102fsi      N 1412   2.129   0.975   1.345
  102fsi     O1 1413   2.300   1.089   1.207
  102fsi     O2 1414   2.309   1.109   1.449
  102fsi     S2 1415   2.074   0.908   1.223
  102fsi     O3 1416   2.077   1.014   1.125
  102fsi     O4 1417   1.943   0.867   1.265
  102fsi     F2 1418   2.177   0.791   1.198
  103fsi     F1 1419   2.565   1.532   1.214
  103fsi     S1 1420   2.464   1.653   1.214
  103fsi      N 1421   2.330   1.584   1.219
  103fsi     O1 1422   2.498   1.727   1.333
  103fsi     O2 1423   2.491   1.722   1.091
  103fsi     S2 1424   2.268   1.553   1.352
  103fsi     O3 1425   2.382   1.533   1.437
  103fsi     O4 1426   2.191   1.434   1.323
  103fsi     F2 1427   2.183   1.682   1.383
  104fsi     F1 1428   2.549   2.924   1.705
  104fsi     S1 1429   2.510   2.867   1.846
  104fsi      N 1430   2.365   2.904   1.859
  104fsi     O1 1431   2.536   2.726   1.836
  104fsi     O2 1432   2.598   2.937   1.938
  104fsi     S2 1433   2.260   2.810   1.810
  104fsi     O3 1434   2.326   2.741   1.702
  104fsi     O4 1435   2.153   2.899   1.771
  104fsi     F2 1436   2.230   2.722   1.938
  105fsi     F1 1437   0.274   2.617   1.722
  105fsi     S1 1438   0.291   2.649   1.569
  105fsi      N 1439   0.346   2.789   1.570
  105fsi     O1 1440   0.383   2.548   1.522
  105fsi     O2 1441   0.158   2.637   1.515
  105fsi     S2 1442   0.494   2.811   1.574
  105fsi     O3 1443   0.541   2.695   1.646
  105fsi     O4 1444   0.505   2.936   1.644
  105fsi     F2 1445   0.534   2.815   1.421
  106fsi     F1 1446   0.400   2.616   2.171
  106fsi     S1 1447   0.469   2.478   2.140
  106fsi      N 1448   0.356   2.394   2.087
  106fsi     O1 1449   0.570   2.510   2.043
  106fsi     O2 1450   0.521   2.435   2.268
  106fsi     S2 1451   0.326   2.393   1.940
  106fsi     O3 1452   0.368   2.525   1.899
  106fsi     O4 1453   0.184   2.370   1.937
  106fsi     F2 1454   0.415   2.274   1.887
  107fsi     F1 1455   0.811   2.017   0.271
  107fsi     S1 1456   0.963   2.004   0.307
  107fsi      N 1457   0.985   2.119   0.401
  107fsi     O1 1458   0.975   1.874   0.368
  107fsi     O2 1459   1.031   2.017   0.180
  107fsi     S2 1460   0.966   2.100   0.549
  107fsi     O3 1461   0.865   1.997   0.554
  107fsi     O4 1462   0.923   2.231   0.592
  107fsi     F2 1463   1.109   2.056   0.598
  108fsi     F1 1464   1.069   1.058   2.021
  108fsi     S1 1465   1.007   1.201   2.001
  108fsi      N 1466   1.071   1.249   1.875
  108fsi     O1 1467   0.865   1.176   1.991
  108fsi     O2 1468   1.045   1.274   2.120
  108fsi     S2 1469   1.007   1.221   1.742
  108fsi     O3 1470   0.938   1.096   1.766
  108fsi     O4 1471   1.120   1.213   1.653
  108fsi     F2 1472   0.914   1.346   1.721
  109fsi     F1 1473   1.874   0.886   0.301
  109fsi     S1 1474   1.863   0.758   0.392
  109fsi      N 1475   1.759   0.797   0.493
  109fsi     O1 1476   1.822   0.654   0.301
  109fsi     O2 1477   1.996   0.742   0.446
  109fsi     S2 1478   1.614   0.769   0.466
  109fsi     O3 1479   1.607   0.777   0.322
  109fsi     O4 1480   1.548   0.876   0.536
  109fsi     F2 1481   1.593   0.626   0.526
  110fsi     F1 1482   1.093   0.704   2.266
  110fsi     S1 1483   1.092   0.694   2.108
  110fsi      N 1484   1.237   0.706   2.073
  110fsi     O1 1485   1.033   0.566   2.081
  110fsi     O2 1486   1.011   0.807   2.067
  110fsi     S2 1487   1.322   0.582   2.063
  110fsi     O3 1488   1.259   0.493   2.157
  110fsi     O4 1489   1.453   0.630   2.100
  110fsi     F2 1490   1.306   0.541   1.911
  111fsi     F1 1491   0.774   0.917   0.888
  111fsi     S1 1492   0.924   0.954   0.859
  111fsi      N 1493   0.997   0.826   0.889
  111fsi     O1 1494   0.925   0.993   0.720
  111fsi     O2 1495   0.952   1.062   0.951
  111fsi     S2 1496   1.018   0.725   0.780
  111fsi     O3 1497   0.904   0.746   0.695
  111fsi     O4 1498   1.019   0.600   0.853
  111fsi     F2 1499   1.157   0.768   0.719
  112fsi     F1 1500   1.894   2.457   2.088
  112fsi     S1 1501   1.962   2.581   2.019
  112fsi      N 1502   1.884   2.697   2.072
  112fsi     O1 1503   2.099   2.576   2.064
  112fsi     O2 1504   1.946   2.556   1.877
  112fsi     S2 1505   1.927   2.765   2.198
  112fsi     O3 1506   1.990   2.659   2.271
  112fsi     O4 1507   1.802   2.812   2.253
  112fsi     F2 1508   2.024   2.878   2.146
  113fsi     F1 1509   1.153   2.508   1.447
  113fsi     S1 1510   1.214   2.396   1.355
  113fsi      N 1511   1.186   2.446   1.216
  113fsi     O1 1512   1.354   2.393   1.391
  113fsi     O2 1513   1.141   2.277   1.392
  113fsi     S2 1514   1.286   2.534   1.147
  113fsi     O3 1515   1.349   2.603   1.257
  113fsi     O4 1516   1.203   2.615   1.062
  113fsi     F2 1517   1.378   2.430   1.071
  114fsi     F1 1518   1.234   1.205   2.031
  114fsi     S1 1519   1.360   1.128   1.976
  114fsi      N 1520   1.314   0.985   1.974
  114fsi     O1 1521   1.383   1.186   1.846
  114fsi     O2 1522   1.464   1.156   2.072
  114fsi     S2 1523   1.248   0.929   1.851
  114fsi     O3 1524   1.183   1.046   1.795
  114fsi     O4 1525   1.159   0.830   1.906
  114fsi     F2 1526   1.369   0.873   1.768
  115fsi     F1 1527   2.922   2.013   1.055
  115fsi     S1 1528   2.813   2.010   0.941
  115fsi      N 1529   2.698   1.940   1.006
  115fsi     O1 1530   2.790   2.149   0.911
  115fsi     O2 1531   2.876   1.937   0.834
  115fsi     S2 1532   2.594   2.019   1.080
  115fsi     O3 1533   2.669   2.132   1.128
  115fsi     O4 1534   2.550   1.926   1.181
  115fsi     F2 1535   2.488   2.051   0.968
  116fsi     F1 1536   2.363   2.024   1.533
  116fsi     S1 1537   2.479   2.034   1.427
  116fsi      N 1538   2.554   2.156   1.470
  116fsi     O1 1539   2.551   1.910   1.443
  116fsi     O2 1540   2.410   2.046   1.300
  116fsi     S2 1541   2.667   2.145   1.568
  116fsi     O3 1542   2.628   2.031   1.647
  116fsi     O4 1543   2.663   2.272   1.636
  116fsi     F2 1544   2.792   2.122   1.475
  117fsi     F1 1545   2.435   1.892   2.578
  117fsi     S1 1546   2.480   1.744   2.547
  117fsi      N 1547   2.369   1.663   2.606
  117fsi     O1 1548   2.488   1.739   2.403
  117fsi     O2 1549   2.607   1.730   2.614
  117fsi     S2 1550   2.249   1.626   2.523
  117fsi     O3 1551   2.240   1.737   2.431
  117fsi     O4 1552   2.144   1.618   2.621
  117fsi     F2 1553   2.292   1.489   2.458
  118fsi     F1 1554   2.363   1.818   0.940
  118fsi     S1 1555   2.270   1.939   0.978
  118fsi      N 1556   2.133   1.877   0.979
  118fsi     O1 1557   2.317   1.982   1.107
  118fsi     O2 1558   2.291   2.035   0.872
  118fsi     S2 1559   2.079   1.817   1.105
  118fsi     O3 1560   2.198   1.773   1.173
  118fsi     O4 1561   1.993   1.712   1.056
  118fsi     F2 1562   2.004   1.939   1.173
  119fsi     F1 1563   1.767   1.150   1.739
  119fsi     S1 1564   1.712   1.234   1.861
  119fsi      N 1565   1.837   1.285   1.926
  119fsi     O1 1566   1.631   1.336   1.799
  119fsi     O2 1567   1.638   1.138   1.939
  119fsi     S2 1568   1.896   1.416   1.884
  119fsi     O3 1569   1.857   1.425   1.745
  119fsi     O4 1570   2.037   1.396   1.908
  119fsi     F2 1571   1.826   1.519   1.980
  120fsi     F1 1572   1.767   1.715   2.730
  120fsi     S1 1573   1.640   1.666   2.809
  120fsi      N 1574   1.561   1.791   2.828
  120fsi     O1 1575   1.580   1.568   2.721
  120fsi     O2 1576   1.695   1.610   2.931
  120fsi     S2 1577   1.460   1.832   2.725
  120fsi     O3 1578   1.515   1.778   2.603
  120fsi     O4 1579   1.461   1.976   2.734
  120fsi     F2 1580   1.328   1.762   2.775
  121fsi     F1 1581   1.152   1.895   1.668
  121fsi     S1 1582   1.054   2.009   1.622
  121fsi      N 1583   0.990   1.951   1.500
  121fsi     O1 1584   0.965   2.027   1.734
  121fsi     O2 1585   1.141   2.121   1.596
  121fsi     S2 1586   0.863   1.871   1.512
  121fsi     O3 1587   0.876   1.813   1.644
  121fsi     O4 1588   0.873   1.778   1.403
  121fsi     F2 1589   0.751   1.980   1.498
  122fsi     F1 1590   1.527   1.228   1.273
  122fsi     S1 1591   1.600   1.088   1.283
  122fsi      N 1592   1.485   0.992   1.298
  122fsi     O1 1593   1.672   1.077   1.159
  122fsi     O2 1594   1.683   1.101   1.400
  122fsi     S2 1595   1.423   0.931   1.176
  122fsi     O3 1596   1.441   1.034   1.077
  122fsi     O4 1597   1.286   0.910   1.219
  122fsi     F2 1598   1.507   0.800   1.155
  123fsi     F1 1599   1.707   2.654   1.124
  123fsi     S1 1600   1.673   2.787   1.047
  123fsi      N 1601   1.682   2.747   0.903
  123fsi     O1 1602   1.539   2.820   1.091
  123fsi     O2 1603   1.774   2.880   1.090
  123fsi     S2 1604   1.561   2.694   0.831
  123fsi     O3 1605   1.487   2.632   0.938
  123fsi     O4 1606   1.618   2.605   0.734
  123fsi     F2 1607   1.496   2.825   0.772
  124fsi     F1 1608   2.713   1.699   1.043
  124fsi     S1 1609   2.844   1.682   1.130
  124fsi      N 1610   2.881   1.823   1.162
  124fsi     O1 1611   2.801   1.603   1.242
  124fsi     O2 1612   2.936   1.614   1.041
  124fsi     S2 1613   2.827   1.888   1.287
  124fsi     O3 1614   2.700   1.822   1.304
  124fsi     O4 1615   2.820   2.027   1.249
  124fsi     F2 1616   2.937   1.853   1.395
  125fsi     F1 1617   2.367   0.293   1.377
  125fsi     S1 1618   2.375   0.286   1.219
  125fsi      N 1619   2.327   0.421   1.177
  125fsi     O1 1620   2.515   0.260   1.193
  125fsi     O2 1621   2.287   0.177   1.185
  125fsi     S2 1622   2.425   0.534   1.160
  125fsi     O3 1623   2.528   0.501   1.256
  125fsi     O4 1624   2.345   0.650   1.192
  125fsi     F2 1625   2.468   0.521   1.009
  126fsi     F1 1626   2.861   0.677   2.307
  126fsi     S1 1627   2.853   0.771   2.433
  126fsi      N 1628   2.707   0.804   2.441
  126fsi     O1 1629   2.902   0.689   2.541
  126fsi     O2 1630   2.938   0.882   2.400
  126fsi     S2 1631   2.614   0.716   2.520
  126fsi     O3 1632   2.677   0.587   2.510
  126fsi     O4 1633   2.489   0.730   2.450
  126fsi     F2 1634   2.618   0.782   2.663
  127fsi     F1 1635   0.325   1.982   1.994
  127fsi     S1 1636   0.355   2.004   1.841
  127fsi      N 1637   0.499   2.045   1.839
  127fsi     O1 1638   0.328   1.876   1.781
  127fsi     O2 1639   0.263   2.108   1.802
  127fsi     S2 1640   0.606   1.941   1.828
  127fsi     O3 1641   0.546   1.826   1.891
  127fsi     O4 1642   0.716   2.000   1.900
  127fsi     F2 1643   0.627   1.928   1.672
  128fsi     F1 1644   2.881   1.671   2.276
  128fsi     S1 1645   2.837   1.707   2.423
  128fsi      N 1646   2.700   1.646   2.433
  128fsi     O1 1647   2.937   1.643   2.506
  128fsi     O2 1648   2.839   1.851   2.427
  128fsi     S2 1649   2.684   1.504   2.481
  128fsi     O3 1650   2.807   1.442   2.437
  128fsi     O4 1651   2.565   1.461   2.412
  128fsi     F2 1652   2.669   1.521   2.637
  129fsi     F1 1653   0.433   0.933   2.203
  129fsi     S1 1654   0.347   0.923   2.071
  129fsi      N 1655   0.230   1.012   2.101
  129fsi     O1 1656   0.435   0.972   1.968
  129fsi     O2 1657   0.316   0.783   2.061
  129fsi     S2 1658   0.235   1.157   2.066
  129fsi     O3 1659   0.376   1.188   2.078
  129fsi     O4 1660   0.150   1.217   2.166
  129fsi     F2 1661   0.178   1.161   1.919
  130fsi     F1 1662   0.204   2.780   1.123
  130fsi     S1 1663   0.226   2.624   1.131
  130fsi      N 1664   0.375   2.612   1.146
  130fsi     O1 1665   0.150   2.584   1.247
  130fsi     O2 1666   0.174   2.575   1.006
  130fsi     S2 1667   0.436   2.610   1.283
  130fsi     O3 1668   0.344   2.691   1.360
  130fsi     O4 1669   0.566   2.669   1.260
  130fsi     F2 1670   0.437   2.457   1.320
  131fsi     F1 1671   2.668   1.275   2.466
  131fsi     S1 1672   2.767   1.159   2.425
  131fsi      N 1673   2.876   1.170   2.528
  131fsi     O1 1674   2.687   1.039   2.434
  131fsi     O2 1675   2.807   1.194   2.291
  131fsi     S2 1676   2.865   1.092   2.656
  131fsi     O3 1677   2.723   1.084   2.676
  131fsi     O4 1678   2.936   1.176   2.749
  131fsi     F2 1679   2.936   0.956   2.620
  132fsi     F1 1680   0.798   2.290   0.345
  132fsi     S1 1681   0.680   2.244   0.438
  132fsi      N 1682   0.560   2.307   0.375
  132fsi     O1 1683   0.684   2.100   0.430
  132fsi     O2 1684   0.715   2.296   0.568
  132fsi     S2 1685   0.483   2.233   0.269
  132fsi     O3 1686   0.585   2.152   0.207
  132fsi     O4 1687   0.431   2.340   0.188
  132fsi     F2 1688   0.375   2.154   0.353
  133fsi     F1 1689   0.373   1.763   2.595
  133fsi     S1 1690   0.517   1.722   2.641
  133fsi      N 1691   0.495   1.664   2.778
  133fsi     O1 1692   0.560   1.626   2.542
  133fsi     O2 1693   0.591   1.846   2.639
  133fsi     S2 1694   0.467   1.518   2.794
  133fsi     O3 1695   0.400   1.485   2.670
  133fsi     O4 1696   0.384   1.514   2.912
  133fsi     F2 1697   0.610   1.456   2.811
  134fsi     F1 1698   2.294   1.355   2.032
  134fsi     S1 1699   2.426   1.437   2.007
  134fsi      N 1700   2.391   1.574   2.056
  134fsi     O1 1701   2.525   1.368   2.085
  134fsi     O2 1702   2.447   1.427   1.864
  134fsi     S2 1703   2.416   1.611   2.199
  134fsi     O3 1704   2.401   1.484   2.267
  134fsi     O4 1705   2.312   1.707   2.225
  134fsi     F2 1706   2.562   1.668   2.196
  135fsi     F1 1707   2.309   0.510   1.680
  135fsi     S1 1708   2.300   0.665   1.705
  135fsi      N 1709   2.426   0.695   1.782
  135fsi     O1 1710   2.296   0.722   1.572
  135fsi     O2 1711   2.178   0.682   1.780
  135fsi     S2 1712   2.552   0.731   1.709
  135fsi     O3 1713   2.537   0.660   1.584
  135fsi     O4 1714   2.655   0.681   1.796
  135fsi     F2 1715   2.543   0.888   1.698
  136fsi     F1 1716   2.194   1.540   1.964
  136fsi     S1 1717   2.147   1.688   1.942
  136fsi      N 1718   2.005   1.686   1.992
  136fsi     O1 1719   2.238   1.767   2.021
  136fsi     O2 1720   2.159   1.708   1.799
  136fsi     S2 1721   1.977   1.716   2.136
  136fsi     O3 1722   2.097   1.671   2.203
  136fsi     O4 1723   1.858   1.638   2.162
  136fsi     F2 1724   1.956   1.872   2.136
  137fsi     F1 1725   2.148   2.714   1.576
  137fsi     S1 1726   2.268   2.719   1.475
  137fsi      N 1727   2.202   2.686   1.344
  137fsi     O1 1728   2.317   2.854   1.485
  137fsi     O2 1729   2.359   2.618   1.523
  137fsi     S2 1730   2.147   2.797   1.258
  137fsi     O3 1731   2.109   2.896   1.355
  137fsi     O4 1732   2.038   2.732   1.190
  137fsi     F2 1733   2.270   2.835   1.167
  138fsi     F1 1734   1.906   0.159   2.208
  138fsi     S1 1735   2.027   0.214   2.292
  138fsi      N 1736   2.019   0.362   2.270
  138fsi     O1 1737   1.998   0.172   2.428
  138fsi     O2 1738   2.143   0.150   2.234
  138fsi     S2 1739   1.938   0.448   2.362
  138fsi     O3 1740   1.834   0.358   2.405
  138fsi     O4 1741   1.895   0.555   2.276
  138fsi     F2 1742   2.042   0.489   2.473
  139fsi     F1 1743   2.238   1.137   1.978
  139fsi     S1 1744   2.101   1.141   2.055
  139fsi      N 1745   2.120   1.040   2.164
  139fsi     O1 1746   2.090   1.277   2.101
  139fsi     O2 1747   2.003   1.104   1.955
  139fsi     S2 1748   2.176   1.082   2.296
  139fsi     O3 1749   2.261   1.193   2.261
  139fsi     O4 1750   2.245   0.964   2.341
  139fsi     F2 1751   2.047   1.120   2.379
  140fsi     F1 1752   0.536   1.410   1.998
  140fsi     S1 1753   0.692   1.392   1.990
  140fsi      N 1754   0.744   1.532   2.004
  140fsi     O1 1755   0.724   1.304   2.100
  140fsi     O2 1756   0.714   1.333   1.860
  140fsi     S2 1757   0.774   1.587   2.141
  140fsi     O3 1758   0.681   1.516   2.225
  140fsi     O4 1759   0.748   1.728   2.124
  140fsi     F2 1760   0.925   1.548   2.161
  141fsi     F1 1761   2.183   2.553   2.277
  141fsi     S1 1762   2.338   2.584   2.274
  141fsi      N 1763   2.376   2.579   2.419
  141fsi     O1 1764   2.393   2.479   2.193
  141fsi     O2 1765   2.346   2.715   2.214
  141fsi     S2 1766   2.421   2.450   2.480
  141fsi     O3 1767   2.348   2.352   2.403
  141fsi     O4 1768   2.378   2.464   2.618
  141fsi     F2 1769   2.576   2.451   2.457
  142fsi     F1 1770   2.189   1.978   1.285
  142fsi     S1 1771   2.150   2.128   1.314
  142fsi      N 1772   2.265   2.205   1.255
  142fsi     O1 1773   2.024   2.145   1.245
  142fsi     O2 1774   2.141   2.135   1.458
  142fsi     S2 1775   2.260   2.249   1.112
  142fsi     O3 1776   2.179   2.146   1.050
  142fsi     O4 1777   2.399   2.249   1.074
  142fsi     F2 1778   2.193   2.391   1.120
  143fsi     F1 1779   1.874   2.235   2.630
  143fsi     S1 1780   1.850   2.325   2.757
  143fsi      N 1781   1.980   2.400   2.770
  143fsi     O1 1782   1.737   2.407   2.721
  143fsi     O2 1783   1.824   2.230   2.862
  143fsi     S2 1784   1.997   2.532   2.700
  143fsi     O3 1785   1.913   2.518   2.584
  143fsi     O4 1786   2.139   2.534   2.674
  143fsi     F2 1787   1.947   2.635   2.808
  144fsi     F1 1788   0.531   1.961   1.425
  144fsi     S1 1789   0.504   2.109   1.471
  144fsi      N 1790   0.370   2.139   1.409
  144fsi     O1 1791   0.503   2.101   1.615
  144fsi     O2 1792   0.614   2.184   1.416
  144fsi     S2 1793   0.244   2.110   1.485
  144fsi     O3 1794   0.282   1.997   1.566
  144fsi     O4 1795   0.150   2.082   1.379
  144fsi     F2 1796   0.218   2.244   1.564
  145fsi     F1 1797   0.586   2.271   1.728
  145fsi     S1 1798   0.657   2.402   1.677
  145fsi      N 1799   0.800   2.379   1.715
  145fsi     O1 1800   0.632   2.403   1.535
  145fsi     O2 1801   0.592   2.508   1.750
  145fsi     S2 1802   0.894   2.311   1.620
  145fsi     O3 1803   0.805   2.224   1.546
  145fsi     O4 1804   0.987   2.244   1.707
  145fsi     F2 1805   0.953   2.431   1.537
  146fsi     F1 1806   2.143   2.157   0.765
  146fsi     S1 1807   2.210   2.124   0.626
  146fsi      N 1808   2.288   2.000   0.655
  146fsi     O1 1809   2.098   2.106   0.536
  146fsi     O2 1810   2.290   2.241   0.598
  146fsi     S2 1811   2.224   1.865   0.636
  146fsi     O3 1812   2.085   1.892   0.663
  146fsi     O4 1813   2.292   1.784   0.735
  146fsi     F2 1814   2.258   1.830   0.486
  147fsi     F1 1815   1.239   0.814   1.027
  147fsi     S1 1816   1.229   0.657   1.035
  147fsi      N 1817   1.349   0.619   1.116
  147fsi     O1 1818   1.103   0.633   1.100
  147fsi     O2 1819   1.234   0.614   0.897
  147fsi     S2 1820   1.339   0.611   1.266
  147fsi     O3 1821   1.237   0.708   1.296
  147fsi     O4 1822   1.472   0.646   1.309
  147fsi     F2 1823   1.298   0.461   1.290
  148fsi     F1 1824   0.542   2.872   0.301
  148fsi     S1 1825   0.632   2.743   0.292
  148fsi      N 1826   0.759   2.787   0.358
  148fsi     O1 1827   0.558   2.643   0.364
  148fsi     O2 1828   0.643   2.718   0.150
  148fsi     S2 1829   0.777   2.768   0.506
  148fsi     O3 1830   0.642   2.778   0.555
  148fsi     O4 1831   0.864   2.877   0.541
  148fsi     F2 1832   0.841   2.624   0.516
  149fsi     F1 1833   0.633   1.186   0.755
  149fsi     S1 1834   0.495   1.259   0.775
  149fsi      N 1835   0.535   1.388   0.841
  149fsi     O1 1836   0.443   1.273   0.642
  149fsi     O2 1837   0.420   1.169   0.860
  149fsi     S2 1838   0.567   1.508   0.757
  149fsi     O3 1839   0.619   1.449   0.636
  149fsi     O4 1840   0.664   1.579   0.838
  149fsi     F2 1841   0.428   1.579   0.742
  150fsi     F1 1842   1.817   1.191   0.555
  150fsi     S1 1843   1.693   1.231   0.467
  150fsi      N 1844   1.600   1.295   0.566
  150fsi     O1 1845   1.748   1.322   0.369
  150fsi     O2 1846   1.647   1.106   0.413
  150fsi     S2 1847   1.608   1.442   0.592
  150fsi     O3 1848   1.747   1.471   0.568
  150fsi     O4 1849   1.566   1.452   0.730
  150fsi     F2 1850   1.508   1.502   0.486
  151fsi     F1 1851   2.582   2.752   0.452
  151fsi     S1 1852   2.586   2.808   0.599
  151fsi      N 1853   2.646   2.695   0.677
  151fsi     O1 1854   2.669   2.926   0.590
  151fsi     O2 1855   2.447   2.836   0.629
  151fsi     S2 1856   2.795   2.687   0.694
  151fsi     O3 1857   2.844   2.750   0.574
  151fsi     O4 1858   2.818   2.545   0.704
  151fsi     F2 1859   2.819   2.768   0.827
  152fsi     F1 1860   1.808   0.414   1.952
  152fsi     S1 1861   1.895   0.387   1.823
  152fsi      N 1862   2.028   0.346   1.881
  152fsi     O1 1863   1.825   0.282   1.754
  152fsi     O2 1864   1.896   0.513   1.754
  152fsi     S2 1865   2.056   0.201   1.910
  152fsi     O3 1866   1.924   0.150   1.941
  152fsi     O4 1867   2.147   0.209   2.022
  152fsi     F2 1868   2.118   0.149   1.775
  153fsi     F1 1869   1.724   2.063   2.555
  153fsi     S1 1870   1.601   2.085   2.459
  153fsi      N 1871   1.651   2.033   2.327
  153fsi     O1 1872   1.496   2.005   2.519
  153fsi     O2 1873   1.577   2.227   2.464
  153fsi     S2 1874   1.632   1.889   2.291
  153fsi     O3 1875   1.635   1.824   2.420
  153fsi     O4 1876   1.745   1.863   2.206
  153fsi     F2 1877   1.492   1.889   2.218
  154fsi     F1 1878   0.918   2.375   2.152
  154fsi     S1 1879   0.983   2.317   2.020
  154fsi      N 1880   1.065   2.202   2.071
  154fsi     O1 1881   0.869   2.279   1.939
  154fsi     O2 1882   1.059   2.427   1.967
  154fsi     S2 1883   1.005   2.065   2.082
  154fsi     O3 1884   0.865   2.094   2.107
  154fsi     O4 1885   1.077   2.008   2.193
  154fsi     F2 1886   1.036   2.002   1.941
  155fsi     F1 1887   1.375   1.604   0.629
  155fsi     S1 1888   1.395   1.755   0.588
  155fsi      N 1889   1.486   1.807   0.696
  155fsi     O1 1890   1.455   1.748   0.457
  155fsi     O2 1891   1.262   1.810   0.590
  155fsi     S2 1892   1.635   1.800   0.679
  155fsi     O3 1893   1.651   1.683   0.597
  155fsi     O4 1894   1.681   1.787   0.815
  155fsi     F2 1895   1.668   1.937   0.609
  156fsi     F1 1896   0.548   0.912   2.415
  156fsi     S1 1897   0.515   0.776   2.487
  156fsi      N 1898   0.367   0.764   2.471
  156fsi     O1 1899   0.592   0.678   2.414
  156fsi     O2 1900   0.560   0.797   2.623
  156fsi     S2 1901   0.310   0.695   2.351
  156fsi     O3 1902   0.409   0.720   2.250
  156fsi     O4 1903   0.184   0.763   2.333
  156fsi     F2 1904   0.299   0.545   2.399
  157fsi     F1 1905   1.134   1.447   1.802
  157fsi     S1 1906   1.229   1.484   1.681
  157fsi      N 1907   1.137   1.477   1.563
  157fsi     O1 1908   1.277   1.616   1.713
  157fsi     O2 1909   1.330   1.381   1.684
  157fsi     S2 1910   1.062   1.600   1.519
  157fsi     O3 1911   1.045   1.672   1.643
  157fsi     O4 1912   0.942   1.545   1.462
  157fsi     F2 1913   1.161   1.667   1.417
  158fsi     F1 1914   1.714   2.152   2.138
  158fsi     S1 1915   1.867   2.122   2.158
  158fsi      N 1916   1.925   2.257   2.184
  158fsi     O1 1917   1.870   2.032   2.272
  158fsi     O2 1918   1.908   2.061   2.034
  158fsi     S2 1919   1.934   2.309   2.325
  158fsi     O3 1920   1.821   2.246   2.389
  158fsi     O4 1921   1.923   2.452   2.306
  158fsi     F2 1922   2.076   2.259   2.372
  159fsi     F1 1923   1.426   2.936   2.241
  159fsi     S1 1924   1.294   2.861   2.200
  159fsi      N 1925   1.295   2.869   2.050
  159fsi     O1 1926   1.311   2.728   2.254
  159fsi     O2 1927   1.189   2.938   2.264
  159fsi     S2 1928   1.361   2.761   1.970
  159fsi     O3 1929   1.465   2.715   2.059
  159fsi     O4 1930   1.406   2.832   1.853
  159fsi     F2 1931   1.244   2.658   1.946
  160fsi     F1 1932   1.460   1.521   2.422
  160fsi     S1 1933   1.428   1.579   2.280
  160fsi      N 1934   1.291   1.638   2.298
  160fsi     O1 1935   1.533   1.676   2.257
  160fsi     O2 1936   1.433   1.464   2.193
  160fsi     S2 1937   1.276   1.781   2.341
  160fsi     O3 1938   1.394   1.803   2.421
  160fsi     O4 1939   1.152   1.779   2.414
  160fsi     F2 1940   1.273   1.859   2.204
  161fsi     F1 1941   1.575   2.155   1.858
  161fsi     S1 1942   1.510   2.055   1.755
  161fsi      N 1943   1.509   1.925   1.830
  161fsi     O1 1944   1.379   2.111   1.730
  161fsi     O2 1945   1.599   2.058   1.641
  161fsi     S2 1946   1.391   1.888   1.915
  161fsi     O3 1947   1.342   2.016   1.957
  161fsi     O4 1948   1.451   1.807   2.018
  161fsi     F2 1949   1.298   1.810   1.814
  162fsi     F1 1950   2.237   0.542   1.007
  162fsi     S1 1951   2.116   0.623   0.948
  162fsi      N 1952   2.183   0.728   0.865
  162fsi     O1 1953   2.042   0.525   0.873
  162fsi     O2 1954   2.047   0.673   1.064
  162fsi     S2 1955   2.214   0.702   0.721
  162fsi     O3 1956   2.235   0.559   0.719
  162fsi     O4 1957   2.332   0.781   0.698
  162fsi     F2 1958   2.084   0.752   0.647
  163fsi     F1 1959   1.369   1.613   1.465
  163fsi     S1 1960   1.428   1.468   1.445
  163fsi      N 1961   1.309   1.380   1.465
  163fsi     O1 1962   1.480   1.469   1.310
  163fsi     O2 1963   1.529   1.457   1.547
  163fsi     S2 1964   1.222   1.342   1.349
  163fsi     O3 1965   1.236   1.457   1.261
  163fsi     O4 1966   1.092   1.326   1.409
  163fsi     F2 1967   1.289   1.210   1.296
  164fsi     F1 1968   2.667   2.573   1.747
  164fsi     S1 1969   2.728   2.532   1.886
  164fsi      N 1970   2.685   2.644   1.976
  164fsi     O1 1971   2.666   2.405   1.915
  164fsi     O2 1972   2.870   2.525   1.861
  164fsi     S2 1973   2.555   2.636   2.049
  164fsi     O3 1974   2.474   2.556   1.961
  164fsi     O4 1975   2.516   2.774   2.061
  164fsi     F2 1976   2.595   2.566   2.185
  165fsi     F1 1977   1.823   1.230   1.111
  165fsi     S1 1978   1.741   1.351   1.055
  165fsi      N 1979   1.671   1.404   1.176
  165fsi     O1 1980   1.841   1.439   1.000
  165fsi     O2 1981   1.654   1.292   0.956
  165fsi     S2 1982   1.736   1.509   1.261
  165fsi     O3 1983   1.877   1.481   1.243
  165fsi     O4 1984   1.684   1.482   1.392
  165fsi     F2 1985   1.686   1.643   1.195
  166fsi     F1 1986   2.941   0.491   2.628
  166fsi     S1 1987   2.805   0.414   2.642
  166fsi      N 1988   2.767   0.386   2.500
  166fsi     O1 1989   2.838   0.296   2.719
  166fsi     O2 1990   2.719   0.507   2.711
  166fsi     S2 1991   2.812   0.260   2.433
  166fsi     O3 1992   2.937   0.232   2.500
  166fsi     O4 1993   2.823   0.299   2.295
  166fsi     F2 1994   2.695   0.159   2.465
  167fsi     F1 1995   1.288   0.841   1.565
  167fsi     S1 1996   1.260   0.995   1.547
  167fsi      N 1997   1.348   1.058   1.651
  167fsi     O1 1998   1.299   1.022   1.411
  167fsi     O2 1999   1.119   1.008   1.572
  167fsi     S2 2000   1.489   1.097   1.616
  167fsi     O3 2001   1.524   1.001   1.515
  167fsi     O4 2002   1.558   1.083   1.742
  167fsi     F2 2003   1.473   1.245   1.565
  168fsi     F1 2004   2.118   1.125   1.556
  168fsi     S1 2005   2.092   1.267   1.618
  168fsi      N 2006   2.222   1.298   1.686
  168fsi     O1 2007   2.062   1.351   1.505
  168fsi     O2 2008   1.981   1.246   1.708
  168fsi     S2 2009   2.330   1.370   1.611
  168fsi     O3 2010   2.308   1.328   1.475
  168fsi     O4 2011   2.450   1.319   1.673
  168fsi     F2 2012   2.299   1.521   1.641
  169fsi     F1 2013   2.395   2.685   0.781
  169fsi     S1 2014   2.323   2.557   0.724
  169fsi      N 2015   2.424   2.449   0.748
  169fsi     O1 2016   2.202   2.546   0.801
  169fsi     O2 2017   2.302   2.589   0.584
  169fsi     S2 2018   2.421   2.372   0.877
  169fsi     O3 2019   2.368   2.468   0.970
  169fsi     O4 2020   2.559   2.337   0.896
  169fsi     F2 2021   2.325   2.251   0.844
  170fsi     F1 2022   2.728   1.944   2.592
  170fsi     S1 2023   2.797   2.084   2.570
  170fsi      N 2024   2.683   2.171   2.526
  170fsi     O1 2025   2.851   2.117   2.700
  170fsi     O2 2026   2.897   2.059   2.469
  170fsi     S2 2027   2.602   2.246   2.627
  170fsi     O3 2028   2.610   2.160   2.743
  170fsi     O4 2029   2.472   2.253   2.564
  170fsi     F2 2030   2.678   2.383   2.640
  171fsi     F1 2031   1.401   0.380   2.028
  171fsi     S1 2032   1.551   0.416   1.997
  171fsi      N 2033   1.602   0.465   2.129
  171fsi     O1 2034   1.609   0.291   1.952
  171fsi     O2 2035   1.542   0.517   1.894
  171fsi     S2 2036   1.663   0.368   2.226
  171fsi     O3 2037   1.593   0.246   2.197
  171fsi     O4 2038   1.632   0.428   2.354
  171fsi     F2 2039   1.816   0.370   2.187
  172fsi     F1 2040   0.763   1.512   1.740
  172fsi     S1 2041   0.687   1.644   1.778
  172fsi      N 2042   0.678   1.716   1.646
  172fsi     O1 2043   0.560   1.599   1.830
  172fsi     O2 2044   0.772   1.708   1.875
  172fsi     S2 2045   0.559   1.694   1.556
  172fsi     O3 2046   0.522   1.558   1.588
  172fsi     O4 2047   0.616   1.713   1.425
  172fsi     F2 2048   0.458   1.804   1.603
  173fsi     F1 2049   0.457   2.195   2.088
  173fsi     S1 2050   0.593   2.116   2.104
  173fsi      N 2051   0.619   2.125   2.251
  173fsi     O1 2052   0.562   1.984   2.056
  173fsi     O2 2053   0.686   2.189   2.022
  173fsi     S2 2054   0.566   2.019   2.343
  173fsi     O3 2055   0.445   1.976   2.276
  173fsi     O4 2056   0.545   2.092   2.466
  173fsi     F2 2057   0.682   1.913   2.347
  174fsi     F1 2058   0.891   0.667   1.947
  174fsi     S1 2059   0.881   0.686   1.791
  174fsi      N 2060   1.019   0.730   1.754
  174fsi     O1 2061   0.843   0.555   1.742
  174fsi     O2 2062   0.779   0.787   1.775
  174fsi     S2 2063   1.123   0.628   1.717
  174fsi     O3 2064   1.083   0.513   1.795
  174fsi     O4 2065   1.245   0.691   1.758
  174fsi     F2 2066   1.104   0.612   1.561
  175fsi     F1 2067   0.543   1.745   1.029
  175fsi     S1 2068   0.399   1.791   0.987
  175fsi      N 2069   0.334   1.826   1.118
  175fsi     O1 2070   0.422   1.905   0.900
  175fsi     O2 2071   0.342   1.676   0.920
  175fsi     S2 2072   0.345   1.965   1.173
  175fsi     O3 2073   0.472   2.010   1.120
  175fsi     O4 2074   0.341   1.943   1.315
  175fsi     F2 2075   0.219   2.036   1.112
  176fsi     F1 2076   0.446   0.625   0.380
  176fsi     S1 2077   0.589   0.689   0.364
  176fsi      N 2078   0.678   0.569   0.355
  176fsi     O1 2079   0.579   0.767   0.243
  176fsi     O2 2080   0.606   0.767   0.484
  176fsi     S2 2081   0.709   0.509   0.221
  176fsi     O3 2082   0.590   0.538   0.145
  176fsi     O4 2083   0.729   0.370   0.252
  176fsi     F2 2084   0.838   0.587   0.176
  177fsi     F1 2085   1.944   0.150   0.472
  177fsi     S1 2086   2.035   0.278   0.475
  177fsi      N 2087   1.935   0.390   0.490
  177fsi     O1 2088   2.120   0.258   0.590
  177fsi     O2 2089   2.104   0.275   0.348
  177fsi     S2 2090   1.894   0.436   0.626
  177fsi     O3 2091   1.907   0.316   0.705
  177fsi     O4 2092   1.759   0.482   0.605
  177fsi     F2 2093   1.999   0.549   0.658
  178fsi     F1 2094   2.125   0.428   2.088
  178fsi     S1 2095   2.223   0.520   2.007
  178fsi      N 2096   2.175   0.658   2.041
  178fsi     O1 2097   2.353   0.487   2.058
  178fsi     O2 2098   2.201   0.481   1.869
  178fsi     S2 2099   2.233   0.730   2.159
  178fsi     O3 2100   2.266   0.622   2.249
  178fsi     O4 2101   2.123   0.814   2.202
  178fsi     F2 2102   2.356   0.807   2.098
  179fsi     F1 2103   1.478   1.900   1.547
  179fsi     S1 2104   1.498   1.960   1.403
  179fsi      N 2105   1.357   1.974   1.353
  179fsi     O1 2106   1.567   2.084   1.425
  179fsi     O2 2107   1.576   1.860   1.334
  179fsi     S2 2108   1.282   2.102   1.378
  179fsi     O3 2109   1.339   2.149   1.502
  179fsi     O4 2110   1.145   2.057   1.386
  179fsi     F2 2111   1.316   2.188   1.251
  180fsi     F1 2112   1.711   0.276   0.507
  180fsi     S1 2113   1.578   0.239   0.430
  180fsi      N 2114   1.529   0.373   0.381
  180fsi     O1 2115   1.622   0.150   0.326
  180fsi     O2 2116   1.495   0.177   0.530
  180fsi     S2 2117   1.573   0.424   0.247
  180fsi     O3 2118   1.704   0.366   0.232
  180fsi     O4 2119   1.571   0.567   0.266
  180fsi     F2 2120   1.463   0.368   0.150
  181fsi     F1 2121   1.033   1.814   0.689
  181fsi     S1 2122   1.023   1.673   0.621
  181fsi      N 2123   0.882   1.630   0.650
  181fsi     O1 2124   1.050   1.700   0.481
  181fsi     O2 2125   1.125   1.595   0.687
  181fsi     S2 2126   0.772   1.666   0.554
  181fsi     O3 2127   0.818   1.790   0.497
  181fsi     O4 2128   0.657   1.677   0.641
  181fsi     F2 2129   0.770   1.543   0.456
  182fsi     F1 2130   0.928   2.649   1.523
  182fsi     S1 2131   1.056   2.740   1.513
  182fsi      N 2132   1.097   2.725   1.370
  182fsi     O1 2133   1.010   2.871   1.549
  182fsi     O2 2134   1.148   2.681   1.608
  182fsi     S2 2135   1.044   2.820   1.266
  182fsi     O3 2136   0.914   2.855   1.320
  182fsi     O4 2137   1.041   2.738   1.147
  182fsi     F2 2138   1.150   2.936   1.266
  183fsi     F1 2139   1.442   0.338   1.816
  183fsi     S1 2140   1.337   0.235   1.759
  183fsi      N 2141   1.286   0.167   1.883
  183fsi     O1 2142   1.240   0.317   1.691
  183fsi     O2 2143   1.415   0.150   1.672
  183fsi     S2 2144   1.167   0.222   1.955
  183fsi     O3 2145   1.177   0.364   1.927
  183fsi     O4 2146   1.192   0.184   2.092
  183fsi     F2 2147   1.046   0.149   1.886
  184fsi     F1 2148   1.196   2.526   2.632
  184fsi     S1 2149   1.138   2.380   2.645
  184fsi      N 2150   1.259   2.297   2.673
  184fsi     O1 2151   1.045   2.389   2.755
  184fsi     O2 2152   1.076   2.355   2.517
  184fsi     S2 2153   1.304   2.274   2.814
  184fsi     O3 2154   1.260   2.394   2.881
  184fsi     O4 2155   1.447   2.260   2.800
  184fsi     F2 2156   1.227   2.142   2.854
  185fsi     F1 2157   1.067   2.584   0.831
  185fsi     S1 2158   0.942   2.626   0.745
  185fsi      N 2159   0.853   2.693   0.846
  185fsi     O1 2160   0.996   2.714   0.644
  185fsi     O2 2161   0.891   2.501   0.693
  185fsi     S2 2162   0.865   2.840   0.870
  185fsi     O3 2163   1.005   2.866   0.842
  185fsi     O4 2164   0.827   2.853   1.008
  185fsi     F2 2165   0.764   2.901   0.766
  186fsi     F1 2166   0.993   0.431   2.266
  186fsi     S1 2167   1.025   0.311   2.362
  186fsi      N 2168   1.144   0.247   2.297
  186fsi     O1 2169   1.053   0.374   2.489
  186fsi     O2 2170   0.905   0.231   2.360
  186fsi     S2 2171   1.283   0.291   2.334
  186fsi     O3 2172   1.264   0.430   2.368
  186fsi     O4 2173   1.357   0.267   2.212
  186fsi     F2 2174   1.320   0.196   2.454
  187fsi     F1 2175   1.238   1.049   0.319
  187fsi     S1 2176   1.373   1.017   0.244
  187fsi      N 2177   1.409   1.149   0.182
  187fsi     O1 2178   1.463   0.974   0.349
  187fsi     O2 2179   1.338   0.914   0.150
  187fsi     S2 2180   1.493   1.247   0.257
  187fsi     O3 2181   1.459   1.219   0.394
  187fsi     O4 2182   1.446   1.374   0.206
  187fsi     F2 2183   1.640   1.208   0.214
  188fsi     F1 2184   0.911   1.841   2.448
  188fsi     S1 2185   0.871   1.689   2.452
  188fsi      N 2186   1.003   1.619   2.433
  188fsi     O1 2187   0.812   1.672   2.583
  188fsi     O2 2188   0.779   1.674   2.343
  188fsi     S2 2189   1.086   1.583   2.553
  188fsi     O3 2190   1.052   1.686   2.647
  188fsi     O4 2191   1.220   1.589   2.500
  188fsi     F2 2192   1.035   1.438   2.589
  189fsi     F1 2193   1.578   0.880   2.447
  189fsi     S1 2194   1.606   1.027   2.400
  189fsi      N 2195   1.516   1.042   2.280
  189fsi     O1 2196   1.570   1.108   2.513
  189fsi     O2 2197   1.747   1.028   2.369
  189fsi     S2 2198   1.376   1.092   2.298
  189fsi     O3 2199   1.343   1.046   2.431
  189fsi     O4 2200   1.306   1.027   2.191
  189fsi     F2 2201   1.392   1.248   2.283
  190fsi     F1 2202   1.988   2.936   0.721
  190fsi     S1 2203   1.972   2.780   0.706
  190fsi      N 2204   2.076   2.726   0.799
  190fsi     O1 2205   1.835   2.755   0.745
  190fsi     O2 2206   1.998   2.755   0.566
  190fsi     S2 2207   2.040   2.699   0.943
  190fsi     O3 2208   1.937   2.796   0.969
  190fsi     O4 2209   2.165   2.721   1.011
  190fsi     F2 2210   1.991   2.549   0.939
  191fsi     F1 2211   2.339   0.149   2.334
  191fsi     S1 2212   2.418   0.203   2.209
  191fsi      N 2213   2.408   0.352   2.224
  191fsi     O1 2214   2.550   0.149   2.225
  191fsi     O2 2215   2.345   0.149   2.096
  191fsi     S2 2216   2.513   0.426   2.301
  191fsi     O3 2217   2.556   0.328   2.398
  191fsi     O4 2218   2.440   0.538   2.355
  191fsi     F2 2219   2.619   0.462   2.190
  192fsi     F1 2220   1.284   0.164   2.701
  192fsi     S1 2221   1.219   0.308   2.706
  192fsi      N 2222   1.072   0.278   2.723
  192fsi     O1 2223   1.281   0.371   2.820
  192fsi     O2 2224   1.253   0.367   2.579
  192fsi     S2 2225   1.014   0.265   2.861
  192fsi     O3 2226   1.126   0.215   2.938
  192fsi     O4 2227   0.906   0.171   2.841
  192fsi     F2 2228   0.970   0.412   2.894
  193fsi     F1 2229   1.878   2.591   1.245
  193fsi     S1 2230   1.955   2.512   1.359
  193fsi      N 2231   1.849   2.419   1.412
  193fsi     O1 2232   2.063   2.447   1.289
  193fsi     O2 2233   1.997   2.614   1.451
  193fsi     S2 2234   1.832   2.283   1.351
  193fsi     O3 2235   1.873   2.303   1.214
  193fsi     O4 2236   1.692   2.257   1.371
  193fsi     F2 2237   1.929   2.193   1.438
  194fsi     F1 2238   2.456   1.252   1.301
  194fsi     S1 2239   2.581   1.170   1.349
  194fsi      N 2240   2.637   1.116   1.221
  194fsi     O1 2241   2.664   1.268   1.415
  194fsi     O2 2242   2.526   1.070   1.438
  194fsi     S2 2243   2.740   1.195   1.145
  194fsi     O3 2244   2.705   1.331   1.178
  194fsi     O4 2245   2.714   1.155   1.008
  194fsi     F2 2246   2.876   1.144   1.206
  195fsi     F1 2247   2.071   0.913   2.760
  195fsi     S1 2248   2.019   0.931   2.612
  195fsi      N 2249   2.121   0.855   2.532
  195fsi     O1 2250   1.888   0.872   2.614
  195fsi     O2 2251   2.020   1.074   2.592
  195fsi     S2 2252   2.101   0.710   2.503
  195fsi     O3 2253   2.026   0.665   2.618
  195fsi     O4 2254   2.236   0.660   2.494
  195fsi     F2 2255   2.020   0.711   2.367
  196fsi     F1 2256   0.617   0.672   2.195
  196fsi     S1 2257   0.772   0.698   2.199
  196fsi      N 2258   0.794   0.749   2.339
  196fsi     O1 2259   0.830   0.569   2.171
  196fsi     O2 2260   0.793   0.797   2.095
  196fsi     S2 2261   0.825   0.652   2.449
  196fsi     O3 2262   0.756   0.533   2.407
  196fsi     O4 2263   0.770   0.717   2.565
  196fsi     F2 2264   0.983   0.643   2.446
  197fsi     F1 2265   1.056   1.158   0.782
  197fsi     S1 2266   0.936   1.254   0.748
  197fsi      N 2267   0.831   1.214   0.847
  197fsi     O1 2268   0.991   1.386   0.767
  197fsi     O2 2269   0.905   1.223   0.610
  197fsi     S2 2270   0.825   1.282   0.981
  197fsi     O3 2271   0.963   1.317   1.005
  197fsi     O4 2272   0.772   1.178   1.066
  197fsi     F2 2273   0.728   1.403   0.954
  198fsi     F1 2274   2.023   0.710   1.617
  198fsi     S1 2275   2.039   0.818   1.504
  198fsi      N 2276   1.902   0.879   1.498
  198fsi     O1 2277   2.141   0.906   1.554
  198fsi     O2 2278   2.077   0.743   1.388
  198fsi     S2 2279   1.868   0.997   1.583
  198fsi     O3 2280   1.952   0.977   1.699
  198fsi     O4 2281   1.726   0.980   1.606
  198fsi     F2 2282   1.907   1.120   1.492
  199fsi     F1 2283   2.724   0.978   1.414
  199fsi     S1 2284   2.679   0.841   1.478
  199fsi      N 2285   2.529   0.855   1.482
  199fsi     O1 2286   2.728   0.742   1.386
  199fsi     O2 2287   2.742   0.840   1.607
  199fsi     S2 2288   2.447   0.809   1.365
  199fsi     O3 2289   2.536   0.829   1.253
  199fsi     O4 2290   2.333   0.897   1.370
  199fsi     F2 2291   2.417   0.658   1.400
  200fsi     F1 2292   1.157   2.726   0.476
  200fsi     S1 2293   1.295   2.797   0.497
  200fsi      N 2294   1.374   2.754   0.377
  200fsi     O1 2295   1.262   2.938   0.501
  200fsi     O2 2296   1.343   2.744   0.622
  200fsi     S2 2297   1.370   2.837   0.251
  200fsi     O3 2298   1.238   2.895   0.257
  200fsi     O4 2299   1.390   2.738   0.148
  200fsi     F2 2300   1.489   2.938   0.271
   3.08570   3.08570   3.08570
