simbox
 2300
    1Li      Li    1   0.140   1.425   0.575  0.8939 -0.0443 -0.0522
    2Li      Li    2   0.890   0.956   0.785 -0.0842  0.0185 -1.4766
    3Li      Li    3   0.850   1.581   2.174  0.0738  0.3874 -0.4754
    4Li      Li    4   0.373   2.182   1.549  0.7182  0.0549  0.6161
    5Li      Li    5   2.393   2.057   1.302 -0.0391  0.6590 -0.0442
    6Li      Li    6   2.623   2.440   2.349 -1.3719  0.1591 -0.4262
    7Li      Li    7   0.889   0.338   2.482  0.2090  0.0054  0.4110
    8Li      Li    8   2.081   0.820   0.997 -0.0835 -0.2326  0.0930
    9Li      Li    9   2.082   0.722   0.383 -0.3068  0.0728  0.0056
   10Li      Li   10   0.750   1.748   1.762 -0.8013  0.7309 -0.6596
   11Li      Li   11   2.054   0.286   1.858 -0.4894  0.3027  0.5731
   12Li      Li   12   0.353   1.138   0.960  0.1189 -0.5825 -0.7382
   13Li      Li   13   0.853   0.039   1.780  0.5815  0.3042 -0.3576
   14Li      Li   14   2.284   2.641   0.375  0.5599 -0.5656  0.5922
   15Li      Li   15   1.682   3.005   1.492 -0.5344 -0.2045  0.2047
   16Li      Li   16   1.887   2.915   0.323 -0.0185 -0.5389  1.5656
   17Li      Li   17   0.679   1.800   2.504  0.0389  0.2551 -0.6131
   18Li      Li   18   1.822   1.339   2.092 -0.1623  0.6424 -1.0237
   19Li      Li   19   2.103   0.533   2.449  1.1301  0.9236  0.5188
   20Li      Li   20   0.390   1.831   0.161  0.8516  0.2613  0.2212
   21Li      Li   21   0.021   1.852   1.069  0.6569  1.1588  0.2017
   22Li      Li   22   1.828   2.223   1.691 -0.0555  0.0002 -0.4457
   23Li      Li   23   0.426   2.696   1.204 -0.2513  0.1555 -0.5415
   24Li      Li   24   1.150   1.836   1.503  0.0246 -0.1333  0.3933
   25Li      Li   25   1.287   1.276   1.241  0.6833 -0.3404 -0.0647
   26Li      Li   26   2.227   2.667   0.918 -0.3588 -1.4443 -0.3691
   27Li      Li   27   0.147   2.453   2.314  0.4900  0.5410  0.3463
   28Li      Li   28   0.756   2.323   0.446 -1.2124 -0.0460  0.6419
   29Li      Li   29   1.544   2.398   2.662 -0.2653 -0.2669  0.4385
   30Li      Li   30   1.591   1.059   0.181 -0.1065 -0.4160  0.5584
   31Li      Li   31   0.132   0.824   0.247  0.7551  0.3350  1.7422
   32Li      Li   32   2.753   2.680   0.025 -0.0589 -0.6263  1.8060
   33Li      Li   33   0.551   0.629   2.943 -0.4220 -1.3313  0.6031
   34Li      Li   34   1.055   0.721   1.914  1.0812  0.9481 -0.2515
   35Li      Li   35   2.224   0.856   1.522 -0.1580 -0.4760 -0.1955
   36Li      Li   36   1.301   1.333   1.843 -0.0690 -0.9819  0.0953
   37Li      Li   37   2.428   2.069   0.717 -0.8485  0.3475  0.5532
   38Li      Li   38   2.721   0.499   1.541  0.6639  1.0113 -0.5410
   39Li      Li   39   0.473   2.700   1.603 -0.9707 -0.8908  1.1597
   40Li      Li   40   0.135   2.348   1.721 -0.2449 -0.0400 -0.2555
   41Li      Li   41   1.617   1.285   0.767 -0.3079  0.4251  0.2650
   42Li      Li   42   1.886   2.679   1.936  0.7496  0.3696  0.2824
   43Li      Li   43   0.363   2.696   0.632 -0.2461  1.3481 -0.6115
   44Li      Li   44   1.680   2.903   2.967 -0.0801 -0.0231  1.3118
   45Li      Li   45   2.192   1.240   2.062 -0.6578  0.1611 -0.7619
   46Li      Li   46   2.861   2.162   1.276  0.8753  0.3940  1.3198
   47Li      Li   47   1.419   1.706   1.740 -0.3478  0.4286  0.3062
   48Li      Li   48   0.186   2.185   2.783  0.2895  0.6571 -0.1166
   49Li      Li   49   0.370   1.849   2.096  0.4076 -0.3372 -0.1858
   50Li      Li   50   1.928   1.045   2.651 -0.6777 -0.6950 -0.1985
   51c3c      N   51   2.903   1.568   2.370 -0.1109  0.6270 -0.2106
   51c3c     C1   52   2.999   1.485   2.294  0.1242 -0.2262 -0.5841
   51c3c     C2   53   2.977   1.573   2.503  0.0218  0.4644  0.1249
   51c3c     C3   54   3.144   1.518   2.340 -0.1613 -0.0168  0.3857
   51c3c     C4   55   3.129   1.577   2.476 -0.0543  0.4662 -0.4051
   51c3c     C5   56   2.899   1.705   2.319 -0.4193  0.1793 -0.1631
   51c3c     C6   57   2.762   1.526   2.380  0.1232  0.7015 -0.7162
   51c3c     H1   58   2.990   1.510   2.188 -0.3807 -0.5512 -0.6199
   51c3c     H2   59   2.982   1.378   2.302  1.8312 -0.4458  0.4502
   51c3c     H3   60   2.941   1.643   2.578  0.6870  0.8898  0.0476
   51c3c     H4   61   2.976   1.480   2.561  1.7303  1.4083  1.7397
   51c3c     H5   62   3.182   1.593   2.271  1.7323 -0.1652  1.2492
   51c3c     H6   63   3.193   1.421   2.341  0.3906  0.2667  0.7570
   51c3c     H7   64   3.154   1.683   2.477  0.1310  0.4217 -0.3300
   51c3c     H8   65   3.183   1.521   2.552 -3.5627  1.0547  2.6451
   51c3c     H9   66   2.856   1.713   2.219 -0.0707 -0.3316 -0.3552
   51c3c    H10   67   2.846   1.758   2.398  1.0380  1.5183 -0.0474
   51c3c    H11   68   2.998   1.751   2.316  0.3666 -1.3852  1.0133
   51c3c    H12   69   2.711   1.583   2.458  0.1142 -0.4449  0.1322
   51c3c    H13   70   2.715   1.537   2.282 -2.2059  2.9921  0.5975
   51c3c     C7   71   2.734   1.377   2.420 -0.8521  0.5069  0.0521
   51c3c    H14   72   2.768   1.358   2.521  1.6730  0.2836 -0.8119
   51c3c    H15   73   2.766   1.314   2.337  0.6902 -1.4810  2.0969
   51c3c     C8   74   2.582   1.361   2.416  0.4446  0.1819  0.6231
   51c3c    H16   75   2.553   1.258   2.441 -0.9268  0.5708  0.6885
   51c3c    H17   76   2.550   1.371   2.313 -0.5415 -2.2297  0.6411
   51c3c    H18   77   2.532   1.428   2.486  0.3447  1.7519 -0.9235
   52c3c      N   78   0.977   0.766   1.328 -0.7547 -0.2635  0.3024
   52c3c     C1   79   1.002   0.861   1.223  0.1816  0.5177 -0.7527
   52c3c     C2   80   1.009   0.635   1.260  0.0735 -0.1666  0.0174
   52c3c     C3   81   1.123   0.800   1.145 -0.2852  0.0956  0.5321
   52c3c     C4   82   1.141   0.657   1.195  0.1795 -0.2912 -0.5392
   52c3c     C5   83   1.067   0.802   1.439 -0.5848 -0.1733  0.0490
   52c3c     C6   84   0.843   0.781   1.382  0.3423 -0.1165 -0.1357
   52c3c     H1   85   1.022   0.966   1.248  1.6260  0.4663 -1.6066
   52c3c     H2   86   0.919   0.863   1.153 -0.5212 -0.8112  0.0282
   52c3c     H3   87   1.019   0.548   1.324 -0.0852 -1.2058 -1.3517
   52c3c     H4   88   0.932   0.616   1.185  1.1387  0.8774 -1.3806
   52c3c     H5   89   1.221   0.846   1.156  0.2740 -0.7377 -0.8552
   52c3c     H6   90   1.106   0.793   1.038  1.3080 -2.1520  0.3920
   52c3c     H7   91   1.216   0.652   1.274 -0.1857 -0.7689 -0.2152
   52c3c     H8   92   1.151   0.583   1.114 -0.2784 -1.3267  0.3369
   52c3c     H9   93   1.031   0.899   1.473  1.2713  1.0835 -1.4271
   52c3c    H10   94   1.057   0.742   1.529 -2.4981  1.4027  0.9258
   52c3c    H11   95   1.170   0.816   1.406 -0.8001  2.0109  0.2306
   52c3c    H12   96   0.839   0.729   1.478 -0.3864 -0.5519 -0.3983
   52c3c    H13   97   0.826   0.888   1.400  0.3781  0.0938 -1.2976
   52c3c     C7   98   0.728   0.713   1.299 -0.1140 -1.1806 -0.6139
   52c3c    H14   99   0.739   0.608   1.271 -1.0302 -1.3989 -0.1996
   52c3c    H15  100   0.700   0.775   1.214 -2.4310 -1.0824  0.1768
   52c3c     C8  101   0.601   0.727   1.382  0.4759 -0.7320  0.0979
   52c3c    H16  102   0.604   0.686   1.483 -1.8901  1.7566  1.2384
   52c3c    H17  103   0.507   0.679   1.354 -0.8394  2.3235 -0.9994
   52c3c    H18  104   0.580   0.834   1.389  0.2467 -0.9247  2.6132
   53c3c      N  105   2.650   1.133   0.441 -0.4054 -0.0402  0.4222
   53c3c     C1  106   2.573   1.259   0.449  0.0384  0.2279 -0.5230
   53c3c     C2  107   2.576   1.051   0.353 -0.3582  0.4634  0.1243
   53c3c     C3  108   2.504   1.283   0.318  0.4177  0.4593  0.5791
   53c3c     C4  109   2.525   1.150   0.246  0.1325  0.1326 -0.3808
   53c3c     C5  110   2.786   1.158   0.370  0.4868  0.2404 -0.4034
   53c3c     C6  111   2.682   1.073   0.566 -0.5048 -0.2145  0.7632
   53c3c     H1  112   2.643   1.336   0.481 -0.2086  0.1286  0.2814
   53c3c     H2  113   2.487   1.260   0.516 -1.4599 -1.3700 -2.3512
   53c3c     H3  114   2.621   0.960   0.313  0.9275  0.5207  1.3974
   53c3c     H4  115   2.487   1.018   0.406 -1.3548  1.0221 -1.1825
   53c3c     H5  116   2.555   1.357   0.256 -0.7791  0.3443 -0.5587
   53c3c     H6  117   2.400   1.308   0.340 -0.3201 -0.9165 -1.2184
   53c3c     H7  118   2.605   1.156   0.172  1.0464  2.2613  0.7285
   53c3c     H8  119   2.433   1.108   0.206 -0.0877 -1.5886  1.7989
   53c3c     H9  120   2.875   1.189   0.425  1.9944 -4.4668  0.0600
   53c3c    H10  121   2.831   1.065   0.333  0.6083 -0.0573  0.4816
   53c3c    H11  122   2.773   1.230   0.289 -1.3017 -0.1064 -0.4344
   53c3c    H12  123   2.714   0.971   0.545  1.5695  0.8541 -1.4399
   53c3c    H13  124   2.770   1.119   0.611  1.3525 -2.6360 -0.2687
   53c3c     C7  125   2.572   1.068   0.673  0.3174  0.4117  0.5928
   53c3c    H14  126   2.476   1.045   0.625  0.9804  2.3739 -1.8090
   53c3c    H15  127   2.556   1.166   0.717 -0.8899  0.7328 -0.5342
   53c3c     C8  128   2.589   0.962   0.784 -0.1159 -0.1262  0.0037
   53c3c    H16  129   2.673   0.991   0.848 -0.5058  2.3614 -0.5558
   53c3c    H17  130   2.624   0.869   0.739 -1.2298 -0.9654  0.8503
   53c3c    H18  131   2.501   0.954   0.847 -0.0733 -0.2450  0.0477
   54c3c      N  132   1.017   0.210   1.077  0.1125 -0.8979 -0.0161
   54c3c     C1  133   1.156   0.248   1.110  0.4224  0.0660 -0.6187
   54c3c     C2  134   0.975   0.112   1.177  0.5486  0.5410  0.2767
   54c3c     C3  135   1.152   0.265   1.267  0.2435 -0.1119  0.2580
   54c3c     C4  136   1.041   0.164   1.311 -0.2765 -0.0973  0.6338
   54c3c     C5  137   0.924   0.324   1.074  0.2042 -0.2971 -0.8915
   54c3c     C6  138   1.004   0.158   0.936 -0.4237 -0.2276 -0.0010
   54c3c     H1  139   1.200   0.334   1.061  0.9459  3.1300  4.8155
   54c3c     H2  140   1.213   0.156   1.093  1.3365  0.4247  0.4852
   54c3c     H3  141   0.867   0.095   1.177  0.7766 -1.0182 -1.0786
   54c3c     H4  142   1.027   0.018   1.160  2.1652  1.4976 -0.2327
   54c3c     H5  143   1.121   0.367   1.291 -0.7313 -0.3095 -0.1547
   54c3c     H6  144   1.247   0.240   1.315 -0.2214 -0.3349  1.0704
   54c3c     H7  145   0.970   0.220   1.372  0.8196  0.4956  1.3910
   54c3c     H8  146   1.072   0.085   1.379 -2.0773 -1.2520  0.1239
   54c3c     H9  147   0.951   0.416   1.022  2.1896  0.3415  1.2119
   54c3c    H10  148   0.828   0.305   1.025 -0.5330 -1.4790  0.9465
   54c3c    H11  149   0.896   0.345   1.177 -1.5342 -2.9658 -0.7660
   54c3c    H12  150   0.901   0.144   0.903 -0.4053 -0.3027 -0.0275
   54c3c    H13  151   1.033   0.227   0.857 -0.0419  0.8229  1.0472
   54c3c     C7  152   1.075   0.021   0.903 -0.0490  0.0395 -0.1008
   54c3c    H14  153   1.015  -0.056   0.952 -1.1008 -0.0247 -1.4289
   54c3c    H15  154   1.178   0.015   0.937 -0.4430  0.4187  1.1857
   54c3c     C8  155   1.056  -0.022   0.757  0.0398 -0.4020 -0.3517
   54c3c    H16  156   0.950  -0.015   0.733 -0.2448  0.5671  1.0888
   54c3c    H17  157   1.097  -0.123   0.756  0.7391 -0.1532  1.3131
   54c3c    H18  158   1.111   0.035   0.681  0.2962 -0.5696 -0.2929
   55c3c      N  159   2.509   0.704   1.961  0.0896  0.4170  0.6112
   55c3c     C1  160   2.475   0.727   2.104  0.7547 -0.2685 -0.3634
   55c3c     C2  161   2.646   0.661   1.965  0.0619  0.3510 -0.8305
   55c3c     C3  162   2.534   0.616   2.188 -0.4167  0.0284  0.6340
   55c3c     C4  163   2.652   0.580   2.097 -0.3212  0.1055 -0.1751
   55c3c     C5  164   2.424   0.598   1.901 -0.3119 -0.7539  0.3467
   55c3c     C6  165   2.502   0.833   1.888  0.3625 -0.5064  1.0958
   55c3c     H1  166   2.368   0.729   2.125  0.7689 -0.2893 -0.2892
   55c3c     H2  167   2.506   0.822   2.148 -0.0108 -0.5690  0.8255
   55c3c     H3  168   2.681   0.596   1.884 -0.9247 -2.4693  0.9155
   55c3c     H4  169   2.719   0.741   1.958 -1.0714  1.3739 -1.2415
   55c3c     H5  170   2.465   0.532   2.188 -0.2525 -0.1415 -1.8700
   55c3c     H6  171   2.559   0.635   2.292 -0.2171 -1.8053  0.9298
   55c3c     H7  172   2.647   0.473   2.079 -1.2424  0.1959 -0.4723
   55c3c     H8  173   2.747   0.596   2.149  0.2788  2.3206 -1.8614
   55c3c     H9  174   2.453   0.589   1.796 -2.0292  0.6580 -0.2576
   55c3c    H10  175   2.436   0.499   1.945  1.1306 -1.5315 -1.6739
   55c3c    H11  176   2.318   0.621   1.905 -0.8364 -2.9290 -0.2921
   55c3c    H12  177   2.540   0.827   1.786 -0.3708  0.3815  0.7617
   55c3c    H13  178   2.401   0.870   1.871  0.1791 -1.1695  0.7235
   55c3c     C7  179   2.582   0.954   1.950  0.2830 -0.2199 -1.0278
   55c3c    H14  180   2.682   0.925   1.981  0.2039  0.3567 -0.2325
   55c3c    H15  181   2.518   0.977   2.035  0.2759  0.5424 -1.2351
   55c3c     C8  182   2.595   1.072   1.852  0.2511  0.0618 -0.5209
   55c3c    H16  183   2.630   1.162   1.901 -0.7001 -0.3371  0.9315
   55c3c    H17  184   2.500   1.099   1.806  0.0851 -0.2015 -0.3379
   55c3c    H18  185   2.667   1.048   1.773  2.0931  2.9297  0.2243
   56c3c      N  186   1.932   1.534   0.393  0.3501 -0.3547 -0.2518
   56c3c     C1  187   2.069   1.507   0.437 -0.0062 -0.3070  0.2670
   56c3c     C2  188   1.856   1.417   0.430 -0.5822  0.0639 -0.0214
   56c3c     C3  189   2.058   1.448   0.583 -0.4176 -0.2099 -0.8079
   56c3c     C4  190   1.913   1.384   0.573  0.0189 -0.2497 -0.4971
   56c3c     C5  191   1.883   1.655   0.462  0.2461  0.2580  0.2512
   56c3c     C6  192   1.923   1.564   0.246 -0.5592 -0.6499  0.3782
   56c3c     H1  193   2.134   1.594   0.427 -0.2632 -0.3696 -2.2120
   56c3c     H2  194   2.113   1.430   0.374  2.2720  1.7630 -0.7359
   56c3c     H3  195   1.747   1.416   0.432 -0.5734  0.0139  1.3325
   56c3c     H4  196   1.881   1.328   0.372  2.5183  0.1641  1.0967
   56c3c     H5  197   2.073   1.526   0.657 -0.0297 -2.3711  1.4697
   56c3c     H6  198   2.137   1.381   0.618 -0.9552 -0.0455  0.7867
   56c3c     H7  199   1.852   1.423   0.655  1.8085  0.4578  0.5397
   56c3c     H8  200   1.908   1.276   0.588 -0.2926 -0.2308 -0.4582
   56c3c     H9  201   1.782   1.685   0.433  0.3365 -0.2127 -0.5351
   56c3c    H10  202   1.890   1.648   0.571 -0.7444  0.6725  0.3525
   56c3c    H11  203   1.937   1.744   0.428 -0.8590  0.5004 -0.9062
   56c3c    H12  204   1.824   1.583   0.206 -0.1793  3.0690  0.9930
   56c3c    H13  205   1.977   1.656   0.225 -3.5765  1.2283  0.6060
   56c3c     C7  206   1.994   1.461   0.144  0.0707  0.5698 -0.5271
   56c3c    H14  207   1.953   1.362   0.163 -0.5463  0.8172 -0.5743
   56c3c    H15  208   2.103   1.463   0.146  0.1224  0.7163 -2.4066
   56c3c     C8  209   1.945   1.491   0.004 -0.2076 -0.3649  0.0164
   56c3c    H16  210   1.838   1.474  -0.005 -0.0348 -0.9566 -1.0332
   56c3c    H17  211   1.984   1.413  -0.062  0.4404  2.1968 -2.7454
   56c3c    H18  212   1.969   1.594  -0.022  0.2048 -0.8299 -1.5265
   57c3c      N  213   1.218   1.110   2.345 -0.1089  0.0498 -0.0927
   57c3c     C1  214   1.286   1.096   2.474 -0.0380 -0.6052  0.2415
   57c3c     C2  215   1.125   0.995   2.343  0.0300  0.2554 -0.0382
   57c3c     C3  216   1.175   1.048   2.568  0.0391  0.6965 -0.2283
   57c3c     C4  217   1.074   0.966   2.481 -0.1582  0.1045 -0.0696
   57c3c     C5  218   1.136   1.230   2.346  0.0558 -0.8345 -0.2930
   57c3c     C6  219   1.313   1.112   2.232  0.3051 -0.2929  0.1325
   57c3c     H1  220   1.321   1.192   2.512 -2.1153 -0.0227  0.7099
   57c3c     H2  221   1.377   1.036   2.483  0.9280  0.1272 -3.8105
   57c3c     H3  222   1.031   1.010   2.289  0.1212 -2.1708 -0.9490
   57c3c     H4  223   1.182   0.908   2.308  2.1392  1.4005  0.4927
   57c3c     H5  224   1.121   1.136   2.605  0.4953  0.8520  0.0721
   57c3c     H6  225   1.205   0.989   2.654  1.9361  0.8767 -0.7558
   57c3c     H7  226   0.969   0.990   2.493 -0.4936 -1.4423  0.1886
   57c3c     H8  227   1.082   0.861   2.508 -0.8337 -0.0652 -0.5179
   57c3c     H9  228   1.194   1.321   2.359 -0.6597 -0.3734 -0.2713
   57c3c    H10  229   1.092   1.248   2.248 -0.4955  1.6023  0.3732
   57c3c    H11  230   1.053   1.236   2.416  0.1531  1.7748 -0.3494
   57c3c    H12  231   1.253   1.117   2.141 -0.5671  2.5052  0.8324
   57c3c    H13  232   1.370   1.204   2.244 -1.4750  0.7671  0.7033
   57c3c     C7  233   1.418   0.998   2.228  0.4384 -0.7657  0.5803
   57c3c    H14  234   1.377   0.898   2.233  1.2616 -1.0319  2.6344
   57c3c    H15  235   1.492   1.011   2.308  0.5089  2.3004  0.1070
   57c3c     C8  236   1.478   0.998   2.095  0.2235  0.1347 -0.0624
   57c3c    H16  237   1.415   0.971   2.010 -0.0067  0.7765 -0.1017
   57c3c    H17  238   1.561   0.928   2.095 -0.7466 -1.0374 -0.3382
   57c3c    H18  239   1.528   1.093   2.079 -2.7944  1.2973 -3.1990
   58c3c      N  240   0.221   1.315   2.858  0.2116 -0.7840 -0.1024
   58c3c     C1  241   0.327   1.260   2.941 -0.3709 -0.4620 -0.5271
   58c3c     C2  242   0.210   1.460   2.901  0.5422 -0.4431  0.2405
   58c3c     C3  243   0.427   1.368   2.947  0.3490 -0.7248 -0.3096
   58c3c     C4  244   0.341   1.496   2.960 -0.5964 -0.0680  0.7964
   58c3c     C5  245   0.256   1.311   2.712 -0.1887  0.0451  0.3833
   58c3c     C6  246   0.099   1.224   2.865 -0.1666 -0.4451  0.2959
   58c3c     H1  247   0.377   1.175   2.895  1.5078  0.5512 -0.4059
   58c3c     H2  248   0.300   1.242   3.045  0.6595  0.9046 -0.0120
   58c3c     H3  249   0.172   1.523   2.821 -0.8169  0.2509  1.4140
   58c3c     H4  250   0.135   1.462   2.981 -1.0001  1.2122 -1.1934
   58c3c     H5  251   0.490   1.377   2.858  0.3717 -0.6363 -0.2852
   58c3c     H6  252   0.496   1.360   3.031 -0.7190  1.4555  0.8292
   58c3c     H7  253   0.385   1.573   2.897 -0.6824 -1.5737 -1.1728
   58c3c     H8  254   0.351   1.531   3.063 -1.2009  1.6899  0.2730
   58c3c     H9  255   0.290   1.213   2.677  1.4816 -0.4676  3.2910
   58c3c    H10  256   0.172   1.344   2.651  0.8744 -1.0182 -1.6934
   58c3c    H11  257   0.337   1.379   2.686  1.2849 -2.0491 -0.6950
   58c3c    H12  258   0.019   1.245   2.794 -0.2959 -0.6205  0.3907
   58c3c    H13  259   0.126   1.125   2.829 -1.4756 -0.2515 -1.2371
   58c3c     C7  260   0.051   1.205   3.013  0.7888  0.5240  0.3219
   58c3c    H14  261   0.026   1.298   3.065  0.2868 -0.8679  2.6621
   58c3c    H15  262   0.122   1.161   3.082 -0.2277 -0.2271  0.9081
   58c3c     C8  263  -0.070   1.107   3.022 -0.3712 -0.1465  0.4116
   58c3c    H16  264  -0.168   1.143   2.990  0.1804  1.1188  0.0968
   58c3c    H17  265  -0.073   1.090   3.130  1.7722 -1.9884  0.1931
   58c3c    H18  266  -0.043   1.011   2.979  1.0986 -0.4499  1.9326
   59c3c      N  267   2.340   0.338   1.122 -0.0381  0.2892 -0.0126
   59c3c     C1  268   2.369   0.193   1.130 -0.3207 -0.7112 -0.4631
   59c3c     C2  269   2.210   0.331   1.054  0.0175 -1.1919  1.1473
   59c3c     C3  270   2.247   0.125   1.187  0.2114 -0.3669  0.5268
   59c3c     C4  271   2.143   0.217   1.126  0.2358 -0.1571  0.4730
   59c3c     C5  272   2.336   0.395   1.263 -0.4406  0.2642  0.1267
   59c3c     C6  273   2.434   0.431   1.055  0.0807  0.0396  0.5905
   59c3c     H1  274   2.465   0.174   1.178 -0.0904  0.4610 -0.4580
   59c3c     H2  275   2.374   0.147   1.031  0.7168  0.8395 -1.1475
   59c3c     H3  276   2.153   0.422   1.070  2.4831 -0.0322  3.6182
   59c3c     H4  277   2.209   0.313   0.946  0.8002  2.1725  0.5368
   59c3c     H5  278   2.245   0.122   1.296  0.9890 -0.6329  0.5375
   59c3c     H6  279   2.250   0.023   1.148 -0.5169  0.2788 -1.2246
   59c3c     H7  280   2.071   0.252   1.201 -0.4191 -1.8758  0.6784
   59c3c     H8  281   2.079   0.159   1.059  0.5165 -2.0544  1.7827
   59c3c     H9  282   2.259   0.352   1.327 -2.3101  3.3118  0.0606
   59c3c    H10  283   2.435   0.397   1.309 -0.8748 -1.2637  1.1752
   59c3c    H11  284   2.295   0.496   1.266 -0.2519  0.3788 -1.0341
   59c3c    H12  285   2.406   0.537   1.061  1.2234  0.3935 -0.1360
   59c3c    H13  286   2.526   0.429   1.113  0.4483 -0.2669  0.0027
   59c3c     C7  287   2.466   0.396   0.908  0.4274  0.2408 -0.6773
   59c3c    H14  288   2.378   0.405   0.845  0.6686  0.9413 -0.9188
   59c3c    H15  289   2.487   0.290   0.905 -1.0575 -0.0965  0.2220
   59c3c     C8  290   2.576   0.478   0.845  0.0062  0.0197  0.7128
   59c3c    H16  291   2.667   0.456   0.901 -0.1907 -2.0154  0.2765
   59c3c    H17  292   2.552   0.583   0.837  0.5583 -0.0856 -3.1191
   59c3c    H18  293   2.579   0.447   0.740  0.8555 -0.2305  0.8022
   60c3c      N  294   0.852   2.137   2.809  0.5351  0.5108 -0.3611
   60c3c     C1  295   0.983   2.205   2.783 -0.1653 -0.2267  0.6332
   60c3c     C2  296   0.853   2.021   2.720 -0.7914 -0.4614  0.1920
   60c3c     C3  297   1.079   2.088   2.756  0.1497 -0.1611 -0.0687
   60c3c     C4  298   0.995   1.976   2.706 -0.3099 -0.2890 -0.2721
   60c3c     C5  299   0.841   2.083   2.948  0.1657 -0.2113 -0.3040
   60c3c     C6  300   0.738   2.231   2.795  0.5493 -0.0922  0.5876
   60c3c     H1  301   1.013   2.273   2.863 -1.8201  0.1170  0.9811
   60c3c     H2  302   0.994   2.265   2.693  2.4824  1.8157  2.2577
   60c3c     H3  303   0.791   1.938   2.756 -0.7699 -0.7168 -0.3493
   60c3c     H4  304   0.803   2.059   2.630  0.5649  2.9596  0.8111
   60c3c     H5  305   1.137   2.048   2.840  1.7188  1.4500 -0.3588
   60c3c     H6  306   1.145   2.124   2.678  0.4804  1.5073  0.9693
   60c3c     H7  307   1.005   1.888   2.769  1.3288 -0.7099 -1.1011
   60c3c     H8  308   1.021   1.947   2.605 -1.8416 -1.7902 -0.2517
   60c3c     H9  309   0.760   2.012   2.965  1.2238 -0.9553  1.7784
   60c3c    H10  310   0.932   2.032   2.979  1.5494  1.1863 -1.9294
   60c3c    H11  311   0.824   2.159   3.025  1.2853  0.0907 -0.3451
   60c3c    H12  312   0.645   2.176   2.809  0.2088  0.1977 -0.5516
   60c3c    H13  313   0.735   2.291   2.886 -0.2390 -2.5516  2.2603
   60c3c     C7  314   0.730   2.317   2.669 -0.6779 -0.1980 -0.5938
   60c3c    H14  315   0.746   2.259   2.578  2.3492  0.5543 -0.6033
   60c3c    H15  316   0.809   2.392   2.667  0.3356 -1.2768 -2.8935
   60c3c     C8  317   0.597   2.384   2.661  0.2169 -0.9135  0.1033
   60c3c    H16  318   0.600   2.451   2.747 -1.1334 -1.3274  0.4873
   60c3c    H17  319   0.513   2.315   2.651  0.4989 -1.1483 -0.6929
   60c3c    H18  320   0.601   2.450   2.575  0.4292 -2.3840 -1.0390
   61c3c      N  321   2.028   1.648   1.394 -0.2576  1.0430  0.1613
   61c3c     C1  322   1.884   1.682   1.398  0.7288  0.3873  0.3493
   61c3c     C2  323   2.071   1.684   1.257  0.5777  0.3439 -0.1853
   61c3c     C3  324   1.862   1.810   1.312  0.4919 -0.3934 -0.5260
   61c3c     C4  325   1.969   1.796   1.214 -0.5324 -0.2180 -0.2472
   61c3c     C5  326   2.108   1.738   1.484  0.0863  0.0626 -0.3215
   61c3c     C6  327   2.063   1.515   1.447 -0.1406 -0.5368  0.2186
   61c3c     H1  328   1.830   1.681   1.493 -0.9026 -1.4755 -0.5748
   61c3c     H2  329   1.824   1.613   1.339  0.1593  2.2951 -1.3396
   61c3c     H3  330   2.175   1.712   1.241  0.9191  0.0454  1.4563
   61c3c     H4  331   2.044   1.608   1.184  2.5619 -1.9816  1.4026
   61c3c     H5  332   1.875   1.909   1.355  1.1515  0.1081 -1.8467
   61c3c     H6  333   1.773   1.825   1.251  0.9550 -0.6872 -1.2801
   61c3c     H7  334   2.034   1.881   1.195  0.7623 -1.1608 -0.1838
   61c3c     H8  335   1.934   1.771   1.114 -0.4530  0.9927 -0.5815
   61c3c     H9  336   2.086   1.722   1.590  1.0015  1.2656  0.0568
   61c3c    H10  337   2.217   1.733   1.486  0.0737 -0.3257 -0.6155
   61c3c    H11  338   2.086   1.842   1.460 -0.2572 -0.0067 -0.3065
   61c3c    H12  339   2.169   1.506   1.424 -0.0248 -0.0400  0.5405
   61c3c    H13  340   2.042   1.500   1.554  0.9544  1.7211  0.7746
   61c3c     C7  341   1.991   1.397   1.379 -0.1509  0.0703  0.1386
   61c3c    H14  342   1.977   1.411   1.271  1.1742  1.2003  0.0987
   61c3c    H15  343   1.893   1.397   1.426  0.2440 -1.6967  0.9705
   61c3c     C8  344   2.053   1.255   1.406 -0.1164 -0.1704 -0.4018
   61c3c    H16  345   1.988   1.177   1.365 -0.0317  0.1634 -1.1782
   61c3c    H17  346   2.059   1.233   1.513 -0.6299  1.1083 -0.1060
   61c3c    H18  347   2.145   1.241   1.350 -0.4100 -3.0822 -0.2627
   62c3c      N  348   1.251   2.503   0.256  0.2352  0.1932 -0.3727
   62c3c     C1  349   1.155   2.422   0.178 -0.2300 -0.1247 -0.1254
   62c3c     C2  350   1.356   2.548   0.157 -0.9682 -0.4964 -0.4975
   62c3c     C3  351   1.143   2.498   0.044  0.0403 -0.3918 -0.6206
   62c3c     C4  352   1.282   2.572   0.028 -0.2651 -0.6765 -0.5182
   62c3c     C5  353   1.178   2.619   0.309 -0.2262 -0.4790  0.5556
   62c3c     C6  354   1.312   2.423   0.366  0.1436 -0.2557 -0.3585
   62c3c     H1  355   1.063   2.404   0.235 -0.1028  0.4378  0.2596
   62c3c     H2  356   1.200   2.325   0.154 -0.4177 -0.6986  1.7314
   62c3c     H3  357   1.401   2.640   0.193  0.4969  0.4343 -4.4891
   62c3c     H4  358   1.433   2.472   0.142 -1.0720 -0.8074  0.4683
   62c3c     H5  359   1.074   2.582   0.039  0.6465  0.2557  1.2712
   62c3c     H6  360   1.125   2.428  -0.038  0.1043  0.4303 -1.3368
   62c3c     H7  361   1.259   2.678   0.019  0.2078 -0.4262  0.9807
   62c3c     H8  362   1.338   2.531  -0.056  1.4112 -0.0936  0.2965
   62c3c     H9  363   1.076   2.598   0.340 -0.3754 -1.1653 -0.4009
   62c3c    H10  364   1.240   2.677   0.378 -0.5721  0.0476  0.4271
   62c3c    H11  365   1.149   2.697   0.238  2.3433  0.0014 -0.0124
   62c3c    H12  366   1.359   2.506   0.418  0.1215  0.1106 -0.9145
   62c3c    H13  367   1.243   2.388   0.443  2.5575 -0.2357  1.8865
   62c3c     C7  368   1.415   2.304   0.338 -0.0298 -0.0683 -0.2901
   62c3c    H14  369   1.506   2.330   0.284 -0.3048 -0.7917 -1.1271
   62c3c    H15  370   1.363   2.236   0.271 -0.3866  0.4057 -0.4958
   62c3c     C8  371   1.439   2.225   0.468 -0.3986  0.0209 -0.1500
   62c3c    H16  372   1.345   2.178   0.496 -1.1269  2.2011  1.1981
   62c3c    H17  373   1.476   2.289   0.548  3.6154 -0.8547 -1.1569
   62c3c    H18  374   1.520   2.153   0.456 -0.2304  0.2861 -0.6161
   63c3c      N  375   0.258   2.086   0.646  0.0872  0.8887 -0.1583
   63c3c     C1  376   0.191   1.958   0.677  0.1224 -0.4556 -1.2250
   63c3c     C2  377   0.401   2.060   0.659 -0.5796 -0.0625  0.1367
   63c3c     C3  378   0.289   1.852   0.640 -0.2542 -0.0989  0.3439
   63c3c     C4  379   0.413   1.927   0.596  0.0001 -0.0923 -0.6561
   63c3c     C5  380   0.230   2.128   0.508  0.7593  0.1233 -0.7788
   63c3c     C6  381   0.211   2.194   0.733 -0.1181 -0.1108  0.5929
   63c3c     H1  382   0.091   1.964   0.636 -0.2284 -1.1700 -0.4865
   63c3c     H2  383   0.181   1.944   0.785 -2.2607 -1.1527 -1.5196
   63c3c     H3  384   0.459   2.136   0.606  1.0617 -1.8110 -0.6190
   63c3c     H4  385   0.436   2.064   0.763  2.0071  0.2364 -0.7065
   63c3c     H5  386   0.247   1.786   0.564  0.0779 -2.3549  2.0444
   63c3c     H6  387   0.313   1.783   0.721 -1.3685  1.4053  1.9828
   63c3c     H7  388   0.412   1.927   0.487 -1.9240 -0.1394 -0.6656
   63c3c     H8  389   0.500   1.868   0.624 -0.1602 -0.4343 -0.8766
   63c3c     H9  390   0.124   2.153   0.509  0.7008 -0.1336  1.4289
   63c3c    H10  391   0.279   2.222   0.483 -0.2321  1.5518  2.3949
   63c3c    H11  392   0.257   2.055   0.432 -1.2259 -0.6407 -0.7772
   63c3c    H12  393   0.241   2.293   0.699  0.3251 -0.4744 -0.0747
   63c3c    H13  394   0.102   2.193   0.733 -0.1199  0.1307  1.7654
   63c3c     C7  395   0.252   2.196   0.880 -0.5950  0.2719 -0.4304
   63c3c    H14  396   0.360   2.209   0.891 -0.3700 -1.1837 -0.6982
   63c3c    H15  397   0.230   2.099   0.926 -1.0071  0.9253  0.7505
   63c3c     C8  398   0.200   2.311   0.962  1.1757 -0.4249 -0.4752
   63c3c    H16  399   0.223   2.408   0.919 -0.7361  0.7523  1.0784
   63c3c    H17  400   0.253   2.315   1.058 -1.7231  1.0331  1.1201
   63c3c    H18  401   0.092   2.316   0.968  1.1119 -2.6404  0.6440
   64c3c      N  402   0.943   1.408   0.488 -0.2012  0.6226 -0.5055
   64c3c     C1  403   0.814   1.462   0.539 -0.2701 -0.4064 -0.4712
   64c3c     C2  404   1.033   1.427   0.605 -0.1868  0.1639  1.0762
   64c3c     C3  405   0.806   1.421   0.691 -0.8757 -0.4385 -0.4501
   64c3c     C4  406   0.948   1.391   0.728 -0.0687  0.2238  0.0824
   64c3c     C5  407   0.927   1.260   0.454 -0.0675  0.7515  0.4052
   64c3c     C6  408   0.992   1.470   0.367 -0.0882  0.1890  0.6796
   64c3c     H1  409   0.718   1.450   0.488 -0.4571 -0.9196  0.0051
   64c3c     H2  410   0.816   1.571   0.533  0.4526 -0.2504  2.0763
   64c3c     H3  411   1.128   1.374   0.600  0.0609  0.7785 -0.9169
   64c3c     H4  412   1.047   1.534   0.625 -0.9329  0.3970  0.4015
   64c3c     H5  413   0.740   1.335   0.702 -0.4747 -0.8722 -1.4137
   64c3c     H6  414   0.764   1.507   0.743 -1.4183 -0.5696 -0.6647
   64c3c     H7  415   0.973   1.286   0.747  0.3203  0.7680  2.6880
   64c3c     H8  416   0.970   1.446   0.820  0.2460  0.2350  0.0020
   64c3c     H9  417   1.030   1.232   0.429 -0.7989 -1.8881  0.1901
   64c3c    H10  418   0.899   1.200   0.541 -0.2496 -1.7295 -1.2893
   64c3c    H11  419   0.851   1.238   0.379  1.3881 -0.6949 -0.7161
   64c3c    H12  420   1.089   1.421   0.353 -1.2663 -1.9043 -0.3575
   64c3c    H13  421   0.924   1.446   0.285 -0.2454  0.1877  0.8121
   64c3c     C7  422   1.019   1.618   0.358  0.4099 -0.5489 -0.0419
   64c3c    H14  423   1.078   1.665   0.437 -1.5933  1.3784  0.3757
   64c3c    H15  424   0.918   1.659   0.361  0.9823  0.9029  0.0430
   64c3c     C8  425   1.083   1.662   0.229  0.3546  0.0583 -0.5367
   64c3c    H16  426   1.009   1.627   0.156 -0.4434 -1.2462  0.8526
   64c3c    H17  427   1.185   1.626   0.214 -0.1433 -1.6028 -0.0843
   64c3c    H18  428   1.097   1.769   0.215 -2.6692  0.4602 -0.8540
   65c3c      N  429   0.180   2.811   0.078  0.2360  0.1449 -0.0236
   65c3c     C1  430   0.298   2.735   0.121  0.3790 -0.1792  0.1864
   65c3c     C2  431   0.108   2.713  -0.004  0.2762  0.6270 -0.5600
   65c3c     C3  432   0.242   2.605   0.160 -0.1005  0.0074  0.6827
   65c3c     C4  433   0.126   2.577   0.065  0.4474 -0.7500  0.0679
   65c3c     C5  434   0.107   2.851   0.199 -0.3514 -0.4072 -0.1266
   65c3c     C6  435   0.214   2.930   0.002  0.2968  0.4613 -0.1236
   65c3c     H1  436   0.341   2.783   0.209  1.8182 -2.4953  0.7667
   65c3c     H2  437   0.374   2.709   0.048 -1.9781 -0.7253 -2.1651
   65c3c     H3  438   0.002   2.738  -0.016 -0.3362 -1.5914 -0.0293
   65c3c     H4  439   0.162   2.708  -0.098  1.4350  1.9893  0.0248
   65c3c     H5  440   0.215   2.623   0.264  0.1732 -0.6472  0.8679
   65c3c     H6  441   0.318   2.526   0.157 -1.0816 -0.9258  0.1662
   65c3c     H7  442   0.037   2.535   0.113  1.2587 -1.7634  0.7153
   65c3c     H8  443   0.158   2.507  -0.012  0.2280  1.2149 -1.8303
   65c3c     H9  444   0.159   2.918   0.267  0.5437 -1.4904  0.2608
   65c3c    H10  445   0.014   2.897   0.164 -1.2705  0.0075  2.7384
   65c3c    H11  446   0.067   2.768   0.257 -0.9652 -0.3921 -0.5208
   65c3c    H12  447   0.124   2.982  -0.033  0.9087  1.3511 -0.3806
   65c3c    H13  448   0.244   3.000   0.080 -0.2473  0.3136  0.2237
   65c3c     C7  449   0.328   2.936  -0.104  0.0818  0.8567 -0.4412
   65c3c    H14  450   0.323   2.858  -0.180 -0.4259 -0.1188  0.5749
   65c3c    H15  451   0.419   2.909  -0.050  1.2837 -0.3293 -2.9890
   65c3c     C8  452   0.359   3.067  -0.159 -0.3624  0.4614  0.0301
   65c3c    H16  453   0.393   3.137  -0.083  1.2183 -0.4314  0.1616
   65c3c    H17  454   0.269   3.092  -0.215  1.1076  1.3477 -1.9959
   65c3c    H18  455   0.430   3.057  -0.241 -1.0677  1.1465 -0.6681
   66c3c      N  456   1.510   1.624   2.850 -0.0090  0.1572 -0.4365
   66c3c     C1  457   1.384   1.569   2.796  0.4419 -0.0217 -0.0545
   66c3c     C2  458   1.472   1.758   2.892  0.4569 -0.4151  0.1946
   66c3c     C3  459   1.270   1.614   2.884 -0.3738  0.1117  0.1666
   66c3c     C4  460   1.335   1.742   2.943  0.4650 -0.1464 -0.3009
   66c3c     C5  461   1.555   1.549   2.968 -0.1008  0.4413 -0.5881
   66c3c     C6  462   1.623   1.623   2.750 -0.5968 -0.0298  0.5027
   66c3c     H1  463   1.382   1.462   2.777 -0.9694  0.1463 -0.9554
   66c3c     H2  464   1.371   1.614   2.697 -1.6612  0.4712  0.4090
   66c3c     H3  465   1.535   1.800   2.971 -0.8239  2.8122 -0.3960
   66c3c     H4  466   1.471   1.835   2.814 -1.5730  0.5979  1.1753
   66c3c     H5  467   1.242   1.545   2.963 -0.9320  0.5921  0.3975
   66c3c     H6  468   1.184   1.630   2.818  0.2370 -1.6412 -1.0800
   66c3c     H7  469   1.336   1.737   3.052 -0.5366  3.1391 -0.0981
   66c3c     H8  470   1.269   1.827   2.926  1.9889  1.8667  3.3459
   66c3c     H9  471   1.584   1.451   2.930 -1.8067 -0.4354  0.2895
   66c3c    H10  472   1.623   1.610   3.028 -1.5333  2.4942 -0.9854
   66c3c    H11  473   1.472   1.528   3.036 -0.5732 -0.5294 -1.4500
   66c3c    H12  474   1.655   1.523   2.722  0.8401  0.3961  0.6184
   66c3c    H13  475   1.589   1.678   2.661  0.3765 -1.1859 -0.5889
   66c3c     C7  476   1.750   1.698   2.789  0.1970 -0.0432  0.0553
   66c3c    H14  477   1.779   1.686   2.894 -0.7035  1.2541  0.4654
   66c3c    H15  478   1.733   1.805   2.775 -1.6284 -0.4434 -0.9611
   66c3c     C8  479   1.866   1.663   2.704 -0.2721  0.0281 -0.2545
   66c3c    H16  480   1.962   1.686   2.750  1.1389 -0.2739 -2.9536
   66c3c    H17  481   1.860   1.698   2.601 -0.0635  0.0214 -0.2688
   66c3c    H18  482   1.880   1.556   2.693  0.1229  0.1821 -1.2555
   67c3c      N  483   0.555   0.413   2.125 -0.0177  0.4975 -0.0154
   67c3c     C1  484   0.414   0.384   2.082 -0.1807  0.3716  0.5231
   67c3c     C2  485   0.578   0.322   2.239 -0.2474 -0.1063  0.3597
   67c3c     C3  486   0.391   0.239   2.124 -0.1563  0.2471  0.0181
   67c3c     C4  487   0.515   0.187   2.198 -0.2132 -0.3781  0.4322
   67c3c     C5  488   0.655   0.380   2.016  0.5081  1.1821 -0.0033
   67c3c     C6  489   0.574   0.556   2.160  0.6339  0.1706 -1.0044
   67c3c     H1  490   0.393   0.395   1.976 -2.1481 -1.6456  0.6619
   67c3c     H2  491   0.332   0.437   2.132 -2.1862 -1.4935 -0.6974
   67c3c     H3  492   0.680   0.313   2.277 -0.1153  1.9479  0.5578
   67c3c     H4  493   0.508   0.343   2.319 -3.2824  0.8291 -2.4026
   67c3c     H5  494   0.371   0.180   2.035  0.7934  0.8155 -0.5774
   67c3c     H6  495   0.302   0.227   2.186 -0.0688 -0.4059  0.0233
   67c3c     H7  496   0.570   0.132   2.121 -0.9807 -0.3410 -0.1453
   67c3c     H8  497   0.492   0.113   2.275 -0.0010  0.3235  1.1775
   67c3c     H9  498   0.627   0.444   1.933  2.4392  2.0418 -0.0241
   67c3c    H10  499   0.757   0.396   2.051  0.4139  0.8741  0.4145
   67c3c    H11  500   0.651   0.277   1.980 -1.8438  1.2506  0.0169
   67c3c    H12  501   0.669   0.575   2.211 -1.1378  2.5130  1.5539
   67c3c    H13  502   0.570   0.626   2.077  1.3491  1.0843 -0.2892
   67c3c     C7  503   0.475   0.615   2.265 -0.4166  0.0396  0.0814
   67c3c    H14  504   0.477   0.548   2.351  0.2543 -2.0691 -1.5420
   67c3c    H15  505   0.375   0.618   2.220 -0.0012 -1.0703 -0.9538
   67c3c     C8  506   0.525   0.753   2.304 -0.8580  0.3673  0.0740
   67c3c    H16  507   0.544   0.801   2.208  1.1802  0.3800  0.4750
   67c3c    H17  508   0.613   0.757   2.367 -0.4707  1.7279 -0.5322
   67c3c    H18  509   0.456   0.814   2.363  1.1975  1.6237  1.2015
   68c3c      N  510   2.377   2.838   1.691  0.0576  0.2236 -0.5854
   68c3c     C1  511   2.438   2.701   1.665  0.1619  0.1488  0.1308
   68c3c     C2  512   2.323   2.871   1.557 -0.5969  0.3394 -0.5188
   68c3c     C3  513   2.329   2.635   1.581 -0.0878 -0.1724 -0.4135
   68c3c     C4  514   2.250   2.745   1.520  0.6655 -0.6566 -0.1776
   68c3c     C5  515   2.276   2.827   1.790  0.1604  0.0946 -0.6361
   68c3c     C6  516   2.484   2.926   1.745 -0.8625 -0.1660 -0.0161
   68c3c     H1  517   2.470   2.653   1.758 -0.9753  0.3308  0.6276
   68c3c     H2  518   2.531   2.714   1.611  2.0100 -1.3227  2.8217
   68c3c     H3  519   2.251   2.951   1.568 -0.5881 -0.1246  3.7746
   68c3c     H4  520   2.393   2.902   1.479 -0.8020 -0.4101 -1.0085
   68c3c     H5  521   2.260   2.579   1.643  1.3364 -1.2534  0.2346
   68c3c     H6  522   2.375   2.578   1.500  0.1581  0.1164 -0.4789
   68c3c     H7  523   2.150   2.741   1.563  0.1164 -0.3453 -1.4103
   68c3c     H8  524   2.235   2.734   1.413  1.0262  1.0937 -0.4325
   68c3c     H9  525   2.308   2.799   1.891  0.9402  0.5227 -0.7622
   68c3c    H10  526   2.225   2.923   1.783  1.0483  0.5416 -1.0956
   68c3c    H11  527   2.199   2.752   1.771 -0.6478  0.6156  0.4950
   68c3c    H12  528   2.430   3.017   1.769  0.7039  0.2016  2.2695
   68c3c    H13  529   2.533   2.892   1.836 -0.8809  0.8815  0.3921
   68c3c     C7  530   2.587   2.967   1.640  0.3612 -0.2629 -0.7796
   68c3c    H14  531   2.543   3.043   1.575  0.1250  0.1228 -0.1676
   68c3c    H15  532   2.616   2.884   1.575  0.4713 -2.2757  1.8086
   68c3c     C8  533   2.711   3.022   1.696 -0.9416 -0.1919 -0.4505
   68c3c    H16  534   2.770   3.068   1.617  1.0256 -2.5711 -0.4306
   68c3c    H17  535   2.770   2.945   1.746 -0.2105  0.6125 -0.0716
   68c3c    H18  536   2.701   3.103   1.767 -0.0683  1.3566 -2.0640
   69c3c      N  537   0.743   2.574   2.210  0.1138  0.3225 -0.0404
   69c3c     C1  538   0.788   2.640   2.329 -0.0666  0.4612  0.4018
   69c3c     C2  539   0.858   2.588   2.118 -0.0621 -0.1597 -0.2315
   69c3c     C3  540   0.938   2.602   2.341  0.0960 -0.2316 -0.3073
   69c3c     C4  541   0.985   2.567   2.205 -0.1363 -0.6613 -0.2706
   69c3c     C5  542   0.727   2.433   2.236  0.6027 -0.0313 -0.1499
   69c3c     C6  543   0.615   2.611   2.152  0.0880  1.1225  0.1921
   69c3c     H1  544   0.724   2.621   2.415 -0.6880  0.3561 -0.0823
   69c3c     H2  545   0.787   2.749   2.317  0.3458  0.4544  0.2820
   69c3c     H3  546   0.866   2.516   2.037 -0.7552 -2.0688  1.3514
   69c3c     H4  547   0.872   2.689   2.078 -1.3631 -0.9589 -2.8205
   69c3c     H5  548   0.953   2.519   2.411 -0.2913  1.3126  1.6660
   69c3c     H6  549   0.999   2.685   2.375  2.2402 -1.1560 -1.7521
   69c3c     H7  550   1.004   2.460   2.206  0.1218 -0.6191 -0.4907
   69c3c     H8  551   1.071   2.617   2.160 -0.2378  0.9507  1.2789
   69c3c     H9  552   0.812   2.392   2.292  0.5926  0.8051  0.4906
   69c3c    H10  553   0.645   2.406   2.301  2.4511  0.3551  2.4435
   69c3c    H11  554   0.715   2.374   2.145 -0.3117  0.9325 -0.6645
   69c3c    H12  555   0.592   2.543   2.070  1.1301  0.0144  0.7934
   69c3c    H13  556   0.550   2.600   2.239 -0.6544 -0.8475 -0.5738
   69c3c     C7  557   0.600   2.754   2.113 -0.3596 -0.0414 -0.1375
   69c3c    H14  558   0.666   2.767   2.027  0.1247  1.5822  0.4702
   69c3c    H15  559   0.642   2.829   2.180 -0.5695 -0.9980  1.0799
   69c3c     C8  560   0.456   2.788   2.096  0.5437  0.2113 -0.4344
   69c3c    H16  561   0.451   2.888   2.053  0.2055  0.0741 -0.7208
   69c3c    H17  562   0.400   2.787   2.189  0.9027  0.1638 -0.2187
   69c3c    H18  563   0.402   2.726   2.024 -0.6807  2.0312 -1.1274
   70c3c      N  564   0.895   2.903   2.865  0.0582  0.1738  0.2099
   70c3c     C1  565   0.757   2.918   2.835  0.2496  0.2480 -0.0956
   70c3c     C2  566   0.917   2.768   2.825 -0.5216 -0.1984  1.0978
   70c3c     C3  567   0.718   2.823   2.714 -0.8937  0.7730 -0.8210
   70c3c     C4  568   0.838   2.735   2.695 -0.5302 -0.4835  0.1365
   70c3c     C5  569   0.976   2.975   2.765  0.6233 -0.7515  0.3802
   70c3c     C6  570   0.934   2.929   3.000 -0.3444  0.7440 -0.1396
   70c3c     H1  571   0.721   3.019   2.813  0.6955  0.4133 -0.0593
   70c3c     H2  572   0.691   2.890   2.917  0.7086  0.6280  0.4055
   70c3c     H3  573   1.020   2.735   2.807 -1.0509 -1.0508 -0.5271
   70c3c     H4  574   0.881   2.697   2.899  0.2256 -2.1143 -0.3195
   70c3c     H5  575   0.712   2.880   2.621  2.7946 -0.3229 -1.8479
   70c3c     H6  576   0.629   2.760   2.720 -0.8266  0.2563 -4.1757
   70c3c     H7  577   0.892   2.774   2.609  1.4746 -0.9813  1.1555
   70c3c     H8  578   0.794   2.636   2.679 -1.7721  0.1388 -0.3579
   70c3c     H9  579   0.990   3.080   2.789  0.5494 -0.0131 -2.5821
   70c3c    H10  580   1.082   2.950   2.759  0.7292 -0.1807 -0.2020
   70c3c    H11  581   0.943   2.970   2.661 -0.1839  1.1484  0.5310
   70c3c    H12  582   1.042   2.913   3.003 -0.7952 -3.1455 -2.2618
   70c3c    H13  583   0.896   3.027   3.029 -0.7408 -0.8605  5.2223
   70c3c     C7  584   0.889   2.829   3.109  0.5327  0.7731 -0.2375
   70c3c    H14  585   0.933   2.730   3.115  2.7121  1.8858  3.3439
   70c3c    H15  586   0.783   2.812   3.089  1.0242  0.4575 -2.7848
   70c3c     C8  587   0.921   2.893   3.247 -0.1814 -0.5075  0.1534
   70c3c    H16  588   0.842   2.961   3.278 -0.8589 -1.0119 -0.4492
   70c3c    H17  589   1.018   2.941   3.236 -0.6978  0.5178  0.0879
   70c3c    H18  590   0.923   2.808   3.315 -0.1514  0.5008  1.4308
   71c3c      N  591   1.614   0.698   1.647  0.4576 -0.2955 -0.4606
   71c3c     C1  592   1.522   0.596   1.700 -0.3342  0.1007 -0.0955
   71c3c     C2  593   1.635   0.786   1.767 -0.0479 -0.1333 -0.4002
   71c3c     C3  594   1.566   0.569   1.842  0.0331  0.1710  0.3249
   71c3c     C4  595   1.646   0.692   1.886  0.4033  0.0049 -0.2755
   71c3c     C5  596   1.752   0.656   1.611  0.0613 -0.0073  1.3362
   71c3c     C6  597   1.558   0.774   1.534 -0.0951  0.2796 -0.0514
   71c3c     H1  598   1.523   0.507   1.637  1.2918  1.6981 -2.4104
   71c3c     H2  599   1.425   0.643   1.717 -0.4693 -0.5071  0.8495
   71c3c     H3  600   1.724   0.848   1.769 -0.3834  0.2986  1.2759
   71c3c     H4  601   1.545   0.847   1.778 -1.2449 -1.7395 -0.9362
   71c3c     H5  602   1.631   0.481   1.843  0.5291  0.5044 -0.8784
   71c3c     H6  603   1.478   0.549   1.902 -0.1386 -1.7106 -0.4960
   71c3c     H7  604   1.752   0.679   1.904  0.3247 -1.7047 -0.9653
   71c3c     H8  605   1.604   0.741   1.973  1.2389 -1.4674  0.9739
   71c3c     H9  606   1.747   0.585   1.529  0.9444 -0.8776  2.0224
   71c3c    H10  607   1.813   0.741   1.580  0.5641 -0.5963  0.7123
   71c3c    H11  608   1.801   0.603   1.693  1.2133 -1.3949 -0.2185
   71c3c    H12  609   1.471   0.836   1.557  0.3314  1.2243 -0.9932
   71c3c    H13  610   1.637   0.841   1.502  1.2715 -2.2695 -2.2248
   71c3c     C7  611   1.532   0.693   1.400 -0.0193 -0.2883  0.4817
   71c3c    H14  612   1.459   0.612   1.401 -0.5689  0.2112  0.8464
   71c3c    H15  613   1.624   0.643   1.368 -1.4251 -2.0385 -0.9685
   71c3c     C8  614   1.490   0.771   1.280  0.6744  0.9100 -1.0745
   71c3c    H16  615   1.486   0.708   1.191  1.0299 -3.4421  1.8134
   71c3c    H17  616   1.572   0.839   1.256 -0.2513  1.7371 -1.8958
   71c3c    H18  617   1.410   0.842   1.300 -0.8810 -0.3077 -2.7788
   72c3c      N  618   2.525   2.056   1.926 -0.3453 -0.1667  0.2797
   72c3c     C1  619   2.538   1.975   1.807 -0.2474 -0.6055 -0.5085
   72c3c     C2  620   2.449   1.975   2.013 -0.3933  0.0218  0.2435
   72c3c     C3  621   2.559   1.830   1.865  0.2847  0.9455 -0.4504
   72c3c     C4  622   2.503   1.836   2.008  0.2626 -0.4291 -0.5548
   72c3c     C5  623   2.661   2.078   1.976 -0.7423 -0.0066  0.1157
   72c3c     C6  624   2.465   2.191   1.892 -0.0622  1.2169 -0.2060
   72c3c     H1  625   2.614   2.009   1.737 -1.5934  0.3828 -1.5217
   72c3c     H2  626   2.443   1.960   1.755 -2.8767 -1.3299  4.1541
   72c3c     H3  627   2.454   2.016   2.114  1.7404  1.1892 -0.3037
   72c3c     H4  628   2.341   1.976   1.996 -0.1985 -0.3356 -1.0684
   72c3c     H5  629   2.660   1.795   1.884 -0.8051 -1.5029  1.1309
   72c3c     H6  630   2.499   1.752   1.817 -1.8933  1.6756  1.0050
   72c3c     H7  631   2.586   1.832   2.079  0.0336 -0.6073 -0.2953
   72c3c     H8  632   2.434   1.754   2.029 -0.8334 -0.1609 -3.0386
   72c3c     H9  633   2.711   2.151   1.913  0.3426  0.8151  1.8757
   72c3c    H10  634   2.673   2.132   2.070  0.8216 -0.8762  0.4245
   72c3c    H11  635   2.728   1.994   1.993 -0.5145  0.4124  1.3248
   72c3c    H12  636   2.459   2.251   1.983 -3.7602  1.4270 -0.4908
   72c3c    H13  637   2.529   2.243   1.822  2.1807 -1.2496 -0.0530
   72c3c     C7  638   2.321   2.191   1.821 -0.4312 -0.1264 -0.4537
   72c3c    H14  639   2.250   2.152   1.894  1.5417 -0.2037  1.4612
   72c3c    H15  640   2.330   2.132   1.731 -1.2407 -0.3347 -0.4014
   72c3c     C8  641   2.275   2.336   1.783  0.0053 -0.0492 -0.3564
   72c3c    H16  642   2.178   2.343   1.734  1.7594  0.2109 -3.9348
   72c3c    H17  643   2.346   2.365   1.706  0.1887 -1.3027 -0.6703
   72c3c    H18  644   2.304   2.408   1.859 -1.0050  2.0908 -1.9546
   73c3c      N  645   1.931   2.236   0.459 -0.1192 -0.0483  0.2100
   73c3c     C1  646   1.842   2.326   0.380 -0.3371 -0.1327 -0.1571
   73c3c     C2  647   1.875   2.105   0.431 -0.2609  0.4442  0.6209
   73c3c     C3  648   1.813   2.254   0.252 -0.0902  0.3293 -0.8207
   73c3c     C4  649   1.839   2.103   0.283  0.1498 -0.5275 -0.2162
   73c3c     C5  650   2.072   2.253   0.408  0.5479  0.2647 -0.1828
   73c3c     C6  651   1.946   2.275   0.602 -0.7571 -0.4069  0.1448
   73c3c     H1  652   1.888   2.424   0.367 -0.2590 -0.0868  0.4749
   73c3c     H2  653   1.754   2.346   0.441 -0.8265  0.1079 -0.9354
   73c3c     H3  654   1.942   2.026   0.465 -1.0671 -1.0075 -1.1388
   73c3c     H4  655   1.785   2.085   0.489  1.3150 -1.7926  2.3870
   73c3c     H5  656   1.873   2.287   0.168  3.1602 -0.1939  1.2312
   73c3c     H6  657   1.711   2.271   0.215 -0.6816 -1.1771  0.0685
   73c3c     H7  658   1.928   2.070   0.230 -1.0277  0.6686 -3.0247
   73c3c     H8  659   1.758   2.033   0.265  0.6559 -1.1243 -0.1935
   73c3c     H9  660   2.107   2.355   0.426  0.4715  0.3512 -0.5208
   73c3c    H10  661   2.149   2.191   0.453  1.4215  1.3699 -0.1530
   73c3c    H11  662   2.087   2.241   0.301 -0.8510 -1.9730 -0.1784
   73c3c    H12  663   2.027   2.215   0.643  1.5749  2.5241  0.0249
   73c3c    H13  664   1.973   2.381   0.607  0.2896 -0.6436 -0.6645
   73c3c     C7  665   1.827   2.252   0.696  0.1449 -0.6359 -0.0939
   73c3c    H14  666   1.805   2.145   0.695 -0.2215 -0.5726 -2.7259
   73c3c    H15  667   1.737   2.297   0.654 -0.8919 -2.8471 -0.3063
   73c3c     C8  668   1.836   2.296   0.841 -0.5815 -0.2037 -0.1370
   73c3c    H16  669   1.751   2.271   0.904  0.6910 -3.2243  0.4580
   73c3c    H17  670   1.855   2.403   0.851 -0.3829 -0.1585 -0.9622
   73c3c    H18  671   1.917   2.238   0.885 -0.1896 -1.2819 -2.1886
   74c3c      N  672   2.285   2.089   2.798 -0.4293 -0.3234  0.4372
   74c3c     C1  673   2.309   2.009   2.677  0.3594 -0.1993  1.0826
   74c3c     C2  674   2.139   2.109   2.796 -0.6726  0.3856 -0.2922
   74c3c     C3  675   2.197   1.910   2.662 -0.2755  0.1755  0.4149
   74c3c     C4  676   2.085   1.973   2.741  0.8706  1.1930 -0.2939
   74c3c     C5  677   2.326   2.011   2.920  0.1981 -0.3598 -0.1513
   74c3c     C6  678   2.359   2.217   2.810 -0.7909  0.4281  0.3982
   74c3c     H1  679   2.403   1.954   2.672  0.8460  0.6301  1.0526
   74c3c     H2  680   2.309   2.077   2.592  0.4928  0.3189  1.4953
   74c3c     H3  681   2.096   2.128   2.895 -2.9119  0.3903 -1.2413
   74c3c     H4  682   2.108   2.194   2.736  3.2841 -0.7951 -4.2882
   74c3c     H5  683   2.230   1.821   2.716  0.1972  1.0174  1.5274
   74c3c     H6  684   2.164   1.886   2.561  1.3555  1.3291 -0.4106
   74c3c     H7  685   2.060   1.911   2.827 -0.4767  1.7242 -0.2860
   74c3c     H8  686   1.999   2.002   2.680  0.8633  3.5872  0.7816
   74c3c     H9  687   2.272   1.916   2.928  0.3685 -0.4237  0.2782
   74c3c    H10  688   2.431   1.982   2.922  0.4518  0.5861  2.6067
   74c3c    H11  689   2.303   2.067   3.011 -0.4607 -1.2115  0.2109
   74c3c    H12  690   2.368   2.253   2.912 -1.8666 -1.5491  1.2298
   74c3c    H13  691   2.459   2.180   2.786 -0.8946  0.7574 -0.5766
   74c3c     C7  692   2.327   2.332   2.713  0.6045  0.1077  0.7087
   74c3c    H14  693   2.236   2.384   2.743  1.4442  2.5005 -0.7383
   74c3c    H15  694   2.319   2.303   2.608  1.3654  1.2604  0.3146
   74c3c     C8  695   2.436   2.440   2.707 -0.4055  0.2290  0.5799
   74c3c    H16  696   2.537   2.399   2.709 -0.8927 -0.9887  0.6256
   74c3c    H17  697   2.429   2.496   2.800 -2.0013 -0.7244  1.0332
   74c3c    H18  698   2.434   2.508   2.621  0.9735 -0.4025  0.0279
   75c3c      N  699   1.642   0.560   2.708  0.6997  0.0484  0.6953
   75c3c     C1  700   1.700   0.657   2.619 -0.0550 -0.1569 -0.2270
   75c3c     C2  701   1.510   0.624   2.725 -0.2809  0.5611  0.0115
   75c3c     C3  702   1.592   0.712   2.522 -0.5362  0.8478 -0.1065
   75c3c     C4  703   1.462   0.668   2.587  0.0752 -0.0001 -0.0794
   75c3c     C5  704   1.643   0.427   2.642 -0.0635  0.0889  0.2939
   75c3c     C6  705   1.714   0.549   2.832 -0.2190 -1.0356  0.5211
   75c3c     H1  706   1.784   0.621   2.560  0.0207 -0.8100  0.2622
   75c3c     H2  707   1.740   0.745   2.669  0.9872 -0.6012 -0.2745
   75c3c     H3  708   1.434   0.560   2.770  0.2061 -1.0685 -1.4334
   75c3c     H4  709   1.507   0.719   2.779 -0.1794 -0.2440  1.4580
   75c3c     H5  710   1.582   0.661   2.427  1.2924  0.8946 -0.3564
   75c3c     H6  711   1.598   0.821   2.518 -1.0564  0.8544 -0.7068
   75c3c     H7  712   1.415   0.589   2.528 -0.4361 -0.4127  0.8803
   75c3c     H8  713   1.389   0.749   2.583  0.3882  0.2644 -0.4945
   75c3c     H9  714   1.744   0.389   2.623 -0.1634  1.1057 -2.5753
   75c3c    H10  715   1.591   0.358   2.708 -1.8558  2.1198  1.0299
   75c3c    H11  716   1.603   0.431   2.541  1.4739  0.9447 -0.3075
   75c3c    H12  717   1.667   0.469   2.890 -0.9771 -0.6253  0.4828
   75c3c    H13  718   1.814   0.510   2.813 -0.0646 -0.6676  0.5848
   75c3c     C7  719   1.743   0.666   2.924 -0.0316 -0.6861 -0.6906
   75c3c    H14  720   1.660   0.736   2.937  0.1623 -0.8563  1.6117
   75c3c    H15  721   1.820   0.728   2.878 -0.2878 -1.5125 -2.2574
   75c3c     C8  722   1.788   0.622   3.067 -0.1167 -0.1528  0.1549
   75c3c    H16  723   1.761   0.698   3.140  0.1053 -0.0674  0.1474
   75c3c    H17  724   1.895   0.612   3.079  0.1013  1.5152 -0.2940
   75c3c    H18  725   1.752   0.524   3.098 -0.3153 -0.6814 -1.6418
   76c3c      N  726   1.520   1.922   0.786  0.5332 -0.5528 -0.4286
   76c3c     C1  727   1.556   1.818   0.892 -0.3693 -0.2487 -0.0422
   76c3c     C2  728   1.481   2.042   0.851  0.3625  0.3041 -0.3547
   76c3c     C3  729   1.631   1.897   1.001  0.6669  0.5000 -0.6623
   76c3c     C4  730   1.558   2.033   0.985  0.2396  0.7155 -0.3726
   76c3c     C5  731   1.643   1.943   0.706  0.3613  0.2035  0.1458
   76c3c     C6  732   1.421   1.882   0.691 -0.2490  0.0733  0.1829
   76c3c     H1  733   1.613   1.731   0.859  1.4730  0.2182  1.7980
   76c3c     H2  734   1.469   1.773   0.940  1.0953 -0.4219  2.5602
   76c3c     H3  735   1.518   2.131   0.802  0.4286  1.4745  1.7434
   76c3c     H4  736   1.375   2.058   0.869  0.4249  1.0558 -0.6768
   76c3c     H5  737   1.737   1.903   0.978  0.6946  1.7270 -0.2940
   76c3c     H6  738   1.609   1.851   1.098  1.0929  0.9567 -0.3417
   76c3c     H7  739   1.645   2.099   0.987  0.5777  0.2520  0.5173
   76c3c     H8  740   1.491   2.069   1.063  1.2556  0.8339  0.4571
   76c3c     H9  741   1.727   1.979   0.765 -1.0129  1.9925  1.0533
   76c3c    H10  742   1.680   1.856   0.652  3.5451  0.9924  0.9789
   76c3c    H11  743   1.629   2.017   0.628  0.4077  0.9748  0.8715
   76c3c    H12  744   1.405   1.972   0.632 -1.3682  1.2375  2.2026
   76c3c    H13  745   1.468   1.804   0.631 -1.6847  0.3974 -1.3794
   76c3c     C7  746   1.293   1.815   0.734 -0.0274  0.5927  0.2413
   76c3c    H14  747   1.240   1.855   0.821 -0.3217 -0.8058  0.7211
   76c3c    H15  748   1.325   1.713   0.754 -1.6558 -0.1597 -0.8420
   76c3c     C8  749   1.194   1.805   0.622 -0.2565  0.2285 -0.2545
   76c3c    H16  750   1.109   1.751   0.663  0.7474  1.3343  3.4754
   76c3c    H17  751   1.240   1.754   0.537 -1.2381 -1.6018  0.3106
   76c3c    H18  752   1.158   1.901   0.583  0.8926  1.3234  1.2924
   77c3c      N  753   0.210   0.997   2.071 -0.7062  0.1091  0.2137
   77c3c     C1  754   0.321   1.093   2.078 -0.3210 -0.0696  0.0459
   77c3c     C2  755   0.209   0.952   1.930  0.3256 -0.0688  0.2757
   77c3c     C3  756   0.431   1.017   1.999 -0.3353 -0.5904 -0.1063
   77c3c     C4  757   0.357   0.932   1.893  0.7731  0.2250  0.1806
   77c3c     C5  758   0.239   0.879   2.156 -0.3130  0.5113  0.2570
   77c3c     C6  759   0.087   1.053   2.118  0.4068 -0.4955  1.1988
   77c3c     H1  760   0.339   1.117   2.182 -0.4690  0.1215  0.0295
   77c3c     H2  761   0.295   1.185   2.024  4.3423  0.6141 -1.2513
   77c3c     H3  762   0.140   0.871   1.908 -2.7644  2.7569 -0.9289
   77c3c     H4  763   0.178   1.034   1.865  2.0070 -2.2569 -3.4149
   77c3c     H5  764   0.490   0.955   2.066 -1.1782 -0.7480  0.4817
   77c3c     H6  765   0.495   1.099   1.965 -1.3177  0.8206  1.3691
   77c3c     H7  766   0.392   0.829   1.906  0.5922  0.2565  0.9310
   77c3c     H8  767   0.379   0.968   1.792  1.9197  0.7311  0.6068
   77c3c     H9  768   0.245   0.902   2.262  0.8181  0.8298  0.1253
   77c3c    H10  769   0.154   0.810   2.152 -0.1472  0.3067  0.2910
   77c3c    H11  770   0.330   0.826   2.128  0.5331  2.2000 -0.2729
   77c3c    H12  771   0.008   0.978   2.110 -0.1973  0.0625  1.9188
   77c3c    H13  772   0.090   1.059   2.227 -1.9098  0.8034  1.2336
   77c3c     C7  773   0.045   1.193   2.074 -0.1880  0.0664 -0.0418
   77c3c    H14  774   0.078   1.219   1.974  1.4970 -1.2274  0.1561
   77c3c    H15  775   0.100   1.263   2.138 -1.1421  0.9400 -0.1589
   77c3c     C8  776  -0.103   1.214   2.090 -0.4427  0.4234 -0.3077
   77c3c    H16  777  -0.138   1.189   2.191  0.1405 -3.8888 -1.0811
   77c3c    H17  778  -0.169   1.162   2.020 -0.4672  0.8943 -0.6334
   77c3c    H18  779  -0.121   1.320   2.075 -0.2592  0.5600  0.4127
   78c3c      N  780   0.478   1.352   1.422 -0.7424  0.2440  0.2593
   78c3c     C1  781   0.445   1.206   1.407 -0.3318  0.2714 -0.8212
   78c3c     C2  782   0.512   1.355   1.561 -0.7332  0.1357 -0.5713
   78c3c     C3  783   0.556   1.134   1.490  0.1256  0.3136 -0.7997
   78c3c     C4  784   0.587   1.232   1.602  0.2471 -0.3153 -0.8147
   78c3c     C5  785   0.585   1.385   1.333  0.4203 -0.4955 -0.3502
   78c3c     C6  786   0.359   1.431   1.391  0.2357 -0.2635 -0.5604
   78c3c     H1  787   0.462   1.172   1.305  1.1739  3.4221 -1.6762
   78c3c     H2  788   0.341   1.190   1.436 -0.1252  0.5936  0.1065
   78c3c     H3  789   0.579   1.441   1.568 -0.5914  0.2814 -3.1615
   78c3c     H4  790   0.428   1.360   1.629 -2.7841 -0.5121 -2.9902
   78c3c     H5  791   0.641   1.127   1.423 -0.5591 -1.0625 -1.5401
   78c3c     H6  792   0.535   1.035   1.530 -0.8225  1.2938  1.1634
   78c3c     H7  793   0.692   1.249   1.626  0.4066 -0.6711 -1.2617
   78c3c     H8  794   0.542   1.197   1.694 -1.0957 -0.5794 -1.5630
   78c3c     H9  795   0.614   1.489   1.347 -3.5177  0.8475 -1.3689
   78c3c    H10  796   0.670   1.319   1.324  0.5372 -0.1172 -2.4252
   78c3c    H11  797   0.545   1.375   1.232 -1.8417 -2.2317  0.6521
   78c3c    H12  798   0.331   1.437   1.286 -1.2969  0.2739 -0.1289
   78c3c    H13  799   0.274   1.404   1.454  0.3065  1.5780  0.3535
   78c3c     C7  800   0.366   1.579   1.432 -0.6090  0.2192  0.0476
   78c3c    H14  801   0.441   1.644   1.386 -0.9865  0.0518 -0.8207
   78c3c    H15  802   0.385   1.593   1.538 -1.3714  1.1365  0.0770
   78c3c     C8  803   0.236   1.662   1.411  0.5014 -0.4530  0.5142
   78c3c    H16  804   0.192   1.667   1.311  0.8359 -0.5850  0.3597
   78c3c    H17  805   0.241   1.761   1.455 -2.0684 -0.2911  0.5198
   78c3c    H18  806   0.160   1.606   1.466  1.3028 -0.2968  1.7980
   79c3c      N  807   0.847   1.035   2.921 -0.0749  0.2762  0.2998
   79c3c     C1  808   0.717   1.087   2.964 -0.4957  0.3760  0.2320
   79c3c     C2  809   0.916   0.983   3.039 -0.1161 -0.0065  0.4950
   79c3c     C3  810   0.743   1.133   3.116 -0.8746 -0.2594  0.0142
   79c3c     C4  811   0.873   1.068   3.157 -0.1282 -0.1163 -0.3346
   79c3c     C5  812   0.821   0.924   2.830 -0.3379 -0.1105  0.3028
   79c3c     C6  813   0.928   1.132   2.844 -0.1148  0.3478  0.3335
   79c3c     H1  814   0.651   1.001   2.964  2.9856 -2.3942 -1.2570
   79c3c     H2  815   0.664   1.159   2.901 -3.3370 -1.5374  0.3644
   79c3c     H3  816   0.887   0.883   3.073 -0.6439  0.8979  2.8353
   79c3c     H4  817   1.023   0.970   3.026 -0.1887  0.2661 -0.4025
   79c3c     H5  818   0.665   1.102   3.185 -1.0707 -0.3378 -0.2438
   79c3c     H6  819   0.754   1.241   3.120 -2.4514 -0.0921 -0.0378
   79c3c     H7  820   0.852   1.015   3.250  3.0644  1.1552  1.1929
   79c3c     H8  821   0.943   1.144   3.193 -0.7405 -0.2084  1.1063
   79c3c     H9  822   0.764   0.957   2.743 -0.0900 -1.9999 -0.5996
   79c3c    H10  823   0.916   0.886   2.792  0.7262  0.9155  1.8918
   79c3c    H11  824   0.769   0.839   2.875 -0.7249  0.0104  0.0874
   79c3c    H12  825   1.025   1.083   2.831  0.3367  0.4595  3.1153
   79c3c    H13  826   0.883   1.150   2.747  0.0166  0.5516  0.3105
   79c3c     C7  827   0.955   1.272   2.904  0.5849  0.0364 -0.1275
   79c3c    H14  828   1.017   1.265   2.993  2.0494 -0.0139 -1.1355
   79c3c    H15  829   0.862   1.319   2.935  1.1617  0.5791  0.7856
   79c3c     C8  830   1.015   1.354   2.800 -0.9045 -1.0177  0.3453
   79c3c    H16  831   1.046   1.448   2.846  0.8385 -1.1990 -0.3789
   79c3c    H17  832   0.958   1.369   2.709  0.8152 -1.2742 -0.8097
   79c3c    H18  833   1.111   1.317   2.762 -1.3996  0.0345 -2.0199
   80c3c      N  834   0.307   0.390   1.294  0.1497  0.4708 -0.1833
   80c3c     C1  835   0.294   0.239   1.271 -0.0309 -1.3701 -0.5567
   80c3c     C2  836   0.451   0.404   1.256  0.3123  0.1445 -0.2798
   80c3c     C3  837   0.365   0.210   1.145 -0.1337 -0.6588 -0.4169
   80c3c     C4  838   0.458   0.326   1.124 -0.5953 -0.1255 -0.4293
   80c3c     C5  839   0.209   0.462   1.213  0.4298  0.2274  0.6791
   80c3c     C6  840   0.281   0.441   1.434  0.1120 -0.0287  0.5468
   80c3c     H1  841   0.191   0.202   1.266 -0.5898 -0.2359  1.7170
   80c3c     H2  842   0.345   0.171   1.338  1.0857  0.1590  0.1647
   80c3c     H3  843   0.451   0.512   1.242 -0.1610 -0.1092 -2.4831
   80c3c     H4  844   0.532   0.377   1.324  0.4263  1.2498  0.0406
   80c3c     H5  845   0.306   0.215   1.053  1.6447 -1.7373 -1.6457
   80c3c     H6  846   0.411   0.111   1.154  0.8833 -0.0226  1.4268
   80c3c     H7  847   0.426   0.378   1.035 -1.3923 -1.2751 -0.8356
   80c3c     H8  848   0.560   0.294   1.103 -0.2006 -0.9404  2.3838
   80c3c     H9  849   0.105   0.467   1.245  0.4699 -0.7599  0.9853
   80c3c    H10  850   0.245   0.564   1.223 -2.5162  1.0305  4.1612
   80c3c    H11  851   0.209   0.448   1.105 -1.4669 -0.0365  0.7066
   80c3c    H12  852   0.321   0.542   1.436 -0.0929  0.0607  0.0194
   80c3c    H13  853   0.172   0.442   1.442  0.1277 -1.7641  1.4434
   80c3c     C7  854   0.342   0.352   1.538 -0.2347  0.0062 -0.5390
   80c3c    H14  855   0.443   0.314   1.518 -0.4423 -0.6447 -0.3606
   80c3c    H15  856   0.281   0.263   1.553 -1.4410  0.7597 -0.9337
   80c3c     C8  857   0.370   0.435   1.665 -0.5022 -0.8998  0.1088
   80c3c    H16  858   0.275   0.456   1.714 -0.5292  0.4118 -0.4801
   80c3c    H17  859   0.424   0.527   1.647  1.8843 -2.5046 -1.2071
   80c3c    H18  860   0.437   0.388   1.737  0.1556 -0.8809 -0.4852
   81c3c      N  861   1.442   2.540   1.235 -0.2805 -0.5998 -0.2724
   81c3c     C1  862   1.492   2.635   1.138 -0.4409 -0.4262 -0.3108
   81c3c     C2  863   1.427   2.420   1.157  0.6183 -0.1669 -0.7256
   81c3c     C3  864   1.611   2.559   1.079 -0.1461  0.2773 -0.1967
   81c3c     C4  865   1.552   2.419   1.063  0.1390 -0.5552 -0.2153
   81c3c     C5  866   1.537   2.515   1.341  0.0830  0.2192  0.3966
   81c3c     C6  867   1.321   2.597   1.301 -0.2550  0.3644  0.4144
   81c3c     H1  868   1.511   2.731   1.185 -1.0412  1.1369 -3.1274
   81c3c     H2  869   1.430   2.654   1.050  1.1381  1.3744 -1.0740
   81c3c     H3  870   1.417   2.326   1.213 -1.8833  0.5294  0.0827
   81c3c     H4  871   1.331   2.422   1.104  0.0551 -0.0477  0.2862
   81c3c     H5  872   1.699   2.554   1.142 -0.5891  3.0291  0.7353
   81c3c     H6  873   1.638   2.596   0.980 -0.2781 -0.7254 -0.6055
   81c3c     H7  874   1.620   2.339   1.092 -0.6195 -0.4909  1.8949
   81c3c     H8  875   1.515   2.405   0.962 -1.5828 -0.7284  0.4161
   81c3c     H9  876   1.574   2.611   1.377 -2.1226  0.8055  1.2369
   81c3c    H10  877   1.483   2.465   1.422  0.8850  0.3834  1.0404
   81c3c    H11  878   1.620   2.451   1.313  0.0935 -0.1416  1.2159
   81c3c    H12  879   1.265   2.522   1.356  1.4529 -1.0384  0.2872
   81c3c    H13  880   1.351   2.674   1.373  1.0794  1.1658 -0.9560
   81c3c     C7  881   1.208   2.674   1.215 -0.1149  0.1826  0.1373
   81c3c    H14  882   1.162   2.615   1.136 -1.5976 -0.2526  1.2917
   81c3c    H15  883   1.249   2.767   1.175  1.0478  0.4580  1.8942
   81c3c     C8  884   1.099   2.713   1.310  1.0513 -0.3690  0.3806
   81c3c    H16  885   1.144   2.760   1.397 -0.1383  0.0812  0.7724
   81c3c    H17  886   1.029   2.633   1.338  1.0438 -0.0796  1.2014
   81c3c    H18  887   1.032   2.783   1.261  1.9878  0.0117 -0.3741
   82c3c      N  888   2.964   0.489   2.546  0.8797 -0.1402 -0.0521
   82c3c     C1  889   3.071   0.435   2.632 -0.5638  0.5218  0.6119
   82c3c     C2  890   3.017   0.621   2.498  0.5501 -0.3706  0.7539
   82c3c     C3  891   3.208   0.498   2.579 -0.4304  0.7117 -0.4367
   82c3c     C4  892   3.173   0.601   2.474 -0.0721  0.1982 -0.5946
   82c3c     C5  893   2.958   0.391   2.433  0.1683 -1.2461 -0.2618
   82c3c     C6  894   2.828   0.496   2.602 -0.1822 -0.0926 -0.6810
   82c3c     H1  895   3.078   0.326   2.638  0.1652  0.4185 -1.7823
   82c3c     H2  896   3.052   0.465   2.735  0.7206  0.4672  0.8753
   82c3c     H3  897   2.973   0.652   2.404  2.6620  0.4020  0.0047
   82c3c     H4  898   2.998   0.704   2.566 -2.3225  0.5821 -1.0896
   82c3c     H5  899   3.261   0.421   2.523  1.1049  0.4460  1.3102
   82c3c     H6  900   3.281   0.537   2.650  2.7601 -2.1606 -1.9972
   82c3c     H7  901   3.213   0.575   2.375 -0.3648  0.8609 -0.8856
   82c3c     H8  902   3.227   0.695   2.487 -1.0145  0.9299 -1.8690
   82c3c     H9  903   2.919   0.295   2.466 -1.1472 -0.2852  1.0362
   82c3c    H10  904   2.901   0.441   2.355  0.8044  0.1734  0.1658
   82c3c    H11  905   3.055   0.374   2.386  0.3803  0.9888 -0.7279
   82c3c    H12  906   2.771   0.556   2.531  1.9143  1.8548 -0.8032
   82c3c    H13  907   2.784   0.396   2.601 -1.1322  0.3252 -2.5232
   82c3c     C7  908   2.827   0.579   2.738 -0.3234  0.4371  0.1249
   82c3c    H14  909   2.912   0.646   2.752  1.2869 -2.2123  3.8742
   82c3c    H15  910   2.828   0.500   2.813  0.0457  2.8417  2.7600
   82c3c     C8  911   2.698   0.664   2.759  0.4169 -0.2819 -0.7702
   82c3c    H16  912   2.701   0.734   2.675 -0.3589  0.9026  0.1781
   82c3c    H17  913   2.689   0.733   2.842  2.0491 -1.5688  0.5096
   82c3c    H18  914   2.604   0.610   2.768 -0.1572  0.9815  0.8542
   83c3c      N  915   2.187   2.861   2.609  0.2018  0.0327 -0.3445
   83c3c     C1  916   2.284   2.896   2.715 -0.5207 -0.2343  0.2127
   83c3c     C2  917   2.264   2.883   2.482  0.7387  0.2211 -0.4516
   83c3c     C3  918   2.420   2.857   2.670  0.8239  0.3582  0.1623
   83c3c     C4  919   2.405   2.839   2.514 -0.6295 -0.4094  0.1802
   83c3c     C5  920   2.153   2.718   2.616 -0.5383 -0.5425 -0.5959
   83c3c     C6  921   2.056   2.929   2.626 -0.0883 -0.5755 -0.3674
   83c3c     H1  922   2.255   2.845   2.806  0.5038 -1.7022 -0.2684
   83c3c     H2  923   2.287   2.998   2.755 -0.3103 -0.3088  0.3877
   83c3c     H3  924   2.225   2.826   2.397 -0.0494  1.3120 -0.8421
   83c3c     H4  925   2.257   2.986   2.448 -1.8110  0.1041 -0.4137
   83c3c     H5  926   2.422   2.760   2.720 -1.7016 -0.0160 -0.3892
   83c3c     H6  927   2.502   2.923   2.698  1.4046 -0.4588  0.4102
   83c3c     H7  928   2.420   2.732   2.500 -2.1187 -0.6276  0.2543
   83c3c     H8  929   2.487   2.887   2.460  1.1324 -1.6066  1.7232
   83c3c     H9  930   2.088   2.701   2.702  0.8848  3.1049  1.3356
   83c3c    H10  931   2.096   2.678   2.532  0.5708  0.1620 -1.7124
   83c3c    H11  932   2.237   2.650   2.629 -1.6950 -1.7371  0.8305
   83c3c    H12  933   1.988   2.896   2.547  1.2972 -2.6175 -0.7380
   83c3c    H13  934   2.006   2.909   2.721 -0.5033 -0.5912 -0.5861
   83c3c     C7  935   2.056   3.086   2.611 -0.0302 -0.8288 -0.0545
   83c3c    H14  936   2.067   3.122   2.508  1.0376  0.9029  0.6392
   83c3c    H15  937   2.131   3.122   2.680  0.4594 -1.0083 -0.4900
   83c3c     C8  938   1.922   3.142   2.657 -0.2238  0.0910 -0.1519
   83c3c    H16  939   1.917   3.251   2.659  0.2645  0.1539 -1.7874
   83c3c    H17  940   1.900   3.112   2.759  0.0913 -1.2637 -0.4758
   83c3c    H18  941   1.840   3.093   2.605  0.5511  0.6023 -1.8829
   84c3c      N  942   1.218   2.318   1.840 -0.2691  0.7030  0.1292
   84c3c     C1  943   1.119   2.253   1.755  0.6296 -0.8853 -0.5990
   84c3c     C2  944   1.324   2.352   1.744 -0.1978 -0.3009  0.1830
   84c3c     C3  945   1.110   2.352   1.632 -0.5758  0.3043 -0.1632
   84c3c     C4  946   1.248   2.410   1.626 -0.6714 -0.5769 -0.2460
   84c3c     C5  947   1.171   2.442   1.913 -0.1668 -0.0193  0.5666
   84c3c     C6  948   1.264   2.231   1.945 -0.3218  0.7530 -0.1328
   84c3c     H1  949   1.018   2.244   1.795  1.3888 -0.0871  1.5527
   84c3c     H2  950   1.151   2.157   1.714  0.6850 -0.6243 -1.1773
   84c3c     H3  951   1.396   2.420   1.789 -0.5466 -0.8850  1.6491
   84c3c     H4  952   1.370   2.257   1.716 -1.8562 -1.5503  1.5398
   84c3c     H5  953   1.048   2.441   1.641  1.9278  2.0806  0.0295
   84c3c     H6  954   1.081   2.297   1.543 -2.7344 -0.0668  0.7523
   84c3c     H7  955   1.250   2.519   1.636  2.0717 -0.6676  0.5612
   84c3c     H8  956   1.304   2.388   1.536  0.3873  1.5386 -0.1499
   84c3c     H9  957   1.261   2.491   1.950  1.8315 -2.1982 -1.1813
   84c3c    H10  958   1.131   2.519   1.846  2.7465 -0.0607 -1.3379
   84c3c    H11  959   1.102   2.430   1.996 -2.0911 -0.8431 -1.1050
   84c3c    H12  960   1.328   2.289   2.012 -1.6618  2.5197 -0.3499
   84c3c    H13  961   1.179   2.204   2.008  0.2550 -0.8522 -0.0112
   84c3c     C7  962   1.344   2.101   1.920 -0.7821  0.5486 -0.3413
   84c3c    H14  963   1.441   2.113   1.871 -0.5708 -0.7961 -0.2534
   84c3c    H15  964   1.289   2.046   1.844 -1.4203  0.9176 -0.1521
   84c3c     C8  965   1.353   2.014   2.042 -0.0476  1.1171 -1.0680
   84c3c    H16  966   1.251   1.979   2.059  0.0182  1.9218  1.2175
   84c3c    H17  967   1.393   2.063   2.130  0.5981 -1.3920  0.0708
   84c3c    H18  968   1.423   1.932   2.030  0.7093  1.7972 -1.3547
   85c3c      N  969   2.401   0.365   0.002  0.5604  0.5739 -0.3782
   85c3c     C1  970   2.414   0.280   0.125 -0.8846  0.2339  0.4335
   85c3c     C2  971   2.420   0.503   0.052 -0.0192 -0.2631 -0.4631
   85c3c     C3  972   2.519   0.351   0.209  0.0732 -0.6741 -0.3337
   85c3c     C4  973   2.528   0.496   0.162 -0.0472  0.4155  0.1583
   85c3c     C5  974   2.514   0.334  -0.083 -0.3375  0.1725  0.1923
   85c3c     C6  975   2.266   0.343  -0.065 -0.6300 -0.2509 -0.1449
   85c3c     H1  976   2.440   0.175   0.106  1.7807  0.6447  1.5210
   85c3c     H2  977   2.322   0.283   0.183 -1.5182 -1.1094 -0.4703
   85c3c     H3  978   2.447   0.578  -0.023  0.6471  0.7935  0.8025
   85c3c     H4  979   2.334   0.555   0.094  0.5588 -0.3613  0.8471
   85c3c     H5  980   2.612   0.297   0.194  0.5390 -0.7289  2.4723
   85c3c     H6  981   2.500   0.346   0.316 -0.1567 -1.8181 -0.4197
   85c3c     H7  982   2.619   0.521   0.108 -0.6970 -0.0218 -1.1493
   85c3c     H8  983   2.516   0.569   0.242 -2.5374  0.2322 -0.0299
   85c3c     H9  984   2.500   0.236  -0.129  1.6836 -0.2681  0.4982
   85c3c    H10  985   2.501   0.404  -0.165 -1.0303 -0.6170 -0.3806
   85c3c    H11  986   2.612   0.355  -0.040  0.6325 -1.1530 -1.3145
   85c3c    H12  987   2.249   0.424  -0.137  0.6085 -0.1645 -0.3473
   85c3c    H13  988   2.268   0.260  -0.135  0.2117 -0.9375  0.6902
   85c3c     C7  989   2.143   0.333   0.028 -1.2739  0.3477  0.3118
   85c3c    H14  990   2.146   0.422   0.092 -1.4576  0.1033  0.6578
   85c3c    H15  991   2.150   0.246   0.092 -0.6598  0.5358  0.5090
   85c3c     C8  992   2.009   0.353  -0.038  0.3068  0.4684  0.3238
   85c3c    H16  993   1.977   0.258  -0.080 -0.0439 -1.2317  4.2415
   85c3c    H17  994   2.000   0.437  -0.107  1.5383 -0.2537 -0.7223
   85c3c    H18  995   1.937   0.385   0.038 -1.5664 -2.0640 -0.3158
   86c3c      N  996   2.750   1.978   0.241  0.0329  0.2656 -0.0301
   86c3c     C1  997   2.642   1.995   0.144  0.2312  0.4893  0.6190
   86c3c     C2  998   2.868   2.001   0.156 -0.0198  0.1795 -0.0083
   86c3c     C3  999   2.681   2.103   0.049  0.6746  0.5466 -0.0130
   86c3c     C4 1000   2.826   2.122   0.067 -0.0649  0.0721  0.1307
   86c3c     C5 1001   2.744   2.081   0.347  0.0700  0.5814  0.7598
   86c3c     C6 1002   2.751   1.841   0.300 -0.0567 -0.1001 -0.2287
   86c3c     H1 1003   2.550   2.027   0.192 -0.1971  1.3583 -0.7711
   86c3c     H2 1004   2.627   1.906   0.084 -1.9401  1.3017 -0.0919
   86c3c     H3 1005   2.965   2.020   0.203  1.4950 -1.9207 -2.1518
   86c3c     H4 1006   2.893   1.920   0.087 -0.8520  0.9406 -1.2160
   86c3c     H5 1007   2.641   2.202   0.067  3.0052  1.4265  0.5553
   86c3c     H6 1008   2.651   2.091  -0.055 -1.1778 -0.4373  0.6165
   86c3c     H7 1009   2.860   2.216   0.110  0.4301 -0.2465  0.4491
   86c3c     H8 1010   2.885   2.114  -0.024  1.3406 -0.3704  1.0548
   86c3c     H9 1011   2.651   2.084   0.404  0.3028  4.8142  1.1209
   86c3c    H10 1012   2.824   2.062   0.419 -0.1262 -0.3969  0.7285
   86c3c    H11 1013   2.742   2.186   0.316  1.9337 -0.0408 -1.5373
   86c3c    H12 1014   2.828   1.830   0.377  0.7326 -0.6656 -1.0847
   86c3c    H13 1015   2.663   1.836   0.364  1.0872  0.9767  1.4768
   86c3c     C7 1016   2.774   1.722   0.214  0.3190 -0.2311 -0.8140
   86c3c    H14 1017   2.878   1.721   0.180  0.3390 -1.2103 -0.7344
   86c3c    H15 1018   2.723   1.713   0.118 -0.9257  1.6456 -0.3547
   86c3c     C8 1019   2.744   1.590   0.281  0.1593 -0.6360  0.1541
   86c3c    H16 1020   2.666   1.599   0.357  1.3977 -1.5177  1.5667
   86c3c    H17 1021   2.825   1.554   0.345  0.0020  0.0198  0.7258
   86c3c    H18 1022   2.717   1.500   0.226 -1.7587  0.3645 -0.6013
   87c3c      N 1023   0.497   0.306   0.540  0.3160 -0.3913  0.1062
   87c3c     C1 1024   0.631   0.320   0.596 -0.3509  0.3987  0.1412
   87c3c     C2 1025   0.431   0.235   0.647  0.3446  0.0243  0.1243
   87c3c     C3 1026   0.606   0.368   0.741 -0.1514 -0.3008  0.1014
   87c3c     C4 1027   0.474   0.296   0.778 -0.5598 -0.3285  0.1632
   87c3c     C5 1028   0.433   0.431   0.530  0.0339  0.1690 -0.2130
   87c3c     C6 1029   0.493   0.245   0.399 -0.2692  0.1757 -0.2611
   87c3c     H1 1030   0.704   0.375   0.537  0.2485 -0.3986  0.1262
   87c3c     H2 1031   0.684   0.225   0.603 -1.8557 -0.2742  3.3149
   87c3c     H3 1032   0.322   0.239   0.641  0.4266 -1.2755 -3.2102
   87c3c     H4 1033   0.454   0.128   0.655  0.5381  0.1000  0.5651
   87c3c     H5 1034   0.588   0.475   0.750  2.5717  0.0101  2.4509
   87c3c     H6 1035   0.689   0.347   0.809 -1.3484 -0.1490  1.6355
   87c3c     H7 1036   0.392   0.359   0.811 -1.4503 -2.4031  2.0209
   87c3c     H8 1037   0.491   0.214   0.847  2.2403  1.6603  1.9175
   87c3c     H9 1038   0.494   0.490   0.461  1.7007 -0.1726  0.9175
   87c3c    H10 1039   0.330   0.437   0.496 -0.2043  1.2749  0.6850
   87c3c    H11 1040   0.432   0.499   0.615  0.4145  0.8861 -0.7782
   87c3c    H12 1041   0.389   0.236   0.368  0.2356 -0.0273 -1.9133
   87c3c    H13 1042   0.562   0.299   0.335 -1.4975 -0.3855 -2.1145
   87c3c     C7 1043   0.537   0.097   0.400 -0.5196 -0.2697 -0.3598
   87c3c    H14 1044   0.469   0.027   0.451  1.6393 -1.2172  1.2858
   87c3c    H15 1045   0.634   0.086   0.449 -0.3047 -0.1590 -0.7639
   87c3c     C8 1046   0.542   0.052   0.254  0.2385 -0.4077 -0.3887
   87c3c    H16 1047   0.594  -0.044   0.253  2.3390  0.7237 -1.1352
   87c3c    H17 1048   0.604   0.120   0.197  0.3399  0.2504  0.4987
   87c3c    H18 1049   0.447   0.042   0.203 -0.4221  2.5823  0.2024
   88c3c      N 1050   0.858   2.074   1.010  0.0135 -0.2359  1.3921
   88c3c     C1 1051   0.850   1.963   1.105  0.0112  0.2624  0.2902
   88c3c     C2 1052   0.958   2.027   0.922  0.0062 -0.2067  0.4965
   88c3c     C3 1053   0.849   1.847   1.004 -0.0879 -0.0099 -0.0347
   88c3c     C4 1054   0.933   1.880   0.890  0.3351 -0.5112  0.6594
   88c3c     C5 1055   0.735   2.100   0.932 -0.4226  0.0755  0.1926
   88c3c     C6 1056   0.882   2.198   1.084  0.4348  0.1276  0.0426
   88c3c     H1 1057   0.764   1.974   1.171  0.1816 -0.7199  0.6821
   88c3c     H2 1058   0.937   1.962   1.171  1.3697 -1.0728 -1.4849
   88c3c     H3 1059   0.981   2.081   0.830  3.4279 -1.4353  0.5653
   88c3c     H4 1060   1.052   2.037   0.977 -1.0134 -1.4201  2.5058
   88c3c     H5 1061   0.749   1.832   0.962  0.2502  1.0835 -1.2485
   88c3c     H6 1062   0.874   1.758   1.063  1.5471 -0.0657 -0.8072
   88c3c     H7 1063   0.878   1.868   0.796 -2.3367 -0.6579  2.1702
   88c3c     H8 1064   1.017   1.811   0.886 -0.2137 -1.1527  0.0036
   88c3c     H9 1065   0.762   2.170   0.853 -3.9288  0.8440 -0.4261
   88c3c    H10 1066   0.689   2.018   0.876 -1.8170 -2.0253  4.2453
   88c3c    H11 1067   0.659   2.142   0.998 -1.8754 -0.8401 -0.8531
   88c3c    H12 1068   0.870   2.284   1.019  1.2743 -0.0486 -0.3581
   88c3c    H13 1069   0.806   2.202   1.162 -0.7595  1.7540 -1.1821
   88c3c     C7 1070   1.011   2.199   1.175  0.6873 -0.2035  0.1240
   88c3c    H14 1071   1.102   2.162   1.129  0.2107  2.8060 -3.5328
   88c3c    H15 1072   0.991   2.135   1.260  2.8973 -1.2702 -0.1299
   88c3c     C8 1073   1.042   2.346   1.216  0.0140 -0.1660 -0.4157
   88c3c    H16 1074   0.978   2.389   1.294  2.6952 -0.3877  1.9819
   88c3c    H17 1075   1.034   2.424   1.141  3.2687  0.9997  0.3803
   88c3c    H18 1076   1.143   2.349   1.257  0.6046  0.4710 -1.9107
   89c3c      N 1077   2.809   2.666   1.050 -0.2371 -0.5386  0.5705
   89c3c     C1 1078   2.806   2.759   0.936 -0.1149  0.0804 -0.9230
   89c3c     C2 1079   2.797   2.530   0.993 -0.7314  0.4022  0.2317
   89c3c     C3 1080   2.900   2.687   0.829 -0.3493 -0.7049 -0.9763
   89c3c     C4 1081   2.880   2.537   0.858  0.4862  0.1656 -0.4718
   89c3c     C5 1082   2.942   2.684   1.116  0.4776 -0.0517 -0.3770
   89c3c     C6 1083   2.711   2.711   1.155 -0.2254 -0.2766  0.5621
   89c3c     H1 1084   2.837   2.863   0.939  0.3302 -0.0213 -1.8542
   89c3c     H2 1085   2.719   2.760   0.871  0.1419  1.9709 -1.2470
   89c3c     H3 1086   2.838   2.452   1.056 -0.5901  0.9022  0.7618
   89c3c     H4 1087   2.689   2.514   0.983 -0.5100 -0.0474 -1.6310
   89c3c     H5 1088   3.006   2.712   0.825 -0.5263  0.6970  2.1466
   89c3c     H6 1089   2.850   2.709   0.734 -2.4276  1.2500  0.5074
   89c3c     H7 1090   2.977   2.488   0.863  1.7599  2.6032 -0.6337
   89c3c     H8 1091   2.814   2.488   0.786  1.1668 -2.3005  0.5239
   89c3c     H9 1092   2.958   2.788   1.146  1.9019 -0.8163  1.6787
   89c3c    H10 1093   2.941   2.633   1.213 -1.1560 -0.8296 -0.7861
   89c3c    H11 1094   3.031   2.656   1.059  1.6334  1.8521  0.4207
   89c3c    H12 1095   2.711   2.638   1.236  0.4650  0.7145  1.4710
   89c3c    H13 1096   2.742   2.805   1.201 -0.9657  0.0284  0.4508
   89c3c     C7 1097   2.564   2.744   1.113 -0.3567  0.1522 -0.2126
   89c3c    H14 1098   2.506   2.703   1.196 -3.5553  2.4074 -1.2412
   89c3c    H15 1099   2.544   2.688   1.021 -2.1471  2.0726 -1.0362
   89c3c     C8 1100   2.533   2.893   1.090  0.1024  0.0543  0.0299
   89c3c    H16 1101   2.564   2.949   1.178 -2.0536 -1.6445  1.8873
   89c3c    H17 1102   2.425   2.894   1.077 -0.0233  1.8076  1.0405
   89c3c    H18 1103   2.580   2.932   0.999  1.6610 -0.3832  0.6212
   90c3c      N 1104   1.506   0.033   2.106  0.6063  0.2784  0.2344
   90c3c     C1 1105   1.460   0.172   2.097 -0.2459  0.5941  0.2715
   90c3c     C2 1106   1.406  -0.037   2.023  0.2267  0.0358  0.0639
   90c3c     C3 1107   1.404   0.186   1.959 -0.6716  0.1521 -1.1589
   90c3c     C4 1108   1.365   0.054   1.904 -0.2718  0.7054 -0.1439
   90c3c     C5 1109   1.638   0.019   2.035 -0.0383  0.3491 -0.6149
   90c3c     C6 1110   1.510  -0.011   2.248 -0.8836  0.0709  0.1782
   90c3c     H1 1111   1.533   0.247   2.127 -0.5207  0.4831  1.2222
   90c3c     H2 1112   1.382   0.202   2.168  0.7484  1.8122  0.8659
   90c3c     H3 1113   1.439  -0.137   1.996  1.0813 -0.3485  2.4382
   90c3c     H4 1114   1.308  -0.054   2.068 -0.1481 -0.2490 -0.8388
   90c3c     H5 1115   1.491   0.221   1.903 -0.5730 -1.4273 -2.0163
   90c3c     H6 1116   1.325   0.260   1.944 -0.1342  1.0798  0.4407
   90c3c     H7 1117   1.426   0.026   1.818  0.8415 -2.1018  1.4820
   90c3c     H8 1118   1.257   0.041   1.898 -0.4547  1.5139  1.0998
   90c3c     H9 1119   1.631   0.036   1.927  0.3628  1.2368 -0.5058
   90c3c    H10 1120   1.709   0.089   2.078 -0.3197  0.4276 -0.2773
   90c3c    H11 1121   1.686  -0.078   2.043 -0.7685 -0.0332 -0.8187
   90c3c    H12 1122   1.563  -0.105   2.265  0.3370  0.6808 -0.2141
   90c3c    H13 1123   1.563   0.061   2.310  1.7590 -1.9899  0.3856
   90c3c     C7 1124   1.366  -0.031   2.315  0.0878 -0.8718  0.1242
   90c3c    H14 1125   1.318  -0.113   2.263 -1.0427  0.2614 -0.6374
   90c3c    H15 1126   1.295   0.051   2.303  1.1357  0.1173  0.6050
   90c3c     C8 1127   1.371  -0.060   2.468  0.4117  0.1610  0.4399
   90c3c    H16 1128   1.416   0.023   2.521 -1.4124  1.2289  0.3460
   90c3c    H17 1129   1.438  -0.143   2.492  0.8678  0.4827  0.2821
   90c3c    H18 1130   1.277  -0.070   2.522  1.9250 -2.9409  2.6787
   91c3c      N 1131   2.859   3.009   2.180 -0.1554  0.1115  0.1045
   91c3c     C1 1132   2.868   2.903   2.279  0.1249 -0.0148  0.4402
   91c3c     C2 1133   2.764   2.955   2.087  0.6300 -0.1017 -0.0856
   91c3c     C3 1134   2.724   2.859   2.303  0.3152  0.8230  0.2231
   91c3c     C4 1135   2.651   2.888   2.172 -0.5318  0.0057 -0.1695
   91c3c     C5 1136   2.818   3.137   2.234  0.0247  0.0685  0.0187
   91c3c     C6 1137   2.984   3.046   2.113 -0.4736  0.8286  0.5290
   91c3c     H1 1138   2.921   2.937   2.368  0.9757 -0.1998  0.0081
   91c3c     H2 1139   2.917   2.810   2.249  1.6142 -0.1223  3.0217
   91c3c     H3 1140   2.727   3.040   2.029 -0.7735 -2.0201 -2.0962
   91c3c     H4 1141   2.806   2.888   2.012 -1.7280 -1.8337  0.0894
   91c3c     H5 1142   2.681   2.919   2.384  1.0526 -0.2793  1.4444
   91c3c     H6 1143   2.726   2.757   2.340 -2.0415  0.6941  0.0388
   91c3c     H7 1144   2.563   2.952   2.177  0.8968  2.1499 -1.3660
   91c3c     H8 1145   2.613   2.793   2.135 -1.1116  0.1768 -0.0157
   91c3c     H9 1146   2.789   3.217   2.166  0.3943 -0.0688 -0.3036
   91c3c    H10 1147   2.728   3.116   2.291  0.8292 -1.1997  0.8583
   91c3c    H11 1148   2.885   3.185   2.305 -2.1541  0.5373  1.8106
   91c3c    H12 1149   2.966   3.119   2.034 -1.9195  0.1877  0.2490
   91c3c    H13 1150   3.053   3.093   2.183 -1.4586  0.3014  1.8893
   91c3c     C7 1151   3.071   2.930   2.059 -0.4542 -0.7568 -0.3701
   91c3c    H14 1152   3.010   2.858   2.004 -1.5383  1.0694 -1.5978
   91c3c    H15 1153   3.121   2.867   2.133  1.2238  0.3602 -0.5312
   91c3c     C8 1154   3.162   2.970   1.947  0.0850 -0.1379 -0.3508
   91c3c    H16 1155   3.239   3.038   1.985 -0.0549  0.6905 -1.5021
   91c3c    H17 1156   3.110   3.005   1.858  2.1081  0.5866 -1.2934
   91c3c    H18 1157   3.219   2.885   1.910 -1.7420 -1.6894  0.3555
   92c3c      N 1158   2.969   0.788   0.971  0.7134  0.7874 -0.4576
   92c3c     C1 1159   3.029   0.763   1.105 -0.4367 -0.9702  0.4557
   92c3c     C2 1160   2.842   0.722   0.981 -0.2037 -0.2044  0.0706
   92c3c     C3 1161   2.909   0.758   1.204  0.1403 -0.5660 -0.0271
   92c3c     C4 1162   2.785   0.736   1.117 -0.4259  0.2219  0.1759
   92c3c     C5 1163   2.941   0.931   0.959 -0.3906 -0.2242  0.2771
   92c3c     C6 1164   3.054   0.753   0.852  0.5233  0.2705  0.7802
   92c3c     H1 1165   3.101   0.840   1.135 -1.2848 -0.0414  0.1318
   92c3c     H2 1166   3.071   0.662   1.104  3.5483  0.5865 -0.4658
   92c3c     H3 1167   2.776   0.763   0.905  0.8014  1.3992  0.0306
   92c3c     H4 1168   2.866   0.616   0.971  2.2674  0.5007 -1.8267
   92c3c     H5 1169   2.894   0.844   1.269 -2.1536 -2.3815  1.9084
   92c3c     H6 1170   2.920   0.678   1.277  1.3501 -0.1362  0.2733
   92c3c     H7 1171   2.724   0.827   1.114  2.1712  2.0574  1.8842
   92c3c     H8 1172   2.730   0.648   1.150  3.8462 -2.7227 -0.2620
   92c3c     H9 1173   3.030   0.993   0.967 -0.0226 -0.9480  1.9212
   92c3c    H10 1174   2.911   0.958   0.858  0.8122  0.0875 -0.0070
   92c3c    H11 1175   2.862   0.963   1.028 -1.2109  1.1798 -1.2626
   92c3c    H12 1176   3.002   0.784   0.761 -2.5111 -0.3209  2.2592
   92c3c    H13 1177   3.146   0.811   0.866  0.5750  0.5258 -0.5050
   92c3c     C7 1178   3.085   0.598   0.832  0.0646 -0.5420 -0.9113
   92c3c    H14 1179   2.990   0.551   0.809 -1.3854  1.1093  1.5098
   92c3c    H15 1180   3.132   0.552   0.919 -2.5593  1.8017  1.8451
   92c3c     C8 1181   3.169   0.575   0.710  0.2029  0.3087  0.2376
   92c3c    H16 1182   3.198   0.471   0.708 -0.6356  0.0568  1.0074
   92c3c    H17 1183   3.254   0.644   0.709 -0.8401  1.6763 -3.6934
   92c3c    H18 1184   3.106   0.606   0.626 -1.7411  0.2764  1.6527
   93c3c      N 1185   1.102   0.440   0.177 -0.5167 -0.8113  0.2832
   93c3c     C1 1186   1.138   0.361   0.057 -0.2558  1.0782  0.4249
   93c3c     C2 1187   1.237   0.463   0.231 -0.6259  0.1827 -0.7014
   93c3c     C3 1188   1.285   0.397   0.014 -0.2671  0.2141 -0.2375
   93c3c     C4 1189   1.334   0.494   0.119  0.5798 -0.1312  0.3537
   93c3c     C5 1190   1.041   0.567   0.139 -0.0897  0.4999 -0.2735
   93c3c     C6 1191   1.009   0.378   0.282 -1.3650  0.0098 -0.6074
   93c3c     H1 1192   1.059   0.368  -0.018  0.9403  0.1252 -0.9390
   93c3c     H2 1193   1.138   0.254   0.079  0.7662  0.7389 -1.1776
   93c3c     H3 1194   1.248   0.537   0.310  0.7654 -0.9507  0.1948
   93c3c     H4 1195   1.273   0.372   0.278  1.3969  1.2752 -0.0374
   93c3c     H5 1196   1.281   0.436  -0.088  0.8903  0.5624 -0.1577
   93c3c     H6 1197   1.347   0.307   0.016  1.3622  1.3565  2.2621
   93c3c     H7 1198   1.317   0.598   0.092  1.5905 -0.4394 -1.5723
   93c3c     H8 1199   1.438   0.475   0.145  0.4649 -0.7784  0.3596
   93c3c     H9 1200   0.948   0.543   0.087  0.6217  0.1668 -1.4188
   93c3c    H10 1201   1.018   0.628   0.227  1.5107 -0.0569  0.5631
   93c3c    H11 1202   1.092   0.632   0.069  0.0730 -0.2319 -0.8426
   93c3c    H12 1203   0.972   0.446   0.360  0.8168 -0.7915  1.1866
   93c3c    H13 1204   0.915   0.342   0.241 -0.9331  1.2337 -2.7212
   93c3c     C7 1205   1.058   0.247   0.344  0.2652  0.3448  0.0034
   93c3c    H14 1206   1.135   0.282   0.413  0.5191  1.2903 -0.7443
   93c3c    H15 1207   1.108   0.185   0.270  2.6700 -1.2025  2.8262
   93c3c     C8 1208   0.952   0.166   0.427  0.0692 -0.3280 -0.1199
   93c3c    H16 1209   0.869   0.135   0.363 -0.6291 -0.0281  0.6336
   93c3c    H17 1210   0.905   0.234   0.498 -1.1986 -0.9424 -0.3441
   93c3c    H18 1211   1.006   0.086   0.477 -0.8316 -0.1398  1.1779
   94c3c      N 1212   2.448   1.511   0.967  0.1479  0.0575 -0.5206
   94c3c     C1 1213   2.507   1.378   0.968 -0.3798 -0.7032  0.1044
   94c3c     C2 1214   2.304   1.503   0.997  0.1471  0.2727 -0.0406
   94c3c     C3 1215   2.439   1.314   1.095  0.5458  0.1842 -0.7541
   94c3c     C4 1216   2.298   1.386   1.099 -0.1388 -0.1324  0.0194
   94c3c     C5 1217   2.516   1.597   1.056 -0.0659 -0.7049  0.0941
   94c3c     C6 1218   2.483   1.577   0.837  0.5156 -0.7827 -0.4914
   94c3c     H1 1219   2.616   1.377   0.964 -0.1386  1.3311  3.4165
   94c3c     H2 1220   2.472   1.307   0.894 -1.9822  1.0876 -0.9117
   94c3c     H3 1221   2.259   1.592   1.043  0.2467 -0.5193  1.6290
   94c3c     H4 1222   2.238   1.478   0.914 -0.3690 -1.2052  0.8037
   94c3c     H5 1223   2.501   1.353   1.177 -1.1383  1.3859 -0.0298
   94c3c     H6 1224   2.428   1.207   1.108  0.4495  0.5878  3.1079
   94c3c     H7 1225   2.277   1.433   1.195 -1.2421 -1.2219  0.3248
   94c3c     H8 1226   2.213   1.327   1.064  0.5994  1.0334 -4.0939
   94c3c     H9 1227   2.624   1.596   1.043 -0.0100 -1.5560  0.5778
   94c3c    H10 1228   2.481   1.700   1.048  0.2522 -0.7616 -2.3361
   94c3c    H11 1229   2.500   1.576   1.162  0.0249 -1.4270 -0.0333
   94c3c    H12 1230   2.448   1.680   0.827  0.3554 -0.9650 -1.9428
   94c3c    H13 1231   2.591   1.580   0.831  0.5048  0.1126 -0.2128
   94c3c     C7 1232   2.437   1.495   0.712  0.2235 -0.1513  0.2317
   94c3c    H14 1233   2.332   1.467   0.715  0.2999 -0.3147  1.7342
   94c3c    H15 1234   2.492   1.402   0.701 -0.8628 -0.8159  0.3732
   94c3c     C8 1235   2.462   1.589   0.590  0.3274  0.4452  0.1900
   94c3c    H16 1236   2.376   1.651   0.561  0.0919 -0.3480 -0.8586
   94c3c    H17 1237   2.491   1.530   0.504  0.5731  1.6738 -0.5854
   94c3c    H18 1238   2.546   1.656   0.605  0.0564  0.4224  1.9044
   95c3c      N 1239   1.908   1.973   2.253  0.7638  0.3479 -0.5487
   95c3c     C1 1240   1.777   2.037   2.218  0.4831  0.2144 -0.7842
   95c3c     C2 1241   1.975   2.083   2.319 -0.2177  0.5186 -0.8042
   95c3c     C3 1242   1.732   2.127   2.338  0.3510 -0.2747  0.0703
   95c3c     C4 1243   1.866   2.154   2.404  0.0831 -0.0896  0.4173
   95c3c     C5 1244   1.879   1.864   2.353  0.4849  0.6070 -0.5499
   95c3c     C6 1245   1.981   1.912   2.144  0.2570  0.4530 -0.1189
   95c3c     H1 1246   1.700   1.971   2.177  1.1494 -0.2524 -1.3019
   95c3c     H2 1247   1.785   2.105   2.134 -1.7957  2.2643  0.5822
   95c3c     H3 1248   2.066   2.056   2.372  0.4457 -0.9431 -2.6212
   95c3c     H4 1249   2.006   2.157   2.244  0.4325 -1.5022 -2.5813
   95c3c     H5 1250   1.664   2.061   2.391  1.9310 -0.0930  2.3794
   95c3c     H6 1251   1.691   2.220   2.300  0.9485  0.6355  1.6158
   95c3c     H7 1252   1.871   2.117   2.506  0.1749  2.0374  1.2014
   95c3c     H8 1253   1.901   2.258   2.404  1.6451 -0.5577 -2.2402
   95c3c     H9 1254   1.823   1.778   2.315  1.6293 -1.4402  2.1796
   95c3c    H10 1255   1.959   1.813   2.407 -0.9624  1.9721  3.1033
   95c3c    H11 1256   1.825   1.899   2.442  0.9267  0.3108 -0.1613
   95c3c    H12 1257   2.079   1.875   2.177  0.4724  0.6113 -0.5735
   95c3c    H13 1258   1.932   1.824   2.104 -0.7864  0.8358  0.3141
   95c3c     C7 1259   1.995   1.996   2.018 -0.4756  0.3004  1.4079
   95c3c    H14 1260   2.062   2.078   2.048  2.0656 -1.2446  0.1729
   95c3c    H15 1261   1.910   2.057   1.987  0.5991  1.7297  1.2093
   95c3c     C8 1262   2.055   1.927   1.885  0.0944  0.2369 -0.2507
   95c3c    H16 1263   2.055   2.004   1.808  0.9255  0.3580 -0.1404
   95c3c    H17 1264   1.986   1.846   1.865  0.7418 -0.7855  1.5525
   95c3c    H18 1265   2.154   1.893   1.914  0.1992  0.6400 -0.1273
   96c3c      N 1266   2.617   0.019   0.489 -0.2086 -0.3594  0.2145
   96c3c     C1 1267   2.656  -0.044   0.619  0.4368  0.0810 -0.5951
   96c3c     C2 1268   2.732   0.106   0.461  0.1562  0.1958 -0.5106
   96c3c     C3 1269   2.727   0.064   0.702  0.4753 -0.6376  0.4289
   96c3c     C4 1270   2.786   0.154   0.594 -0.0659  0.8329  0.7934
   96c3c     C5 1271   2.617  -0.091   0.388  0.0522  0.2632 -0.2542
   96c3c     C6 1272   2.491   0.079   0.485 -0.0473 -0.7717  0.2280
   96c3c     H1 1273   2.731  -0.119   0.596  0.3172 -0.3053  0.2325
   96c3c     H2 1274   2.569  -0.086   0.670  0.4380  2.6756  1.6384
   96c3c     H3 1275   2.809   0.046   0.412  0.0816 -1.3120  1.1921
   96c3c     H4 1276   2.712   0.185   0.388 -0.9242 -0.0039 -0.4422
   96c3c     H5 1277   2.806   0.019   0.763  0.0950 -1.6819  0.1700
   96c3c     H6 1278   2.664   0.127   0.765  1.8965  2.5212 -1.2133
   96c3c     H7 1279   2.894   0.154   0.601 -0.1490  0.3222  2.1362
   96c3c     H8 1280   2.763   0.261   0.603  2.2037  1.7369 -2.8886
   96c3c     H9 1281   2.541  -0.162   0.421  1.4274 -1.5838 -0.9522
   96c3c    H10 1282   2.591  -0.065   0.285  0.5297  1.1185 -0.1654
   96c3c    H11 1283   2.711  -0.145   0.375  0.5546  0.7656  1.2122
   96c3c    H12 1284   2.478   0.111   0.382  2.8933 -0.9584 -0.2445
   96c3c    H13 1285   2.413   0.003   0.497 -1.2905  0.2017 -1.5129
   96c3c     C7 1286   2.457   0.188   0.583 -0.2002 -0.2081  0.5540
   96c3c    H14 1287   2.530   0.268   0.572 -0.2135 -0.3245 -0.4414
   96c3c    H15 1288   2.452   0.163   0.689  1.2079 -0.0885  0.6527
   96c3c     C8 1289   2.314   0.240   0.544 -0.0512  0.0999 -0.5026
   96c3c    H16 1290   2.306   0.285   0.445 -0.5719  1.8626  0.3116
   96c3c    H17 1291   2.290   0.326   0.606 -1.5391 -1.7825  1.6023
   96c3c    H18 1292   2.234   0.168   0.563  0.9947 -1.2481 -1.1032
   97c3c      N 1293   1.638   0.080   0.768 -0.3032 -0.3047  0.3606
   97c3c     C1 1294   1.519   0.057   0.853  0.0629 -0.6023 -0.3192
   97c3c     C2 1295   1.726  -0.030   0.802  0.2477  0.0727 -0.3600
   97c3c     C3 1296   1.501  -0.097   0.865  0.2257 -0.2439 -0.2983
   97c3c     C4 1297   1.638  -0.152   0.834  0.2188 -0.0697 -0.5485
   97c3c     C5 1298   1.605   0.059   0.628 -0.0806  0.2795  0.2688
   97c3c     C6 1299   1.690   0.221   0.776 -1.2746  0.4508  0.4584
   97c3c     H1 1300   1.433   0.096   0.797  2.0800  2.4164 -1.4195
   97c3c     H2 1301   1.523   0.096   0.955 -1.8645  1.2659 -0.9121
   97c3c     H3 1302   1.797  -0.048   0.721 -0.6089  0.5032 -1.2250
   97c3c     H4 1303   1.795  -0.007   0.883  0.4386  1.0045 -0.7836
   97c3c     H5 1304   1.437  -0.114   0.778 -0.9053  1.2295  0.2333
   97c3c     H6 1305   1.452  -0.118   0.960  1.6061  2.9889  1.2110
   97c3c     H7 1306   1.624  -0.222   0.751 -0.6038 -1.5253  0.7858
   97c3c     H8 1307   1.671  -0.217   0.916 -2.6873 -2.4552 -1.1710
   97c3c     H9 1308   1.563  -0.038   0.605 -2.3508  1.3669 -0.3547
   97c3c    H10 1309   1.543   0.133   0.577  1.8428  1.1652 -0.8286
   97c3c    H11 1310   1.701   0.067   0.577 -0.5788  0.7452 -0.6083
   97c3c    H12 1311   1.754   0.236   0.689 -1.7787 -1.7909 -0.3440
   97c3c    H13 1312   1.599   0.282   0.770 -0.0614  2.1742 -0.6634
   97c3c     C7 1313   1.781   0.253   0.904  0.9758 -0.3377  0.1149
   97c3c    H14 1314   1.844   0.167   0.926 -0.8620 -1.2899  1.7815
   97c3c    H15 1315   1.704   0.261   0.980 -2.2266 -3.1858 -2.6876
   97c3c     C8 1316   1.869   0.381   0.882  0.1558 -0.1916  1.1488
   97c3c    H16 1317   1.940   0.351   0.806 -0.2945  0.5770  0.4243
   97c3c    H17 1318   1.915   0.411   0.976  0.5282  1.0946  0.5531
   97c3c    H18 1319   1.814   0.468   0.847 -0.6754 -1.1086  0.1365
   98c3c      N 1320   1.557   0.726   0.746  0.2337  0.1334 -0.4799
   98c3c     C1 1321   1.413   0.705   0.766  0.1352 -0.4241 -0.2138
   98c3c     C2 1322   1.581   0.870   0.751  0.6289 -0.0514  0.4774
   98c3c     C3 1323   1.361   0.820   0.860 -0.4017  0.0109 -0.8188
   98c3c     C4 1324   1.471   0.917   0.854 -0.1320 -0.0310  0.1833
   98c3c     C5 1325   1.619   0.671   0.866 -0.6122  0.1679 -0.2824
   98c3c     C6 1326   1.613   0.671   0.619 -0.4493 -0.9093 -0.0932
   98c3c     H1 1327   1.377   0.613   0.811  1.5369 -0.3715  1.0700
   98c3c     H2 1328   1.359   0.705   0.671  1.0954 -1.1169 -0.7792
   98c3c     H3 1329   1.676   0.904   0.792  0.6980 -0.1569  0.4077
   98c3c     H4 1330   1.577   0.920   0.654  0.7741  0.8254  0.9206
   98c3c     H5 1331   1.356   0.785   0.963  1.9444  0.9400 -0.3536
   98c3c     H6 1332   1.270   0.874   0.832 -0.5934  0.8745  1.3690
   98c3c     H7 1333   1.518   0.915   0.953  0.7585  0.4438 -0.2167
   98c3c     H8 1334   1.442   1.021   0.841 -1.8637 -0.7421 -1.9677
   98c3c     H9 1335   1.607   0.563   0.863 -0.2181  0.1290 -0.5697
   98c3c    H10 1336   1.726   0.688   0.879 -0.5090 -0.4510 -0.3037
   98c3c    H11 1337   1.570   0.704   0.958 -2.7228  2.5273 -2.2204
   98c3c    H12 1338   1.721   0.689   0.612 -0.6796  1.5496  1.9458
   98c3c    H13 1339   1.603   0.562   0.625  2.5200 -1.1095  3.1252
   98c3c     C7 1340   1.552   0.725   0.487 -0.0580 -0.0186  0.4289
   98c3c    H14 1341   1.572   0.831   0.474  1.4693 -0.2086  1.2071
   98c3c    H15 1342   1.443   0.727   0.489 -0.1479 -2.7103  0.3164
   98c3c     C8 1343   1.586   0.646   0.371  0.0135 -0.8030 -0.3890
   98c3c    H16 1344   1.563   0.542   0.393 -1.2993 -0.8776 -1.9962
   98c3c    H17 1345   1.693   0.632   0.356 -0.0261 -2.7782  0.9843
   98c3c    H18 1346   1.550   0.686   0.276 -0.5724 -2.8746 -1.0541
   99c3c      N 1347   2.795   1.371   1.611 -0.3216 -0.3733 -0.2286
   99c3c     C1 1348   2.792   1.389   1.754  0.4365 -0.4551 -0.2595
   99c3c     C2 1349   2.815   1.512   1.556  0.0297 -0.1754 -0.0110
   99c3c     C3 1350   2.880   1.506   1.790  0.4354 -0.0282  0.5166
   99c3c     C4 1351   2.888   1.592   1.663  0.0583  0.6895  0.1731
   99c3c     C5 1352   2.918   1.296   1.576  0.5685  0.1893 -0.7682
   99c3c     C6 1353   2.682   1.296   1.562  0.8845  0.0403  0.1434
   99c3c     H1 1354   2.824   1.303   1.812 -0.9554 -1.1778 -0.5417
   99c3c     H2 1355   2.690   1.409   1.788  0.5362  0.4796 -0.5023
   99c3c     H3 1356   2.870   1.514   1.461 -0.8568  2.3854 -0.5173
   99c3c     H4 1357   2.716   1.549   1.529 -1.6242 -3.5096  1.3023
   99c3c     H5 1358   2.978   1.470   1.818  0.7551  0.8638  0.5722
   99c3c     H6 1359   2.830   1.564   1.868 -2.0285 -0.0062 -0.9974
   99c3c     H7 1360   2.993   1.607   1.635 -0.6781  2.1653 -1.9500
   99c3c     H8 1361   2.830   1.682   1.681  1.5641  1.8369 -0.5829
   99c3c     H9 1362   2.924   1.200   1.627 -0.1407  0.5869  0.0909
   99c3c    H10 1363   2.920   1.281   1.468  0.0524 -0.6038 -0.6752
   99c3c    H11 1364   3.010   1.347   1.602  1.5433 -1.4012 -1.0668
   99c3c    H12 1365   2.684   1.311   1.454 -0.4996 -1.1223 -0.0544
   99c3c    H13 1366   2.684   1.189   1.580 -0.6512 -0.2449 -1.2339
   99c3c     C7 1367   2.542   1.348   1.608 -0.3394  0.3621  0.1792
   99c3c    H14 1368   2.527   1.456   1.614  1.1260  0.5468  0.7261
   99c3c    H15 1369   2.530   1.310   1.709 -1.2341  1.6283  0.5661
   99c3c     C8 1370   2.443   1.278   1.520 -0.4856 -0.1255  0.6180
   99c3c    H16 1371   2.340   1.293   1.553 -0.7594 -0.4876 -0.0680
   99c3c    H17 1372   2.466   1.172   1.510  0.8242  0.0300  1.8367
   99c3c    H18 1373   2.459   1.316   1.419 -0.0112  0.6663  0.9851
  100c3c      N 1374   2.326   1.249   2.831 -0.1620 -0.4401 -0.0248
  100c3c     C1 1375   2.314   1.320   2.703  0.7210  0.1332  0.3850
  100c3c     C2 1376   2.342   1.358   2.930 -0.1208  0.7924 -0.1745
  100c3c     C3 1377   2.245   1.453   2.735 -0.1004  0.1163  0.2601
  100c3c     C4 1378   2.293   1.492   2.870  0.0288  0.2196 -0.3826
  100c3c     C5 1379   2.197   1.178   2.849  0.0440  0.1548  0.0864
  100c3c     C6 1380   2.431   1.145   2.834  0.0373 -0.0416 -0.2060
  100c3c     H1 1381   2.264   1.273   2.618  1.0025 -0.9200  0.7931
  100c3c     H2 1382   2.410   1.347   2.659  0.2995 -0.6761 -1.0628
  100c3c     H3 1383   2.285   1.332   3.019 -0.5823  0.3255 -0.6015
  100c3c     H4 1384   2.443   1.370   2.967 -0.8717 -2.7289  3.2523
  100c3c     H5 1385   2.136   1.454   2.733 -0.1067 -0.6873 -2.4610
  100c3c     H6 1386   2.267   1.539   2.671  1.1896  0.8841  1.7053
  100c3c     H7 1387   2.221   1.518   2.947 -2.4131 -0.1630 -2.4752
  100c3c     H8 1388   2.374   1.565   2.869  1.3539 -1.2183 -0.9093
  100c3c     H9 1389   2.172   1.119   2.761 -1.8144  0.6646  0.2355
  100c3c    H10 1390   2.196   1.125   2.944  0.9776  4.1047  2.4327
  100c3c    H11 1391   2.108   1.242   2.849 -0.4996 -0.5911  0.3679
  100c3c    H12 1392   2.419   1.085   2.924 -2.5101  1.6832  0.6787
  100c3c    H13 1393   2.410   1.073   2.754  1.0044  1.1561 -1.5542
  100c3c     C7 1394   2.582   1.184   2.819  0.2530 -0.3486 -0.1810
  100c3c    H14 1395   2.620   1.232   2.910 -0.3557 -0.3597  0.0795
  100c3c    H15 1396   2.582   1.247   2.730 -1.1506  1.6354  1.1807
  100c3c     C8 1397   2.667   1.058   2.796  0.4085  0.2286  0.4566
  100c3c    H16 1398   2.667   0.982   2.874 -1.2098 -1.4561 -1.1462
  100c3c    H17 1399   2.769   1.087   2.769  0.6982  0.0146  1.2990
  100c3c    H18 1400   2.633   1.000   2.710 -1.8525  1.1019  0.7249
  101fsi     F1 1401   0.902   1.453   1.782  0.7704  0.3577 -0.3551
  101fsi     S1 1402   1.028   1.461   1.877  0.0106 -0.2221 -0.1617
  101fsi      N 1403   1.115   1.569   1.807 -0.1050  0.5101  0.3630
  101fsi     O1 1404   0.966   1.501   2.002 -0.2392 -0.3398 -0.3602
  101fsi     O2 1405   1.079   1.331   1.880 -0.4714  0.4861  0.1575
  101fsi     S2 1406   1.097   1.729   1.805 -0.3975  0.0630  0.1059
  101fsi     O3 1407   0.963   1.770   1.764  0.1581 -0.0388  0.0832
  101fsi     O4 1408   1.206   1.798   1.739  0.5987 -0.7015 -0.1985
  101fsi     F2 1409   1.098   1.784   1.957  0.4072 -0.1625  0.2468
  102fsi     F1 1410   1.957   0.517   1.237 -0.1887 -0.4305 -0.3337
  102fsi     S1 1411   1.875   0.629   1.176 -0.0232 -0.0122 -0.1777
  102fsi      N 1412   1.872   0.737   1.290  0.7639  0.5949  0.5169
  102fsi     O1 1413   1.947   0.657   1.061 -0.1988 -0.8174  0.6319
  102fsi     O2 1414   1.738   0.580   1.165 -0.0188  0.3308  0.3559
  102fsi     S2 1415   1.948   0.877   1.299  0.1728 -0.1762  0.1429
  102fsi     O3 1416   1.981   0.925   1.167  0.2274  0.4788  0.4960
  102fsi     O4 1417   2.045   0.884   1.403  0.4313 -0.3679  0.2547
  102fsi     F2 1418   1.835   0.971   1.354 -0.0458  0.1014  0.0269
  103fsi     F1 1419   2.626   1.893   1.157 -0.3516  0.4777  0.2767
  103fsi     S1 1420   2.739   1.864   1.260  0.1230 -0.4248  0.1568
  103fsi      N 1421   2.672   1.745   1.345  0.0466 -0.2021 -0.2668
  103fsi     O1 1422   2.850   1.822   1.180  0.8255  0.3161  0.1690
  103fsi     O2 1423   2.757   1.990   1.329  0.1954  0.4483  0.3443
  103fsi     S2 1424   2.534   1.752   1.418  0.2028 -0.0740 -0.5109
  103fsi     O3 1425   2.477   1.623   1.406  0.2962  0.0664 -0.0326
  103fsi     O4 1426   2.444   1.865   1.398  0.0982  0.2721 -0.1501
  103fsi     F2 1427   2.578   1.763   1.563  0.3088 -0.1607  0.5031
  104fsi     F1 1428   1.986   2.717   2.305 -0.1089 -0.5644 -0.0164
  104fsi     S1 1429   1.876   2.815   2.246  0.2354 -0.0578  0.3773
  104fsi      N 1430   1.964   2.928   2.186  0.2991  0.8480 -0.0400
  104fsi     O1 1431   1.812   2.723   2.151 -0.0816 -0.0064  0.5514
  104fsi     O2 1432   1.807   2.854   2.367 -0.4557  0.3739 -0.1210
  104fsi     S2 1433   2.007   2.961   2.038 -0.4741  0.0836 -0.2118
  104fsi     O3 1434   1.943   3.081   1.989  0.1636  0.9049 -0.3290
  104fsi     O4 1435   2.021   2.846   1.954  0.2091 -0.1135 -0.3495
  104fsi     F2 1436   2.156   3.001   2.048 -0.2241 -0.1939  0.6592
  105fsi     F1 1437   2.980   2.630   1.631  0.0464 -0.1558  0.1806
  105fsi     S1 1438   2.964   2.765   1.557  0.1006  0.0487 -0.2423
  105fsi      N 1439   3.070   2.755   1.443 -0.3700  0.2049 -0.3544
  105fsi     O1 1440   2.826   2.754   1.518  0.0645  0.1390 -0.3642
  105fsi     O2 1441   3.000   2.864   1.658 -0.5154  0.0439 -1.0562
  105fsi     S2 1442   3.221   2.784   1.466 -0.1620  0.0294  0.1104
  105fsi     O3 1443   3.293   2.772   1.347 -0.5224  0.0738  0.0669
  105fsi     O4 1444   3.278   2.711   1.571 -0.5037  0.3873 -0.4805
  105fsi     F2 1445   3.242   2.934   1.516  0.3700 -0.3653 -0.1251
  106fsi     F1 1446   0.168   2.968   2.591  0.2854 -0.1813  0.0721
  106fsi     S1 1447   0.263   2.954   2.461 -0.4914  0.3053  0.2718
  106fsi      N 1448   0.252   2.806   2.432 -0.3753 -0.6489 -0.3899
  106fsi     O1 1449   0.199   3.035   2.364  0.0487 -0.1082 -0.3606
  106fsi     O2 1450   0.398   2.990   2.503  0.1703  0.1904  0.6429
  106fsi     S2 1451   0.290   2.683   2.516 -0.1356 -0.1621  0.3127
  106fsi     O3 1452   0.263   2.563   2.441  0.2378  0.0753 -0.3308
  106fsi     O4 1453   0.264   2.687   2.659  0.0371 -0.0512  0.4116
  106fsi     F2 1454   0.449   2.680   2.510 -1.1266  0.1955  0.1555
  107fsi     F1 1455   1.113   2.142   0.415  0.1083 -0.0100  0.2590
  107fsi     S1 1456   0.986   2.087   0.334 -0.1214  0.1203 -0.1946
  107fsi      N 1457   0.943   1.953   0.401 -0.5485  0.2420  0.0472
  107fsi     O1 1458   0.890   2.192   0.345  0.2380 -0.2900  0.1405
  107fsi     O2 1459   1.035   2.064   0.205 -0.0642 -0.2598  0.5496
  107fsi     S2 1460   0.818   1.924   0.494 -0.0701  0.0974 -0.6273
  107fsi     O3 1461   0.766   2.036   0.567  1.1085 -0.2962 -0.3499
  107fsi     O4 1462   0.830   1.802   0.567  0.2750  0.5405 -0.1105
  107fsi     F2 1463   0.701   1.888   0.398  0.2504 -0.0102  0.0668
  108fsi     F1 1464   0.701   0.936   1.723  0.0318 -0.2694  0.0717
  108fsi     S1 1465   0.722   0.808   1.804 -0.2420 -0.7567  0.1249
  108fsi      N 1466   0.707   0.863   1.951  0.6862 -0.0068 -0.1226
  108fsi     O1 1467   0.611   0.723   1.769 -0.2780  0.1181 -0.3901
  108fsi     O2 1468   0.860   0.761   1.778 -0.2009 -0.2988 -0.5593
  108fsi     S2 1469   0.814   0.932   2.046 -0.1375 -0.1284 -0.2582
  108fsi     O3 1470   0.957   0.912   2.027 -0.2003  0.2737  0.3898
  108fsi     O4 1471   0.765   0.953   2.181 -0.1785  0.2172 -0.0352
  108fsi     F2 1472   0.800   1.083   1.995 -0.2104 -0.6849  0.2673
  109fsi     F1 1473   2.066   0.318   0.348  0.0785  0.1507  0.0789
  109fsi     S1 1474   1.929   0.381   0.384  0.1584 -0.3336  0.1939
  109fsi      N 1475   1.835   0.347   0.263 -0.4133 -1.4018  0.4254
  109fsi     O1 1476   1.888   0.322   0.507  0.6382 -0.7769  0.0606
  109fsi     O2 1477   1.959   0.524   0.386 -0.0671  0.0210  0.1673
  109fsi     S2 1478   1.752   0.214   0.236 -0.2408 -0.0112  0.1722
  109fsi     O3 1479   1.812   0.096   0.291 -0.8750  0.2785 -0.0401
  109fsi     O4 1480   1.701   0.208   0.098 -0.1546 -0.6341 -0.3207
  109fsi     F2 1481   1.626   0.232   0.317 -0.1544  0.8479  0.5125
  110fsi     F1 1482   0.927   0.706   2.309 -0.1257 -0.4592  0.1381
  110fsi     S1 1483   0.966   0.578   2.221  0.1183  0.2113 -0.2277
  110fsi      N 1484   1.119   0.560   2.262  0.4429  0.0881 -0.9737
  110fsi     O1 1485   0.880   0.474   2.276 -0.4394  0.2245  0.5052
  110fsi     O2 1486   0.945   0.621   2.084  0.2051 -0.5873  0.0866
  110fsi     S2 1487   1.252   0.588   2.188 -0.3301  0.2514  0.1896
  110fsi     O3 1488   1.357   0.643   2.267  0.0501 -0.0668 -0.2233
  110fsi     O4 1489   1.233   0.646   2.057 -0.8664  0.1403 -0.1104
  110fsi     F2 1490   1.302   0.456   2.147  0.4551  0.2357 -0.1869
  111fsi     F1 1491   0.687   0.693   0.749 -0.4060 -0.0013  0.2607
  111fsi     S1 1492   0.709   0.704   0.908  0.0647 -0.1696 -0.2822
  111fsi      N 1493   0.587   0.798   0.949 -0.1842 -0.1234  0.3161
  111fsi     O1 1494   0.702   0.572   0.961  0.2880 -0.0822  0.2489
  111fsi     O2 1495   0.839   0.768   0.913 -0.0456  0.1404  0.1224
  111fsi     S2 1496   0.441   0.757   0.966 -0.3675  0.0226  0.2303
  111fsi     O3 1497   0.396   0.626   0.933  0.1263 -0.0593  0.3239
  111fsi     O4 1498   0.364   0.871   0.932  0.0453  0.0885  0.3408
  111fsi     F2 1499   0.422   0.756   1.125  0.3854  0.4892 -0.1329
  112fsi     F1 1500   1.914   2.612   1.477 -0.3655 -1.0444  0.3586
  112fsi     S1 1501   1.855   2.568   1.623 -0.4846  0.2608 -0.3299
  112fsi      N 1502   1.708   2.627   1.629 -0.3283  0.0254  0.0241
  112fsi     O1 1503   1.862   2.423   1.617  0.0351 -0.2548  0.0374
  112fsi     O2 1504   1.937   2.638   1.715  0.3796 -0.6413  0.1738
  112fsi     S2 1505   1.654   2.738   1.723  0.5007 -0.5357 -0.2545
  112fsi     O3 1506   1.654   2.869   1.663  0.2250  0.7757  0.8123
  112fsi     O4 1507   1.702   2.723   1.854  0.1736  0.2897 -0.2378
  112fsi     F2 1508   1.506   2.685   1.733  0.1040 -0.6886 -0.1596
  113fsi     F1 1509   1.350   2.476   0.711 -0.1988  0.1765 -0.0587
  113fsi     S1 1510   1.241   2.564   0.773 -0.8974 -0.4218  0.1023
  113fsi      N 1511   1.120   2.530   0.679  0.0039 -0.3292 -0.2385
  113fsi     O1 1512   1.219   2.511   0.905  0.8623 -0.0967  0.0469
  113fsi     O2 1513   1.302   2.695   0.760  1.0827 -0.2230 -0.0427
  113fsi     S2 1514   1.042   2.396   0.664 -0.7757  0.7461 -0.1631
  113fsi     O3 1515   1.126   2.278   0.670 -0.1091 -0.2328 -1.0815
  113fsi     O4 1516   0.942   2.394   0.561  1.0406  0.8108 -0.0571
  113fsi     F2 1517   0.961   2.380   0.798 -0.0772  0.4880 -0.3115
  114fsi     F1 1518   1.045   1.029   1.730 -0.8113  0.2327  0.0700
  114fsi     S1 1519   1.199   0.988   1.749 -0.1163  0.3205 -0.4365
  114fsi      N 1520   1.263   1.020   1.608 -0.1526 -0.8248 -0.1801
  114fsi     O1 1521   1.248   1.070   1.856  0.2325  0.1405 -0.0782
  114fsi     O2 1522   1.192   0.849   1.778  0.6579 -0.3367  0.0179
  114fsi     S2 1523   1.328   1.143   1.546  0.0555  0.1469  0.4082
  114fsi     O3 1524   1.309   1.272   1.613  0.0697  0.3824 -0.5945
  114fsi     O4 1525   1.322   1.152   1.404  0.5878  0.2524 -0.3759
  114fsi     F2 1526   1.481   1.116   1.574  0.1634 -0.2625  0.6771
  115fsi     F1 1527   2.869   2.213   0.835  0.7180  0.0833  0.0850
  115fsi     S1 1528   2.845   2.094   0.944 -0.1034 -0.1360 -0.2239
  115fsi      N 1529   2.730   2.008   0.882  0.3815  0.1295  0.3003
  115fsi     O1 1530   2.970   2.028   0.951  0.6724 -0.6045 -0.1840
  115fsi     O2 1531   2.807   2.165   1.060  0.2215  0.5682  0.0645
  115fsi     S2 1532   2.728   1.925   0.753 -0.2578 -0.1706  0.2784
  115fsi     O3 1533   2.843   1.959   0.677 -0.0484  0.1720  0.1338
  115fsi     O4 1534   2.604   1.926   0.692  0.3208  0.1642 -0.0919
  115fsi     F2 1535   2.754   1.771   0.811  0.2683 -0.4503  0.0035
  116fsi     F1 1536   2.545   2.371   1.548 -0.5207  0.5840 -0.4109
  116fsi     S1 1537   2.621   2.238   1.495  0.5002  0.2208  0.0099
  116fsi      N 1538   2.723   2.209   1.610 -0.1399 -0.5813 -0.0862
  116fsi     O1 1539   2.516   2.139   1.487 -0.1011  0.3361 -0.4416
  116fsi     O2 1540   2.677   2.280   1.370  0.5034 -0.5482 -0.1055
  116fsi     S2 1541   2.876   2.192   1.615  0.0597  0.0187 -0.1398
  116fsi     O3 1542   2.932   2.277   1.713 -0.1040  0.2236 -0.1684
  116fsi     O4 1543   2.935   2.180   1.483 -0.2517 -0.2073  0.1592
  116fsi     F2 1544   2.904   2.047   1.657 -0.3287 -0.0105 -0.4885
  117fsi     F1 1545   0.020   2.066   2.371  0.6972  0.2622 -0.7425
  117fsi     S1 1546   0.002   2.179   2.484 -0.0892  0.1638 -0.3846
  117fsi      N 1547  -0.131   2.129   2.546  0.3803 -0.4823  0.0375
  117fsi     O1 1548   0.117   2.155   2.570 -0.2203 -0.1505 -0.0365
  117fsi     O2 1549   0.003   2.306   2.411 -0.2267 -0.0536  0.0135
  117fsi     S2 1550  -0.280   2.160   2.499 -0.0248  0.0406  0.0509
  117fsi     O3 1551  -0.294   2.267   2.407 -0.1775 -0.7062 -0.5346
  117fsi     O4 1552  -0.387   2.147   2.595 -0.5054  0.4114  0.2842
  117fsi     F2 1553  -0.311   2.043   2.398  0.0953  0.3333 -0.2259
  118fsi     F1 1554   2.165   2.045   1.028  0.0934  0.0166 -0.0541
  118fsi     S1 1555   2.248   1.917   0.978  0.1692  0.1193 -0.3593
  118fsi      N 1556   2.138   1.815   0.918 -0.5710 -0.3414  0.5112
  118fsi     O1 1557   2.336   1.969   0.880 -0.5949  0.2229  0.2716
  118fsi     O2 1558   2.308   1.870   1.099  0.1410 -0.2724  0.1173
  118fsi     S2 1559   2.057   1.835   0.782 -0.3070 -0.0939  0.0302
  118fsi     O3 1560   2.060   1.971   0.732  0.1812  0.4506  0.2203
  118fsi     O4 1561   1.932   1.767   0.786 -0.2846 -0.1112  0.0472
  118fsi     F2 1562   2.139   1.756   0.682 -0.1876 -0.1957 -0.0102
  119fsi     F1 1563   1.694   1.369   1.630  0.2174  0.6251 -0.4117
  119fsi     S1 1564   1.614   1.433   1.750 -0.6905 -0.0916  0.4797
  119fsi      N 1565   1.726   1.450   1.860  0.2567 -0.4937 -0.5183
  119fsi     O1 1566   1.562   1.551   1.693 -0.0578 -0.4846 -0.2812
  119fsi     O2 1567   1.518   1.339   1.796  0.0937  0.7621 -0.2498
  119fsi     S2 1568   1.846   1.540   1.871  0.0571 -0.2911 -0.1284
  119fsi     O3 1569   1.905   1.583   1.752  0.2319 -0.7520  0.2602
  119fsi     O4 1570   1.926   1.491   1.980 -0.0297  0.2569 -0.1130
  119fsi     F2 1571   1.782   1.666   1.930  0.0627  0.0957  0.2165
  120fsi     F1 1572   1.841   2.248   2.880 -0.4270 -0.0868  0.0857
  120fsi     S1 1573   1.754   2.119   2.867  0.0186  0.4268  0.3250
  120fsi      N 1574   1.613   2.166   2.926 -0.9049  0.2183 -0.3034
  120fsi     O1 1575   1.742   2.091   2.727  0.1972 -0.4440  0.1742
  120fsi     O2 1576   1.827   2.028   2.951 -0.6367 -0.0653  0.4864
  120fsi     S2 1577   1.467   2.187   2.872 -0.3165  0.1419  0.4885
  120fsi     O3 1578   1.465   2.216   2.736 -0.5356  0.6247  0.9249
  120fsi     O4 1579   1.395   2.274   2.963  0.1204 -0.6757  0.4743
  120fsi     F2 1580   1.384   2.054   2.878  0.2312  0.2247 -0.1059
  121fsi     F1 1581   0.847   2.133   1.631  0.4383 -0.4533 -0.0572
  121fsi     S1 1582   0.849   2.027   1.520  0.2466 -0.1902  0.0765
  121fsi      N 1583   0.755   1.919   1.584  0.2462  0.1762  0.5227
  121fsi     O1 1584   0.789   2.093   1.410  0.0873 -0.2724  0.2449
  121fsi     O2 1585   0.988   1.984   1.510 -0.2407 -0.0576  0.3154
  121fsi     S2 1586   0.601   1.918   1.606  0.1179  0.1009 -0.1959
  121fsi     O3 1587   0.541   2.050   1.608  0.1248  0.1841  0.1973
  121fsi     O4 1588   0.568   1.823   1.710  0.1438 -0.1693  0.1688
  121fsi     F2 1589   0.547   1.853   1.475 -0.4194 -0.1074  0.4223
  122fsi     F1 1590   1.321   1.277   0.459 -0.1314 -0.5231  0.4232
  122fsi     S1 1591   1.381   1.139   0.513 -0.1294 -0.0615 -0.3043
  122fsi      N 1592   1.255   1.075   0.586 -0.3880  0.4581 -0.4259
  122fsi     O1 1593   1.429   1.062   0.406 -0.0360  0.1895 -0.2847
  122fsi     O2 1594   1.475   1.179   0.615 -0.0024 -0.1980 -0.5190
  122fsi     S2 1595   1.149   0.978   0.524 -0.5738  0.2199  0.1865
  122fsi     O3 1596   1.133   0.985   0.384  0.7327  0.1517  0.1178
  122fsi     O4 1597   1.029   0.959   0.600 -0.1857  0.0114  0.4771
  122fsi     F2 1598   1.228   0.839   0.541  0.2861 -0.2622  0.6544
  123fsi     F1 1599   2.058   2.927   0.933  0.4855  0.2360 -0.2716
  123fsi     S1 1600   2.147   2.942   0.806 -0.1862 -0.3249 -0.1324
  123fsi      N 1601   2.129   2.799   0.741  0.1325 -0.2376 -0.4095
  123fsi     O1 1602   2.089   3.055   0.740 -0.5418 -0.0992 -0.2733
  123fsi     O2 1603   2.279   2.957   0.862  0.1528  0.2658  0.5877
  123fsi     S2 1604   2.032   2.753   0.627 -0.1085 -0.2408  0.0692
  123fsi     O3 1605   2.060   2.625   0.569  0.0412 -0.0443  0.4666
  123fsi     O4 1606   1.981   2.856   0.540 -0.3446 -1.1261 -0.1256
  123fsi     F2 1607   1.903   2.728   0.714  0.4665  0.3600  0.5324
  124fsi     F1 1608   2.770   1.575   0.610 -0.2252 -0.2300 -0.2174
  124fsi     S1 1609   2.843   1.459   0.683  0.0179 -0.1186 -0.3810
  124fsi      N 1610   2.899   1.518   0.819  0.5668 -0.7020 -0.2700
  124fsi     O1 1611   2.736   1.370   0.716 -0.2163 -0.3754  0.1638
  124fsi     O2 1612   2.945   1.413   0.590  0.1233 -1.1569 -0.0510
  124fsi     S2 1613   3.044   1.562   0.864  0.3986 -0.1972 -0.0462
  124fsi     O3 1614   3.036   1.698   0.917 -0.5734  0.4484  0.4223
  124fsi     O4 1615   3.151   1.534   0.776  0.0411  0.4964  0.0123
  124fsi     F2 1616   3.058   1.477   0.993  0.2230  0.0575 -0.3087
  125fsi     F1 1617   2.925   0.100   1.023  0.4952  0.4764  0.8419
  125fsi     S1 1618   2.836   0.235   1.037  0.1939 -0.4304 -0.0458
  125fsi      N 1619   2.884   0.290   1.176  0.1722  0.2271  0.5533
  125fsi     O1 1620   2.885   0.314   0.923  0.6310  0.0688 -0.3699
  125fsi     O2 1621   2.697   0.189   1.041  0.1306 -0.2319 -0.3485
  125fsi     S2 1622   2.811   0.293   1.311 -0.2885  0.0059  0.5717
  125fsi     O3 1623   2.749   0.169   1.350 -0.0372 -0.2051 -0.0073
  125fsi     O4 1624   2.737   0.414   1.338 -0.2702 -0.1505  0.5103
  125fsi     F2 1625   2.926   0.304   1.419  0.3027 -0.1073  0.1972
  126fsi     F1 1626   2.264   0.772   2.732 -0.2941 -0.4268 -0.7797
  126fsi     S1 1627   2.116   0.747   2.770  0.2027  0.2826 -0.0992
  126fsi      N 1628   2.121   0.711   2.922 -0.5235 -0.5533 -0.9776
  126fsi     O1 1629   2.047   0.871   2.740 -0.1162 -0.9228  0.2581
  126fsi     O2 1630   2.075   0.632   2.687 -0.1292  0.2322  0.1895
  126fsi     S2 1631   2.125   0.809   3.047  0.1080  0.6563 -0.1519
  126fsi     O3 1632   2.134   0.729   3.165  0.0134 -0.8167  0.1279
  126fsi     O4 1633   2.030   0.909   3.048  0.1585 -0.1499  0.5591
  126fsi     F2 1634   2.264   0.879   3.045  0.4888  0.2220  0.1383
  127fsi     F1 1635   0.009   2.002   2.083 -0.3386 -0.0107  0.2560
  127fsi     S1 1636   0.029   1.880   1.987 -0.2437  0.1102 -0.2401
  127fsi      N 1637   0.078   1.951   1.860  0.3564  0.4177 -0.0511
  127fsi     O1 1638   0.131   1.811   2.060  0.0053  0.1920 -0.1485
  127fsi     O2 1639  -0.099   1.822   1.984  0.1840  0.2641  0.2828
  127fsi     S2 1640   0.214   2.008   1.815  0.3859 -0.3896  0.1788
  127fsi     O3 1641   0.318   1.975   1.909 -0.6678  0.3430  0.3464
  127fsi     O4 1642   0.209   2.143   1.758 -0.3724 -0.4304 -0.7791
  127fsi     F2 1643   0.253   1.917   1.695  0.1697 -0.1273 -0.1292
  128fsi     F1 1644   2.863   1.629   2.883 -0.5358 -0.4801  0.0043
  128fsi     S1 1645   2.753   1.528   2.852 -0.3823 -0.2297 -0.0408
  128fsi      N 1646   2.702   1.590   2.718  0.3328 -0.0068  0.4534
  128fsi     O1 1647   2.825   1.404   2.830 -0.1648 -0.2680  0.2186
  128fsi     O2 1648   2.660   1.535   2.965  0.2921  0.0153  0.0673
  128fsi     S2 1649   2.601   1.710   2.704  0.2016 -0.1244  0.0658
  128fsi     O3 1650   2.564   1.783   2.827 -0.1773  0.5724 -0.2358
  128fsi     O4 1651   2.493   1.681   2.615 -0.1667  0.3270  0.2491
  128fsi     F2 1652   2.685   1.819   2.636  0.4332 -0.1983  0.0715
  129fsi     F1 1653   2.965   1.001   2.688 -0.1261  0.4794  0.0419
  129fsi     S1 1654   2.973   1.039   2.535  0.0531  0.0346  0.0508
  129fsi      N 1655   2.828   1.015   2.492  0.6269 -0.3354  0.1670
  129fsi     O1 1656   3.014   1.177   2.548  0.4282  0.2058 -0.2445
  129fsi     O2 1657   3.071   0.942   2.491 -0.5465  0.2241  0.2077
  129fsi     S2 1658   2.768   0.931   2.372 -0.4192  0.3930  0.1561
  129fsi     O3 1659   2.861   0.872   2.273  0.0159 -0.1636  0.9307
  129fsi     O4 1660   2.648   0.993   2.323  0.1798  0.2045 -0.1852
  129fsi     F2 1661   2.709   0.807   2.443 -0.4030  0.0996  0.2059
  130fsi     F1 1662   0.776   2.833   0.724  0.0092  0.3810  0.1204
  130fsi     S1 1663   0.643   2.881   0.761 -0.1532 -0.2033  0.1662
  130fsi      N 1664   0.633   2.830   0.910  0.1920 -0.0597  0.4443
  130fsi     O1 1665   0.671   3.025   0.755  0.5802 -0.1492  0.4643
  130fsi     O2 1666   0.557   2.824   0.664  0.3061  0.3348  0.4921
  130fsi     S2 1667   0.649   2.903   1.043 -0.2757 -0.1550 -0.4278
  130fsi     O3 1668   0.564   2.847   1.145  0.8889  0.5707  0.1702
  130fsi     O4 1669   0.656   3.047   1.043  0.2303 -0.5209  0.5466
  130fsi     F2 1670   0.791   2.859   1.095 -0.0850 -0.0723 -0.2854
  131fsi     F1 1671   2.836   0.644   0.087 -0.5582 -0.0437 -0.4318
  131fsi     S1 1672   2.832   0.779   0.166  0.2687  0.1789 -0.0915
  131fsi      N 1673   2.793   0.748   0.312 -0.0661  0.1386 -0.2544
  131fsi     O1 1674   2.963   0.833   0.149 -0.5245 -0.1694 -0.0625
  131fsi     O2 1675   2.726   0.848   0.094  0.4474 -0.1423  0.3612
  131fsi     S2 1676   2.882   0.689   0.432 -0.1583  0.1576  0.0480
  131fsi     O3 1677   2.851   0.742   0.563 -0.1753 -0.3799 -0.3550
  131fsi     O4 1678   3.023   0.687   0.408 -0.6951  0.5351 -0.4579
  131fsi     F2 1679   2.828   0.536   0.434 -0.1126 -0.5307 -0.4878
  132fsi     F1 1680   0.602   2.146   0.136  0.3350 -0.4739  0.3043
  132fsi     S1 1681   0.495   2.145   0.252 -0.2038 -0.2785  0.0464
  132fsi      N 1682   0.374   2.232   0.197 -0.2311  0.7180  0.2799
  132fsi     O1 1683   0.461   2.007   0.265  0.4950 -0.1061  0.6252
  132fsi     O2 1684   0.556   2.206   0.369 -0.1637 -0.2391  0.2122
  132fsi     S2 1685   0.256   2.199   0.101  0.1857  0.5554 -0.1278
  132fsi     O3 1686   0.236   2.059   0.103 -0.4011  0.1451 -0.4491
  132fsi     O4 1687   0.258   2.263  -0.027 -0.3143  0.1202  0.3611
  132fsi     F2 1688   0.126   2.259   0.168 -0.3219 -0.4712  0.2183
  133fsi     F1 1689   0.499   1.966   2.929 -0.5900  0.1343 -0.0487
  133fsi     S1 1690   0.423   1.943   2.799 -0.0170 -0.2657  0.1078
  133fsi      N 1691   0.316   1.841   2.848  0.1918  0.7160  0.3342
  133fsi     O1 1692   0.373   2.073   2.774  0.1366  0.2938 -0.5351
  133fsi     O2 1693   0.520   1.883   2.711 -0.2050 -0.4081 -0.2327
  133fsi     S2 1694   0.154   1.847   2.858 -0.4370  0.5496 -0.0117
  133fsi     O3 1695   0.099   1.982   2.855 -0.9629 -0.1095 -0.1652
  133fsi     O4 1696   0.110   1.767   2.964 -0.1706 -0.7740  0.0715
  133fsi     F2 1697   0.102   1.780   2.723  0.0782 -0.3247  0.0180
  134fsi     F1 1698   1.798   1.354   2.462 -0.3866 -0.3336  0.5741
  134fsi     S1 1699   1.940   1.313   2.421  0.0074 -0.3282  0.1694
  134fsi      N 1700   2.010   1.456   2.399  0.0660  0.6773  1.0377
  134fsi     O1 1701   1.990   1.247   2.530 -0.2328 -0.0733  0.1953
  134fsi     O2 1702   1.916   1.240   2.298 -0.2172 -0.1938 -0.0051
  134fsi     S2 1703   2.121   1.499   2.293  0.2145 -0.1173  0.2835
  134fsi     O3 1704   2.118   1.638   2.254 -0.2160  0.3727 -0.4656
  134fsi     O4 1705   2.145   1.396   2.195  0.3494  0.2875  0.2507
  134fsi     F2 1706   2.248   1.485   2.394 -0.1651 -0.1511  0.0025
  135fsi     F1 1707   0.011   0.248   1.798 -0.5902  0.1054 -0.2446
  135fsi     S1 1708  -0.096   0.361   1.839 -0.3151  0.3815  0.1649
  135fsi      N 1709  -0.017   0.488   1.880  0.9136  0.7198 -0.0108
  135fsi     O1 1710  -0.169   0.378   1.716 -0.6300 -0.6866  0.2088
  135fsi     O2 1711  -0.168   0.293   1.942  0.1976  0.6089  0.0154
  135fsi     S2 1712   0.061   0.528   2.011 -0.1059  0.1762  0.1600
  135fsi     O3 1713   0.180   0.603   1.981 -0.3123 -0.3856  0.4311
  135fsi     O4 1714   0.066   0.424   2.110 -0.0355  0.5638  0.2896
  135fsi     F2 1715  -0.039   0.633   2.066  0.5337 -0.0645 -0.3412
  136fsi     F1 1716   2.485   1.529   2.151  0.4236 -0.0466  0.2779
  136fsi     S1 1717   2.492   1.430   2.032 -0.4190 -0.3240  0.0084
  136fsi      N 1718   2.438   1.504   1.907  0.9032  0.0113  0.3903
  136fsi     O1 1719   2.628   1.401   2.026 -0.0296 -0.2203 -0.8171
  136fsi     O2 1720   2.413   1.319   2.078 -0.3574  0.7562 -0.4144
  136fsi     S2 1721   2.286   1.505   1.851 -0.0152  0.2565  0.2216
  136fsi     O3 1722   2.214   1.387   1.884 -0.3235 -0.0295  0.6497
  136fsi     O4 1723   2.279   1.560   1.718 -0.0463  0.3944 -0.0818
  136fsi     F2 1724   2.228   1.619   1.937 -0.1114  0.0535 -0.0389
  137fsi     F1 1725   1.889   3.005   1.233  0.1520 -0.0073  0.5173
  137fsi     S1 1726   1.856   2.850   1.248  0.0345 -0.0914 -0.3545
  137fsi      N 1727   2.005   2.789   1.258 -0.1484 -0.3429 -0.2552
  137fsi     O1 1728   1.793   2.858   1.378 -0.5023  0.1775  0.1194
  137fsi     O2 1729   1.775   2.811   1.140  0.6326 -0.2739  0.1914
  137fsi     S2 1730   2.070   2.689   1.158 -0.5672  0.0619  0.1188
  137fsi     O3 1731   2.191   2.737   1.101 -0.1854  0.4198  0.1708
  137fsi     O4 1732   1.982   2.621   1.069  0.6550 -0.5742 -0.0317
  137fsi     F2 1733   2.115   2.576   1.257  0.0907  0.0380 -0.2063
  138fsi     F1 1734   2.046   0.581   2.049 -0.1809  0.1887  0.0386
  138fsi     S1 1735   2.093   0.460   2.122  0.0914 -0.4010 -0.0173
  138fsi      N 1736   1.961   0.388   2.150  0.2849  0.2848  0.0814
  138fsi     O1 1737   2.168   0.390   2.021 -0.2782  0.6155 -0.2747
  138fsi     O2 1738   2.166   0.509   2.238  0.0152  0.3904  0.5368
  138fsi     S2 1739   1.869   0.378   2.279  0.1886 -0.1210 -0.3215
  138fsi     O3 1740   1.744   0.443   2.257  0.0081 -0.1273 -0.0384
  138fsi     O4 1741   1.933   0.401   2.408  0.3594  0.2047 -0.4130
  138fsi     F2 1742   1.829   0.228   2.291 -0.2646 -0.0461  0.6309
  139fsi     F1 1743   2.159   0.864   1.888  0.1188 -0.2976 -0.3516
  139fsi     S1 1744   2.176   1.002   1.824  0.6261  0.0921 -0.1771
  139fsi      N 1745   2.022   1.026   1.800  0.3451 -0.4346  0.1052
  139fsi     O1 1746   2.235   1.081   1.926  0.7360  0.3406  0.7289
  139fsi     O2 1747   2.250   0.967   1.702  0.2571 -0.6067  0.0939
  139fsi     S2 1748   1.913   1.076   1.897  0.3736  0.2102  0.0418
  139fsi     O3 1749   1.797   1.115   1.824  0.5667  0.0954 -0.3508
  139fsi     O4 1750   1.961   1.162   2.001 -0.2354 -0.2132  0.1312
  139fsi     F2 1751   1.855   0.951   1.977  0.5247 -0.2445  0.5694
  140fsi     F1 1752   0.604   1.147   2.328 -0.1210  0.2398 -0.4256
  140fsi     S1 1753   0.710   1.253   2.376 -0.2794 -0.4267  0.0380
  140fsi      N 1754   0.630   1.363   2.444 -0.4390  0.5659 -0.0371
  140fsi     O1 1755   0.789   1.183   2.475  0.3790 -0.2036  0.1881
  140fsi     O2 1756   0.773   1.298   2.253 -0.2822 -0.0654 -0.0039
  140fsi     S2 1757   0.588   1.510   2.409 -0.2366 -0.2363 -0.0361
  140fsi     O3 1758   0.684   1.576   2.323 -0.0879  0.3851 -0.1352
  140fsi     O4 1759   0.536   1.582   2.520 -0.1494  0.3125  0.1630
  140fsi     F2 1760   0.468   1.485   2.312 -0.0706 -0.3510 -0.1740
  141fsi     F1 1761   2.288   2.677   2.163 -0.5470  0.5940 -0.1174
  141fsi     S1 1762   2.395   2.566   2.126 -0.2394 -0.3559  0.5208
  141fsi      N 1763   2.314   2.432   2.135 -0.1398 -0.0901 -0.6891
  141fsi     O1 1764   2.452   2.598   1.998 -0.2603 -0.2672  0.6064
  141fsi     O2 1765   2.485   2.588   2.234 -0.3837  0.2794  0.2223
  141fsi     S2 1766   2.339   2.315   2.228 -0.0488 -0.1708  0.2264
  141fsi     O3 1767   2.472   2.305   2.271  0.4417 -0.6985 -0.7314
  141fsi     O4 1768   2.269   2.196   2.196  0.5901  0.2359  0.7382
  141fsi     F2 1769   2.273   2.371   2.362  0.0822 -0.0563 -0.3821
  142fsi     F1 1770   2.522   2.362   1.075  0.3223  0.1245 -0.0522
  142fsi     S1 1771   2.393   2.381   1.156 -0.8801  0.1677 -0.0535
  142fsi      N 1772   2.299   2.446   1.047  0.3628  0.1727  0.1118
  142fsi     O1 1773   2.362   2.247   1.204 -0.1089 -0.0652 -0.0033
  142fsi     O2 1774   2.427   2.478   1.256 -0.0984  0.4490  0.0315
  142fsi     S2 1775   2.219   2.377   0.933 -0.1800  0.0041 -0.4418
  142fsi     O3 1776   2.284   2.266   0.871 -0.1120 -0.0394 -0.3015
  142fsi     O4 1777   2.151   2.476   0.850 -0.4214 -0.0454  0.2350
  142fsi     F2 1778   2.107   2.313   1.019  0.3234 -0.2778  0.2750
  143fsi     F1 1779   2.097   2.539   0.015 -0.1811 -0.0101  0.1908
  143fsi     S1 1780   2.200   2.453   0.087  0.4045  0.0460  0.0759
  143fsi      N 1781   2.342   2.492   0.028  0.5126 -0.6553  0.0220
  143fsi     O1 1782   2.189   2.488   0.227 -0.0532  0.0245 -0.0899
  143fsi     O2 1783   2.169   2.313   0.056  0.3394 -0.6769  0.0583
  143fsi     S2 1784   2.435   2.606   0.073  0.1985 -0.6054  0.1985
  143fsi     O3 1785   2.575   2.577   0.044  0.6819  0.3516 -0.2003
  143fsi     O4 1786   2.407   2.662   0.203 -0.6804 -0.4720 -0.2274
  143fsi     F2 1787   2.399   2.711  -0.029  0.7306 -0.0519 -0.0224
  144fsi     F1 1788   0.004   2.442   1.330 -0.1897 -0.1224 -0.5584
  144fsi     S1 1789   0.151   2.375   1.341 -0.0928 -0.6015  0.1043
  144fsi      N 1790   0.137   2.243   1.263  0.3776 -0.3647  0.3670
  144fsi     O1 1791   0.243   2.465   1.280 -0.0274 -0.1415 -0.0886
  144fsi     O2 1792   0.171   2.363   1.482 -0.7885 -1.0065 -0.1228
  144fsi     S2 1793   0.175   2.098   1.302  0.3095  0.1248  0.1380
  144fsi     O3 1794   0.077   2.002   1.252  0.0811  0.0421 -0.1948
  144fsi     O4 1795   0.226   2.079   1.436  0.1605 -0.0186 -0.0491
  144fsi     F2 1796   0.298   2.066   1.207 -0.3779  0.0725  0.3315
  145fsi     F1 1797   0.599   2.373   1.817 -0.1928  0.4856  0.0745
  145fsi     S1 1798   0.500   2.448   1.738  0.3438 -0.4067  0.2929
  145fsi      N 1799   0.582   2.494   1.614 -0.0500  0.0509 -0.1553
  145fsi     O1 1800   0.399   2.352   1.707  0.3489 -0.0164 -0.1202
  145fsi     O2 1801   0.463   2.560   1.825 -0.4805 -0.2327  0.0252
  145fsi     S2 1802   0.566   2.461   1.465 -0.1221  0.3698  0.2978
  145fsi     O3 1803   0.535   2.578   1.388  0.1604 -0.7003 -0.6728
  145fsi     O4 1804   0.497   2.342   1.434  0.3486 -0.3256  0.3323
  145fsi     F2 1805   0.709   2.435   1.415 -0.3987 -0.1138 -0.1064
  146fsi     F1 1806   2.304   2.050   0.317  0.2873 -1.0495  0.0440
  146fsi     S1 1807   2.286   1.912   0.390  0.1700 -0.1806 -0.1412
  146fsi      N 1808   2.383   1.823   0.306 -0.3776  0.0565  0.4738
  146fsi     O1 1809   2.328   1.942   0.524  0.3865 -0.2113  0.1712
  146fsi     O2 1810   2.149   1.873   0.377  0.6286  0.1664  0.1148
  146fsi     S2 1811   2.339   1.723   0.198  0.1241 -0.4576  0.1125
  146fsi     O3 1812   2.218   1.752   0.122 -0.2159 -0.7783 -0.2145
  146fsi     O4 1813   2.358   1.583   0.231 -0.2764  0.5294  0.0907
  146fsi     F2 1814   2.454   1.748   0.096 -0.1614 -0.4310 -0.6741
  147fsi     F1 1815   0.974   0.626   0.622 -0.3231  0.4983  0.4328
  147fsi     S1 1816   1.035   0.508   0.710 -0.0948 -0.2562 -0.1838
  147fsi      N 1817   1.144   0.445   0.612  0.0409 -0.0344  0.1942
  147fsi     O1 1818   1.096   0.579   0.818  0.2042 -0.9314 -0.6752
  147fsi     O2 1819   0.926   0.413   0.732 -0.5441 -0.2303 -0.0761
  147fsi     S2 1820   1.277   0.372   0.647 -0.1413  0.1964  0.4094
  147fsi     O3 1821   1.313   0.362   0.784 -0.2024 -0.5854  0.0672
  147fsi     O4 1822   1.380   0.414   0.557  0.1069 -0.1230 -0.1027
  147fsi     F2 1823   1.256   0.218   0.601  0.4561  0.5576 -0.4667
  148fsi     F1 1824   0.549   2.443   0.067 -0.5674  0.2259 -0.0414
  148fsi     S1 1825   0.642   2.564   0.077 -0.3532  0.0870  0.0372
  148fsi      N 1826   0.573   2.646   0.197 -0.2474  0.3416  0.2002
  148fsi     O1 1827   0.775   2.502   0.089 -0.4689  0.4390  0.2048
  148fsi     O2 1828   0.609   2.640  -0.041  0.5590  0.4590 -0.2034
  148fsi     S2 1829   0.594   2.623   0.350 -0.6705 -0.0266 -0.3663
  148fsi     O3 1830   0.668   2.506   0.384 -0.1783 -0.3590  0.7052
  148fsi     O4 1831   0.465   2.638   0.419  0.5990 -0.5920  0.2435
  148fsi     F2 1832   0.691   2.743   0.399  0.3614 -0.0948  0.5925
  149fsi     F1 1833   0.302   1.125   0.325 -0.0380 -1.1819  0.4347
  149fsi     S1 1834   0.161   1.150   0.379  0.2879 -0.2885  0.1163
  149fsi      N 1835   0.197   1.187   0.531 -0.4570  0.5275  0.2563
  149fsi     O1 1836   0.110   1.266   0.312 -0.7288 -0.1907 -0.1429
  149fsi     O2 1837   0.093   1.028   0.364  0.2006  0.7030  0.0993
  149fsi     S2 1838   0.157   1.103   0.656  0.2577 -0.1716  0.4676
  149fsi     O3 1839   0.015   1.083   0.665  0.2096  0.0998 -0.3942
  149fsi     O4 1840   0.227   1.144   0.771 -0.5399  0.1491 -0.0384
  149fsi     F2 1841   0.208   0.960   0.627  0.3814 -1.0091  0.2218
  150fsi     F1 1842   2.198   1.208   0.418 -0.1179  0.4796 -0.0648
  150fsi     S1 1843   2.138   1.105   0.311  0.0332  0.4630  0.0246
  150fsi      N 1844   1.980   1.105   0.331  0.0581 -0.2508 -0.7701
  150fsi     O1 1845   2.176   1.173   0.192  0.4109  0.3438  0.2689
  150fsi     O2 1846   2.200   0.981   0.349  0.3744 -0.3643  0.0536
  150fsi     S2 1847   1.872   0.998   0.376  0.1910 -0.3062  0.5263
  150fsi     O3 1848   1.913   0.860   0.381  0.3731  0.0788  0.5584
  150fsi     O4 1849   1.747   1.024   0.315  0.6499 -0.1223  0.4465
  150fsi     F2 1850   1.846   1.031   0.527  0.2132 -0.3788  0.1586
  151fsi     F1 1851   0.113   0.063   0.518  0.0103 -0.2687 -0.0991
  151fsi     S1 1852   0.117  -0.081   0.581 -0.2958  0.3622 -0.0078
  151fsi      N 1853   0.137  -0.034   0.731  0.3807  0.5600 -0.7888
  151fsi     O1 1854  -0.018  -0.126   0.560 -0.3239 -0.4953  0.2788
  151fsi     O2 1855   0.232  -0.142   0.522 -0.5936  0.0883  0.3790
  151fsi     S2 1856   0.221  -0.095   0.841 -0.1485  0.3565 -0.0250
  151fsi     O3 1857   0.295  -0.216   0.816 -0.1741 -0.3327 -0.2649
  151fsi     O4 1858   0.161  -0.087   0.973  0.2109 -0.1601  0.2959
  151fsi     F2 1859   0.339   0.004   0.857 -0.2251  0.0708 -0.0235
  152fsi     F1 1860   1.323   0.054   1.433  0.5007  0.6503  0.0908
  152fsi     S1 1861   1.435  -0.000   1.342  0.1126 -0.2509 -0.3717
  152fsi      N 1862   1.535   0.118   1.362  0.1554 -0.2957  0.0541
  152fsi     O1 1863   1.488  -0.119   1.403  0.2764  0.7038 -0.4145
  152fsi     O2 1864   1.373  -0.013   1.213  0.5670  0.0022  0.3925
  152fsi     S2 1865   1.559   0.248   1.276 -0.2011 -0.0163 -0.3555
  152fsi     O3 1866   1.492   0.255   1.150  0.4118  0.2530 -0.1828
  152fsi     O4 1867   1.696   0.281   1.277  0.3035 -0.4262 -0.0170
  152fsi     F2 1868   1.484   0.360   1.366  0.3082 -0.2851 -0.0101
  153fsi     F1 1869   1.609   2.700   2.570 -0.3310  0.5353  0.3633
  153fsi     S1 1870   1.691   2.686   2.705  0.0958 -0.2045 -0.0988
  153fsi      N 1871   1.827   2.615   2.662  0.0846  0.2495 -0.1496
  153fsi     O1 1872   1.706   2.821   2.759 -0.1873  0.3579 -0.2577
  153fsi     O2 1873   1.614   2.607   2.788  0.2993  0.6232 -0.6930
  153fsi     S2 1874   1.855   2.473   2.597 -0.0330 -0.2175  0.1533
  153fsi     O3 1875   1.754   2.379   2.626 -0.3509  0.0568 -0.4757
  153fsi     O4 1876   1.989   2.426   2.621  0.7015  0.3968 -0.0100
  153fsi     F2 1877   1.847   2.498   2.441 -0.0303 -0.0484 -0.0628
  154fsi     F1 1878   0.760   1.950   1.929  0.5030  0.3301  0.3778
  154fsi     S1 1879   0.721   1.909   2.079  0.2457 -0.1876  0.3526
  154fsi      N 1880   0.782   2.033   2.160 -0.0673 -0.1094 -0.4087
  154fsi     O1 1881   0.579   1.901   2.088 -0.4894 -0.1832  0.1232
  154fsi     O2 1882   0.794   1.788   2.093  0.3945  0.5233 -0.2554
  154fsi     S2 1883   0.869   2.019   2.291 -0.1873 -0.0219  0.1354
  154fsi     O3 1884   0.846   1.903   2.376 -0.0755 -0.0239  0.5266
  154fsi     O4 1885   0.886   2.143   2.364  0.1053 -0.9424 -0.1275
  154fsi     F2 1886   1.014   1.991   2.224 -0.0315 -0.6323  0.5188
  155fsi     F1 1887   1.336   1.566   0.399 -0.2736 -0.1363 -0.4819
  155fsi     S1 1888   1.485   1.594   0.359 -0.0082  0.1257 -0.2483
  155fsi      N 1889   1.465   1.715   0.269  0.6719  0.4511  0.1667
  155fsi     O1 1890   1.538   1.607   0.490 -0.5457 -0.3140 -0.0830
  155fsi     O2 1891   1.519   1.479   0.277  0.4171  0.0625 -0.2350
  155fsi     S2 1892   1.477   1.865   0.303 -0.1728  0.0068 -0.0464
  155fsi     O3 1893   1.576   1.886   0.407 -0.2604 -0.9818  0.1321
  155fsi     O4 1894   1.354   1.934   0.318  0.4841  0.3428 -0.3030
  155fsi     F2 1895   1.541   1.934   0.184 -0.0934  0.1638 -0.4383
  156fsi     F1 1896   0.322   0.518   0.254  0.3895 -0.4789 -0.1168
  156fsi     S1 1897   0.268   0.517   0.109  0.1849 -0.0524  0.0989
  156fsi      N 1898   0.216   0.375   0.097  0.4906  0.0615  0.0249
  156fsi     O1 1899   0.165   0.615   0.114  0.7853  0.1038 -0.5161
  156fsi     O2 1900   0.372   0.555   0.019 -0.4069  0.4415  0.5199
  156fsi     S2 1901   0.077   0.314   0.140  0.2814 -0.1268 -0.3043
  156fsi     O3 1902  -0.033   0.395   0.204  0.0668  0.3181  0.2821
  156fsi     O4 1903   0.099   0.187   0.197 -0.0141  0.3055 -0.2561
  156fsi     F2 1904   0.019   0.264   0.000  0.3129 -0.2747  0.0364
  157fsi     F1 1905   1.043   1.298   1.560 -0.6407 -0.0563 -0.0999
  157fsi     S1 1906   1.001   1.349   1.411  0.6105 -0.2577 -0.2176
  157fsi      N 1907   0.876   1.437   1.438  0.2378 -0.5732 -0.1490
  157fsi     O1 1908   1.114   1.420   1.357  0.0917 -0.2911  0.6158
  157fsi     O2 1909   0.963   1.222   1.352 -0.2312  0.5314 -0.4185
  157fsi     S2 1910   0.860   1.588   1.475 -0.0458 -0.1173 -0.2630
  157fsi     O3 1911   0.989   1.657   1.491  0.4314 -0.5548 -0.6521
  157fsi     O4 1912   0.764   1.611   1.581  0.2613 -0.4288  0.3167
  157fsi     F2 1913   0.798   1.655   1.348  0.1085  0.0282  0.1297
  158fsi     F1 1914   1.957   2.345   2.116 -0.0925 -0.0518  0.5440
  158fsi     S1 1915   1.929   2.412   1.978 -0.0612 -0.0163  0.5596
  158fsi      N 1916   1.787   2.474   1.998 -0.7047  0.5558  0.3194
  158fsi     O1 1917   2.031   2.513   1.978  0.0914 -0.5396 -0.3491
  158fsi     O2 1918   1.940   2.305   1.884  0.1086  0.4461 -0.1069
  158fsi     S2 1919   1.652   2.405   1.958  0.1042 -0.1031  0.3964
  158fsi     O3 1920   1.658   2.337   1.829  0.7265 -0.5665  0.1246
  158fsi     O4 1921   1.533   2.476   1.984  0.0318  0.7259  0.2667
  158fsi     F2 1922   1.642   2.290   2.059  0.0951  0.3689 -0.0397
  159fsi     F1 1923   0.809   2.701   1.584  0.5131 -0.3138 -0.0380
  159fsi     S1 1924   0.871   2.690   1.736 -0.1613  0.2903  0.2458
  159fsi      N 1925   1.025   2.696   1.706  0.6312 -0.0267  0.4351
  159fsi     O1 1926   0.831   2.806   1.817  0.0014 -0.3191 -0.0903
  159fsi     O2 1927   0.824   2.563   1.781 -1.0878  0.2801  0.5996
  159fsi     S2 1928   1.130   2.820   1.706 -0.0978  0.2292  0.2833
  159fsi     O3 1929   1.059   2.946   1.709 -0.0863 -0.3941  0.0131
  159fsi     O4 1930   1.249   2.814   1.627 -0.1986  0.4939 -0.5828
  159fsi     F2 1931   1.186   2.806   1.858  0.6481  0.3460  0.8238
  160fsi     F1 1932   1.255   2.031   2.448  0.2833  0.4232 -0.3311
  160fsi     S1 1933   1.320   1.884   2.463 -0.0586  0.4617 -0.3124
  160fsi      N 1934   1.218   1.796   2.376  0.1852  0.5273 -0.8522
  160fsi     O1 1935   1.449   1.896   2.407  0.4651  0.3430  0.1857
  160fsi     O2 1936   1.318   1.871   2.608 -0.3119 -0.0206  0.0552
  160fsi     S2 1937   1.116   1.686   2.424 -0.1027 -0.1270  0.2968
  160fsi     O3 1938   1.019   1.644   2.322 -0.1052  0.0337 -0.1767
  160fsi     O4 1939   1.064   1.701   2.554 -0.3063  0.3232  0.0522
  160fsi     F2 1940   1.213   1.563   2.441  0.2643  0.3770  0.1369
  161fsi     F1 1941   1.521   1.990   1.386 -0.4568  0.1687  0.2434
  161fsi     S1 1942   1.482   2.068   1.512  0.1500  0.1827 -0.2751
  161fsi      N 1943   1.609   2.065   1.604  0.0846 -0.5383  0.1911
  161fsi     O1 1944   1.472   2.199   1.460 -0.3355 -0.3633  0.2536
  161fsi     O2 1945   1.359   2.006   1.549  0.4016 -1.0255  0.1915
  161fsi     S2 1946   1.641   1.955   1.711  0.2326  0.5959 -0.1050
  161fsi     O3 1947   1.533   1.870   1.747  0.4370  0.0076 -0.9463
  161fsi     O4 1948   1.729   2.001   1.809  0.0943  0.2587 -0.5084
  161fsi     F2 1949   1.734   1.865   1.628 -0.2700  0.4873 -0.9457
  162fsi     F1 1950   2.135   0.495   0.715  0.4217  0.1922 -0.1027
  162fsi     S1 1951   2.180   0.644   0.710  0.3949 -0.3170 -0.0861
  162fsi      N 1952   2.328   0.633   0.659 -0.8582  0.4161  0.1562
  162fsi     O1 1953   2.088   0.702   0.616  0.3428 -0.1353  0.3482
  162fsi     O2 1954   2.183   0.685   0.846 -0.2917  0.5475 -0.3168
  162fsi     S2 1955   2.378   0.631   0.509  0.1140  0.3486 -0.6726
  162fsi     O3 1956   2.279   0.600   0.407 -0.0116  1.1969 -0.0369
  162fsi     O4 1957   2.499   0.560   0.499 -0.3092  0.6720  0.3354
  162fsi     F2 1958   2.424   0.776   0.469 -0.0573  0.7962 -0.2485
  163fsi     F1 1959   1.191   1.495   0.911 -0.0097 -0.2532  0.2391
  163fsi     S1 1960   1.295   1.381   0.932 -0.0377  0.1621 -0.1824
  163fsi      N 1961   1.216   1.251   0.891 -0.1086  0.5589  0.6436
  163fsi     O1 1962   1.400   1.407   0.836  0.4253 -0.4457 -0.1437
  163fsi     O2 1963   1.327   1.390   1.072  0.1706  0.4933  0.2294
  163fsi     S2 1964   1.128   1.147   0.977 -0.0479 -0.1307  0.1467
  163fsi     O3 1965   1.183   1.103   1.103  0.0917 -0.0429  0.5403
  163fsi     O4 1966   1.065   1.045   0.896  0.3162  0.0908 -0.0966
  163fsi     F2 1967   1.013   1.228   1.027  0.3187 -0.2339 -0.2412
  164fsi     F1 1968   0.144   2.642   1.950 -0.5417  0.2354  0.5559
  164fsi     S1 1969   0.152   2.504   2.022  0.3606  0.0446  0.2243
  164fsi      N 1970   0.028   2.510   2.115  0.2774  0.4056  0.5135
  164fsi     O1 1971   0.148   2.410   1.920  0.3571 -0.2351 -0.1926
  164fsi     O2 1972   0.279   2.510   2.101  0.6489  0.9782  0.1264
  164fsi     S2 1973  -0.130   2.506   2.076  0.1016  0.0451 -0.0114
  164fsi     O3 1974  -0.162   2.602   1.970  0.7537  0.3070  0.0930
  164fsi     O4 1975  -0.224   2.492   2.187 -0.9006  0.6327  0.1180
  164fsi     F2 1976  -0.149   2.361   2.015  0.0013 -0.0871  0.2759
  165fsi     F1 1977   2.189   0.977   0.676 -0.4430 -0.0205 -0.1446
  165fsi     S1 1978   2.184   1.085   0.784 -0.2799  0.0747  0.1116
  165fsi      N 1979   2.036   1.133   0.769  0.4644 -0.3728 -0.1937
  165fsi     O1 1980   2.214   1.013   0.908  0.6921  0.6443 -0.1745
  165fsi     O2 1981   2.277   1.186   0.746  0.0614  0.0491  0.4570
  165fsi     S2 1982   1.915   1.090   0.844 -0.4519  0.0733  0.1576
  165fsi     O3 1983   1.921   0.949   0.874 -0.0659  0.0428  0.7860
  165fsi     O4 1984   1.787   1.143   0.806 -0.1306 -0.0649 -0.7563
  165fsi     F2 1985   1.942   1.149   0.994 -0.0178  0.1566  0.0663
  166fsi     F1 1986   2.544   3.004   2.956 -0.0965 -0.0169  0.1074
  166fsi     S1 1987   2.697   3.010   2.982  0.0071 -0.2471 -0.2390
  166fsi      N 1988   2.758   3.007   2.832  0.3272  0.2703 -0.3604
  166fsi     O1 1989   2.711   3.125   3.068 -0.0024  0.6375  0.5168
  166fsi     O2 1990   2.719   2.884   3.042 -0.1579  0.0351 -0.0548
  166fsi     S2 1991   2.823   3.123   2.752  0.2583  0.5284 -0.3939
  166fsi     O3 1992   2.824   3.254   2.814  0.3666  0.1389 -0.2160
  166fsi     O4 1993   2.805   3.113   2.611 -0.4052  0.2855  0.2413
  166fsi     F2 1994   2.979   3.082   2.768  0.2204  0.0804  0.2520
  167fsi     F1 1995   1.710   1.094   1.147 -0.0587  0.3072  0.0714
  167fsi     S1 1996   1.639   1.235   1.120 -0.0203  0.0612 -0.3595
  167fsi      N 1997   1.757   1.339   1.123 -0.1072 -0.5540  0.0841
  167fsi     O1 1998   1.571   1.220   0.996 -0.3831  0.6558 -0.4946
  167fsi     O2 1999   1.558   1.248   1.235  0.4784 -0.1147 -0.1065
  167fsi     S2 2000   1.803   1.430   1.003  0.0015 -0.2059 -0.0429
  167fsi     O3 2001   1.738   1.408   0.882  0.7116 -0.0269  0.2397
  167fsi     O4 2002   1.944   1.456   0.999 -0.2872  0.0689 -0.0923
  167fsi     F2 2003   1.756   1.579   1.045 -0.3372  0.0478 -0.3515
  168fsi     F1 2004   2.444   0.911   1.096  0.6006  0.4034  0.5426
  168fsi     S1 2005   2.344   0.838   1.194 -0.0795 -0.2147 -0.2328
  168fsi      N 2006   2.442   0.736   1.269 -0.4619 -0.5824 -0.2973
  168fsi     O1 2007   2.294   0.944   1.277 -0.1400  0.3425  0.3787
  168fsi     O2 2008   2.252   0.775   1.108 -0.1385  0.0206  0.1763
  168fsi     S2 2009   2.512   0.763   1.412 -0.1967  0.1976 -0.4544
  168fsi     O3 2010   2.603   0.655   1.441 -0.0836  0.1030  0.4358
  168fsi     O4 2011   2.434   0.811   1.524  0.3701  0.3705  0.4540
  168fsi     F2 2012   2.599   0.886   1.384  0.1887  0.4494  0.0007
  169fsi     F1 2013   0.141   2.413   0.424  0.2050 -0.4413  0.5922
  169fsi     S1 2014   0.053   2.494   0.519  0.1924  0.2758  0.0585
  169fsi      N 2015  -0.020   2.596   0.420  0.3136  0.4047 -0.4852
  169fsi     O1 2016  -0.031   2.392   0.572 -0.6034 -0.1289 -0.3936
  169fsi     O2 2017   0.146   2.554   0.604 -0.1783 -0.4079 -0.0118
  169fsi     S2 2018  -0.157   2.568   0.345  0.6352 -0.2073 -0.0969
  169fsi     O3 2019  -0.197   2.428   0.334 -0.6882  0.0821  0.3043
  169fsi     O4 2020  -0.171   2.646   0.230  0.0838  0.5423 -0.0419
  169fsi     F2 2021  -0.273   2.626   0.437  0.1736 -0.0323 -0.4048
  170fsi     F1 2022   2.878   2.677   2.600 -0.3113 -0.0730 -0.2818
  170fsi     S1 2023   2.757   2.583   2.634 -0.0510 -0.1880 -0.5334
  170fsi      N 2024   2.829   2.453   2.687  0.2778 -0.4174 -0.2829
  170fsi     O1 2025   2.682   2.658   2.732 -0.1196  0.6475  0.2077
  170fsi     O2 2026   2.688   2.560   2.514  0.2514 -0.0957  0.5219
  170fsi     S2 2027   2.866   2.411   2.835 -0.0566 -0.1820  0.2694
  170fsi     O3 2028   2.867   2.525   2.923  0.0422  0.2749  0.0981
  170fsi     O4 2029   2.969   2.313   2.848 -0.6391  1.0979  0.5935
  170fsi     F2 2030   2.739   2.328   2.874  0.0025 -0.4428  0.4464
  171fsi     F1 2031   1.778   0.364   1.581  0.5162 -0.3546  0.4233
  171fsi     S1 2032   1.764   0.231   1.661 -0.0696 -0.1679 -0.2568
  171fsi      N 2033   1.839   0.128   1.577 -0.1030 -0.1093 -0.0548
  171fsi     O1 2034   1.821   0.264   1.793  0.3074  0.4615  0.0884
  171fsi     O2 2035   1.626   0.197   1.658  0.3840  0.3309  0.0052
  171fsi     S2 2036   1.987   0.070   1.593 -0.0639 -0.2816 -0.0254
  171fsi     O3 2037   2.056   0.109   1.714 -0.2765 -0.3224  0.0829
  171fsi     O4 2038   2.061   0.094   1.472 -0.1614 -0.1019 -0.2504
  171fsi     F2 2039   1.967  -0.082   1.597  0.0265  0.2966 -0.5360
  172fsi     F1 2040   0.557   1.427   2.071  0.2639 -0.1811 -0.0644
  172fsi     S1 2041   0.516   1.537   1.958 -0.2133 -0.0839 -0.2014
  172fsi      N 2042   0.427   1.452   1.868  0.8495 -0.2386 -0.3934
  172fsi     O1 2043   0.442   1.640   2.025  0.1496  0.0672  0.3814
  172fsi     O2 2044   0.637   1.574   1.896  0.3056 -0.1470 -0.3896
  172fsi     S2 2045   0.270   1.437   1.854 -0.3133 -0.4459  0.1359
  172fsi     O3 2046   0.195   1.468   1.977  0.0437 -0.2195 -0.2289
  172fsi     O4 2047   0.234   1.317   1.785  0.0776  0.0381  0.2986
  172fsi     F2 2048   0.226   1.549   1.758 -0.3450  0.4858 -0.0340
  173fsi     F1 2049   0.468   2.213   2.166  0.4886  0.6375  0.2959
  173fsi     S1 2050   0.373   2.185   2.291  0.1131  0.4478 -0.0976
  173fsi      N 2051   0.335   2.030   2.273 -0.2378 -0.1294 -0.0254
  173fsi     O1 2052   0.456   2.218   2.402  0.5030  0.0429  0.1313
  173fsi     O2 2053   0.260   2.272   2.268  0.1189  0.0380  0.7921
  173fsi     S2 2054   0.391   1.908   2.357 -0.7283 -0.3279 -0.3750
  173fsi     O3 2055   0.534   1.908   2.387  0.4115  0.0475 -0.9043
  173fsi     O4 2056   0.340   1.782   2.312 -0.5289 -0.1718 -0.1236
  173fsi     F2 2057   0.319   1.924   2.501  0.4100 -0.4762  0.2738
  174fsi     F1 2058   0.759   0.462   1.712  0.1353 -0.0282 -0.1080
  174fsi     S1 2059   0.854   0.368   1.620  0.0284 -0.0671 -0.3093
  174fsi      N 2060   0.991   0.447   1.606 -0.1534  0.1031  0.1313
  174fsi     O1 2061   0.859   0.244   1.697  0.4187  0.1355 -0.4919
  174fsi     O2 2062   0.779   0.367   1.492 -0.8845 -0.1342  0.2714
  174fsi     S2 2063   1.125   0.411   1.676  0.0572  0.4516 -0.7600
  174fsi     O3 2064   1.134   0.395   1.821  0.0926 -0.2263  0.2655
  174fsi     O4 2065   1.226   0.496   1.622  0.3959 -0.7705 -0.2517
  174fsi     F2 2066   1.165   0.266   1.624  0.2266  0.8992  0.0159
  175fsi     F1 2067   0.435   1.504   0.828  0.6778  0.0883 -0.3682
  175fsi     S1 2068   0.462   1.493   0.982 -0.0831  0.2321 -0.0454
  175fsi      N 2069   0.371   1.602   1.049  0.3884  0.2954 -0.3876
  175fsi     O1 2070   0.427   1.359   1.011 -0.0919 -0.2249  0.0579
  175fsi     O2 2071   0.602   1.529   0.989  0.2825  0.6031 -0.1772
  175fsi     S2 2072   0.390   1.759   1.042  0.1103  0.0090 -0.4027
  175fsi     O3 2073   0.263   1.826   1.059 -0.1813 -0.3458  0.3383
  175fsi     O4 2074   0.466   1.809   0.930 -0.5435  0.6123  0.3723
  175fsi     F2 2075   0.466   1.800   1.175  0.1473  0.7450  0.1978
  176fsi     F1 2076   0.496   0.933   0.413 -0.3514 -0.1249  0.2507
  176fsi     S1 2077   0.461   0.828   0.304 -0.5205  0.1598 -0.1117
  176fsi      N 2078   0.564   0.719   0.338 -0.2108  0.3263  0.0503
  176fsi     O1 2079   0.323   0.791   0.332  0.0136  0.2993  0.2708
  176fsi     O2 2080   0.483   0.900   0.183  0.0784 -0.1311  0.3665
  176fsi     S2 2081   0.685   0.659   0.257  0.3147 -0.2692 -0.1495
  176fsi     O3 2082   0.706   0.703   0.119 -0.1596  0.1107  0.5886
  176fsi     O4 2083   0.707   0.521   0.291  0.2337 -0.3408 -0.3444
  176fsi     F2 2084   0.812   0.722   0.330  0.7869 -0.2247 -0.0414
  177fsi     F1 2085   2.190   0.070   0.332 -0.2063  0.2772 -0.9524
  177fsi     S1 2086   2.200  -0.058   0.250 -0.2973 -0.3628  0.0240
  177fsi      N 2087   2.055  -0.056   0.188  0.0144 -0.1939 -0.1406
  177fsi     O1 2088   2.304  -0.027   0.158  0.4597 -0.1342  0.3274
  177fsi     O2 2089   2.218  -0.158   0.355  0.2675  0.2869 -0.0078
  177fsi     S2 2090   2.025  -0.055   0.032 -0.0051 -0.3703  0.1572
  177fsi     O3 2091   2.105   0.025  -0.055  0.1271  0.4799 -0.3467
  177fsi     O4 2092   1.884  -0.055   0.007  0.3847 -0.5584 -0.5628
  177fsi     F2 2093   2.054  -0.203  -0.005  0.1650 -0.2049 -0.4379
  178fsi     F1 2094   1.860   0.892   2.239 -0.1686 -0.1874  0.0247
  178fsi     S1 2095   1.962   0.845   2.348 -0.1829 -0.0227  0.1315
  178fsi      N 2096   2.100   0.892   2.288  0.0619 -0.6412 -0.6980
  178fsi     O1 2097   1.913   0.917   2.462  0.2775 -0.7927 -0.0907
  178fsi     O2 2098   1.944   0.699   2.339 -0.3414 -0.1400  0.4432
  178fsi     S2 2099   2.203   1.003   2.337  0.2978 -0.0990 -0.0158
  178fsi     O3 2100   2.201   1.029   2.479 -0.1665 -0.3312  0.7929
  178fsi     O4 2101   2.212   1.121   2.250  0.4782  0.0020 -0.0415
  178fsi     F2 2102   2.343   0.927   2.329 -0.0385  0.9338  0.9391
  179fsi     F1 2103   1.427   1.501   1.355 -0.3170  0.1219 -0.6081
  179fsi     S1 2104   1.416   1.657   1.374  0.1243  0.3423  0.0818
  179fsi      N 2105   1.361   1.711   1.241 -0.2446 -0.4477  0.1892
  179fsi     O1 2106   1.327   1.671   1.482 -0.3265 -0.2971 -0.0179
  179fsi     O2 2107   1.550   1.694   1.403 -0.3201 -0.0909 -0.1230
  179fsi     S2 2108   1.227   1.779   1.195  0.1687 -0.2785  0.3713
  179fsi     O3 2109   1.247   1.860   1.079  0.2109 -0.0561  0.2672
  179fsi     O4 2110   1.146   1.831   1.305  0.4722 -0.4056 -0.0227
  179fsi     F2 2111   1.140   1.650   1.148  0.4481 -0.1233  0.6010
  180fsi     F1 2112   1.779   2.527   0.098 -0.1011 -0.2880 -0.1327
  180fsi     S1 2113   1.731   2.655   0.172  0.3693  0.1284  0.3511
  180fsi      N 2114   1.640   2.606   0.286 -0.1273  0.7320 -0.0858
  180fsi     O1 2115   1.855   2.708   0.229 -0.0776 -0.2726 -0.2106
  180fsi     O2 2116   1.665   2.730   0.070  0.2024  0.3965  0.5378
  180fsi     S2 2117   1.627   2.660   0.438  0.1066 -0.1101 -0.1410
  180fsi     O3 2118   1.702   2.778   0.473 -0.0110  0.0844  0.0584
  180fsi     O4 2119   1.633   2.547   0.529  0.6436 -0.1610  0.5495
  180fsi     F2 2120   1.479   2.712   0.448  0.3679  0.7050  0.0719
  181fsi     F1 2121   0.487   1.646   0.465 -0.1751 -0.0998 -0.4860
  181fsi     S1 2122   0.403   1.537   0.386  0.0562  0.2319 -0.2629
  181fsi      N 2123   0.308   1.633   0.296 -0.2301  0.3823  0.4035
  181fsi     O1 2124   0.500   1.457   0.317 -0.0422  0.5285  0.0979
  181fsi     O2 2125   0.336   1.477   0.503  0.2730  0.6997 -0.3569
  181fsi     S2 2126   0.158   1.672   0.324 -0.0237 -0.1281  0.0623
  181fsi     O3 2127   0.132   1.811   0.323  0.5071 -0.5746 -0.6378
  181fsi     O4 2128   0.096   1.603   0.432 -0.1929 -0.7181 -0.1382
  181fsi     F2 2129   0.100   1.604   0.193  0.4546 -0.1598  0.3308
  182fsi     F1 2130   0.460   0.087   1.747  0.0570 -0.3951  0.0742
  182fsi     S1 2131   0.570  -0.017   1.757 -0.1597 -0.0222 -0.2249
  182fsi      N 2132   0.661   0.013   1.640  0.2748  0.0893 -0.0112
  182fsi     O1 2133   0.643   0.012   1.876 -0.0848  0.3091 -0.6476
  182fsi     O2 2134   0.509  -0.144   1.746 -0.1284  0.5760 -0.0474
  182fsi     S2 2135   0.649  -0.030   1.493 -0.1537  0.0822  0.6537
  182fsi     O3 2136   0.571  -0.148   1.473  0.2873  0.4781  0.2414
  182fsi     O4 2137   0.776  -0.025   1.420  0.1235 -0.5077 -0.7196
  182fsi     F2 2138   0.578   0.080   1.416  0.0521 -0.6063 -0.0885
  183fsi     F1 2139   0.704   2.984   2.365  0.7584 -0.0437 -0.1608
  183fsi     S1 2140   0.847   3.045   2.370 -0.4073  0.2151  0.0823
  183fsi      N 2141   0.867   3.085   2.220 -0.4264  0.0951 -0.0978
  183fsi     O1 2142   0.831   3.155   2.462  0.0947 -0.1897  0.0370
  183fsi     O2 2143   0.936   2.946   2.410 -0.4091  0.3917  0.6141
  183fsi     S2 2144   0.963   3.018   2.114 -0.1011  0.0203 -0.3076
  183fsi     O3 2145   0.934   3.050   1.975  0.2525  0.7761  0.1232
  183fsi     O4 2146   0.989   2.877   2.130  0.1395 -0.5792 -0.5038
  183fsi     F2 2147   1.099   3.081   2.134  0.3296 -0.0261  0.0413
  184fsi     F1 2148   1.237   2.697   2.656  0.2211 -0.1614  0.1547
  184fsi     S1 2149   1.229   2.544   2.637  0.0078 -0.3659 -0.3509
  184fsi      N 2150   1.230   2.523   2.478 -0.1928  0.5517  0.2719
  184fsi     O1 2151   1.352   2.496   2.693  0.1011 -0.3468 -0.4609
  184fsi     O2 2152   1.104   2.510   2.703  0.2053 -0.2805  0.2742
  184fsi     S2 2153   1.341   2.462   2.385 -0.2507  0.4468 -0.1482
  184fsi     O3 2154   1.299   2.368   2.288 -0.5482  0.3481 -0.0005
  184fsi     O4 2155   1.467   2.441   2.452  0.2821  0.4522  0.7106
  184fsi     F2 2156   1.370   2.594   2.306 -0.7276  0.1324  0.2961
  185fsi     F1 2157   0.688   2.557   0.740 -0.1272  0.0857 -1.3216
  185fsi     S1 2158   0.583   2.443   0.757 -0.3504  0.7196 -0.0775
  185fsi      N 2159   0.612   2.389   0.903  0.4416  0.0244  0.2344
  185fsi     O1 2160   0.457   2.510   0.734  0.1531  0.1446 -0.1987
  185fsi     O2 2161   0.621   2.341   0.654  0.4048  0.4857 -0.0225
  185fsi     S2 2162   0.562   2.443   1.035 -0.0184 -0.1165  0.4969
  185fsi     O3 2163   0.463   2.542   1.040 -0.4554  0.5522 -0.3962
  185fsi     O4 2164   0.677   2.460   1.119  0.4768 -0.3588  0.2399
  185fsi     F2 2165   0.489   2.317   1.092  0.4084 -0.0428  0.4063
  186fsi     F1 2166   1.105   0.646   2.560 -0.3835 -0.0605 -0.3289
  186fsi     S1 2167   1.079   0.543   2.672  0.2264 -0.1522 -0.1100
  186fsi      N 2168   1.196   0.450   2.650 -0.0952 -0.0557 -0.7198
  186fsi     O1 2169   1.081   0.616   2.796  0.5987  0.3542  0.3389
  186fsi     O2 2170   0.956   0.487   2.622 -0.0370 -0.3402 -0.0156
  186fsi     S2 2171   1.216   0.325   2.556  0.1568 -0.1484 -0.1857
  186fsi     O3 2172   1.352   0.324   2.507 -0.4707  0.2237  0.0409
  186fsi     O4 2173   1.106   0.300   2.468 -0.0661  0.1788  0.1916
  186fsi     F2 2174   1.218   0.213   2.662 -0.2672 -0.0124  0.4842
  187fsi     F1 2175   1.252   0.864   0.147 -0.2211  0.3672  0.5101
  187fsi     S1 2176   1.330   0.926   0.021  0.0890  0.3770 -0.1062
  187fsi      N 2177   1.262   1.067   0.014 -0.4584 -0.0357 -0.2238
  187fsi     O1 2178   1.466   0.925   0.061  0.3553 -0.4685  0.1950
  187fsi     O2 2179   1.291   0.833  -0.082  0.3271  0.0643 -0.0235
  187fsi     S2 2180   1.314   1.206   0.066  0.5955  0.3271 -0.3342
  187fsi     O3 2181   1.432   1.198   0.148 -0.1109 -0.3092 -0.0420
  187fsi     O4 2182   1.212   1.298   0.114 -0.4778  0.4916  0.1667
  187fsi     F2 2183   1.354   1.287  -0.056  0.6673 -0.0638 -0.3624
  188fsi     F1 2184   0.804   1.810   0.102 -0.0480 -0.0937  0.3707
  188fsi     S1 2185   0.698   1.691   0.071 -0.0183  0.3045  0.0180
  188fsi      N 2186   0.695   1.703  -0.085 -0.0036  0.2386 -0.0153
  188fsi     O1 2187   0.758   1.570   0.116 -0.2104  0.0756 -0.4413
  188fsi     O2 2188   0.583   1.742   0.142 -0.0356 -0.3273 -0.0711
  188fsi     S2 2189   0.797   1.649  -0.185  0.2804 -0.1096  0.4117
  188fsi     O3 2190   0.930   1.647  -0.138 -1.1968  0.7335 -0.2292
  188fsi     O4 2191   0.776   1.703  -0.321 -0.5556 -0.3589 -0.3046
  188fsi     F2 2192   0.754   1.498  -0.200  0.2926 -0.2320 -0.2250
  189fsi     F1 2193   1.543   1.465   2.376 -0.0197  0.1561 -0.6670
  189fsi     S1 2194   1.606   1.480   2.239 -0.0168 -0.0523  0.2564
  189fsi      N 2195   1.514   1.586   2.167 -0.5039 -0.3722  0.2298
  189fsi     O1 2196   1.726   1.549   2.274 -0.5644  0.1028  0.5295
  189fsi     O2 2197   1.607   1.343   2.192  0.6624  0.2226 -0.0586
  189fsi     S2 2198   1.398   1.563   2.060 -0.4835  0.2323  0.1893
  189fsi     O3 2199   1.348   1.428   2.046 -0.2182  0.7852  0.2599
  189fsi     O4 2200   1.406   1.643   1.941  0.1014 -0.0829  0.1874
  189fsi     F2 2201   1.266   1.628   2.138 -0.9730  0.0446  0.2442
  190fsi     F1 2202   2.614   2.329   0.542  0.4494  0.6288  0.3793
  190fsi     S1 2203   2.456   2.357   0.546  0.0293  0.4956  0.2138
  190fsi      N 2204   2.455   2.455   0.668 -0.5982  0.0116  0.0849
  190fsi     O1 2205   2.416   2.417   0.422  0.4069  0.4402  0.0533
  190fsi     O2 2206   2.405   2.230   0.577  0.1889 -0.7086 -0.0665
  190fsi     S2 2207   2.455   2.608   0.682 -0.0031 -0.6287 -0.1795
  190fsi     O3 2208   2.404   2.651   0.806 -0.4972 -0.1551 -0.0837
  190fsi     O4 2209   2.392   2.678   0.565  0.1074  0.2217 -0.2173
  190fsi     F2 2210   2.605   2.655   0.679 -0.6523 -0.0490 -0.1233
  191fsi     F1 2211   2.294   0.194   2.231 -0.5537  0.0491  0.1319
  191fsi     S1 2212   2.442   0.227   2.276  0.1700 -0.4028 -0.0182
  191fsi      N 2213   2.410   0.361   2.358  0.2612 -0.1075 -0.1569
  191fsi     O1 2214   2.482   0.111   2.354  0.0338 -0.2817  0.2763
  191fsi     O2 2215   2.513   0.252   2.156  0.0022 -0.2325  0.3382
  191fsi     S2 2216   2.376   0.375   2.506 -0.4179 -0.0356  0.3663
  191fsi     O3 2217   2.355   0.253   2.578  0.2946 -0.3394  0.1855
  191fsi     O4 2218   2.286   0.484   2.532  0.3988 -0.7037 -0.2645
  191fsi     F2 2219   2.512   0.427   2.563  0.2727 -0.4179 -0.4322
  192fsi     F1 2220   0.570   0.254   2.989 -0.5036  0.6278 -0.1679
  192fsi     S1 2221   0.690   0.325   2.923  0.4174 -0.0663  0.3893
  192fsi      N 2222   0.670   0.306   2.767 -0.2175 -0.1665 -0.1373
  192fsi     O1 2223   0.676   0.456   2.982  0.1462 -0.0183 -0.1203
  192fsi     O2 2224   0.804   0.248   2.954 -0.2588  0.3648  0.0649
  192fsi     S2 2225   0.594   0.400   2.672 -0.1509  0.2315 -0.8308
  192fsi     O3 2226   0.657   0.409   2.544  0.1948 -0.3827 -0.3824
  192fsi     O4 2227   0.536   0.521   2.721 -0.1348  0.6667 -0.1543
  192fsi     F2 2228   0.462   0.308   2.640 -0.1129  0.3252  0.1206
  193fsi     F1 2229   2.143   2.305   1.487  0.5347 -0.4166 -0.0825
  193fsi     S1 2230   2.086   2.163   1.464  0.0463  0.0174  0.2148
  193fsi      N 2231   2.009   2.184   1.328 -0.5564 -0.4539  0.0130
  193fsi     O1 2232   2.199   2.077   1.453 -0.3912  0.3655 -0.3575
  193fsi     O2 2233   2.002   2.146   1.575 -0.1058  0.0471  0.1883
  193fsi     S2 2234   1.858   2.206   1.283  0.2477  0.0419 -0.0800
  193fsi     O3 2235   1.771   2.232   1.397  0.1672  0.2783 -0.4061
  193fsi     O4 2236   1.811   2.129   1.169 -0.3471 -1.0572  0.5851
  193fsi     F2 2237   1.860   2.348   1.217  0.0562  0.0621 -0.1954
  194fsi     F1 2238   0.118   1.090   1.325 -0.4728  0.7938 -0.3893
  194fsi     S1 2239   0.091   1.193   1.212  0.3048 -0.0819 -0.3947
  194fsi      N 2240  -0.049   1.141   1.167 -0.1699 -0.1572  0.2585
  194fsi     O1 2241   0.089   1.318   1.283 -0.2678  0.2507 -0.2179
  194fsi     O2 2242   0.201   1.176   1.115  0.1940 -0.0601  0.8439
  194fsi     S2 2243  -0.181   1.233   1.141  0.1135  0.0893 -0.2189
  194fsi     O3 2244  -0.168   1.378   1.167 -0.0743 -0.0607  0.6005
  194fsi     O4 2245  -0.295   1.166   1.199 -0.0466  0.1668  0.1497
  194fsi     F2 2246  -0.210   1.237   0.980  0.1807  0.4206 -0.2229
  195fsi     F1 2247   1.763   0.959   3.008 -0.2389  0.1352 -0.1245
  195fsi     S1 2248   1.772   1.110   2.956 -0.2667 -0.2916  0.3650
  195fsi      N 2249   1.634   1.135   2.889  0.1913  0.7123  0.4783
  195fsi     O1 2250   1.788   1.188   3.076 -0.5488  0.5903 -0.0301
  195fsi     O2 2251   1.888   1.114   2.869  0.1053  0.5248  0.2355
  195fsi     S2 2252   1.604   1.122   2.737  0.1643  0.1950  0.0673
  195fsi     O3 2253   1.704   1.055   2.663 -0.6371 -0.1088  0.3728
  195fsi     O4 2254   1.544   1.243   2.690 -0.1572  0.1179  0.0850
  195fsi     F2 2255   1.489   1.015   2.741  0.0297  0.0407  0.0487
  196fsi     F1 2256   0.267   0.748   2.753 -0.0987 -0.0882  0.0723
  196fsi     S1 2257   0.330   0.865   2.835  0.0520  0.2378  0.0314
  196fsi      N 2258   0.341   0.973   2.730 -0.4710 -0.3202 -0.1269
  196fsi     O1 2259   0.237   0.901   2.934 -0.3020 -0.3060  0.0011
  196fsi     O2 2260   0.451   0.815   2.887 -0.3712  0.3691 -0.0415
  196fsi     S2 2261   0.455   1.004   2.624  0.4965  0.4209  0.3567
  196fsi     O3 2262   0.399   1.052   2.502 -0.0742 -0.6357 -0.0565
  196fsi     O4 2263   0.550   0.897   2.617  0.3802 -0.0644 -0.4162
  196fsi     F2 2264   0.538   1.134   2.680  0.4362 -0.0959  0.3105
  197fsi     F1 2265   0.540   0.952   0.682 -0.6591  0.3586  0.6335
  197fsi     S1 2266   0.598   1.088   0.699 -0.0859 -0.2909 -0.2375
  197fsi      N 2267   0.559   1.127   0.847 -0.3794  0.5543 -0.3997
  197fsi     O1 2268   0.738   1.078   0.673  0.1189  0.4017  0.1751
  197fsi     O2 2269   0.518   1.158   0.604 -0.0273 -0.5404 -0.0667
  197fsi     S2 2270   0.652   1.118   0.978  0.1205 -0.0566  0.1509
  197fsi     O3 2271   0.770   1.044   0.958 -0.2491 -0.4075  0.6556
  197fsi     O4 2272   0.573   1.100   1.099 -0.4951  0.3160 -0.3756
  197fsi     F2 2273   0.705   1.261   0.985  0.2056 -0.1552  0.1901
  198fsi     F1 2274   2.361   0.217   1.525 -0.2734 -0.3710 -0.1435
  198fsi     S1 2275   2.384   0.328   1.633  0.3086 -0.0905 -0.1989
  198fsi      N 2276   2.291   0.446   1.572 -0.2182 -0.0165 -0.1171
  198fsi     O1 2277   2.324   0.271   1.755  0.2300 -0.3333 -0.2886
  198fsi     O2 2278   2.520   0.359   1.623 -0.0391  0.0310 -0.2946
  198fsi     S2 2279   2.139   0.494   1.595 -0.1748 -0.0440  0.2210
  198fsi     O3 2280   2.122   0.635   1.575 -0.7606 -0.0882 -0.6273
  198fsi     O4 2281   2.073   0.444   1.714 -0.1077 -0.2693 -0.1735
  198fsi     F2 2282   2.070   0.423   1.475  0.1352 -0.0578 -0.5045
  199fsi     F1 2283   2.823   0.906   1.550 -0.0227 -0.8910 -0.8218
  199fsi     S1 2284   2.899   0.802   1.639 -0.3111 -0.3862 -0.1695
  199fsi      N 2285   3.022   0.767   1.552  0.1366  0.3323  0.0780
  199fsi     O1 2286   2.922   0.884   1.755 -0.2515  0.3026  0.3775
  199fsi     O2 2287   2.803   0.693   1.648  0.2672  0.1104 -0.0813
  199fsi     S2 2288   3.170   0.818   1.551  0.4663  0.2562  0.1782
  199fsi     O3 2289   3.189   0.949   1.599  0.2632  0.2462  0.1276
  199fsi     O4 2290   3.233   0.787   1.426  0.1587  0.2001  0.1253
  199fsi     F2 2291   3.235   0.721   1.652 -0.1630 -0.6963 -0.3303
  200fsi     F1 2292   1.365   0.114   0.245 -0.0894  0.2373 -0.2769
  200fsi     S1 2293   1.423  -0.017   0.198  0.2839  0.0696 -0.0467
  200fsi      N 2294   1.476   0.016   0.052  0.3199 -0.0376 -0.1316
  200fsi     O1 2295   1.532  -0.043   0.286  0.3895 -0.0462 -0.0566
  200fsi     O2 2296   1.310  -0.106   0.204  0.0541  0.6984  0.0061
  200fsi     S2 2297   1.397  -0.008  -0.082  0.0764  0.1048  0.3528
  200fsi     O3 2298   1.256   0.018  -0.077 -0.5936 -0.1277 -0.0930
  200fsi     O4 2299   1.433  -0.126  -0.149  0.6130  0.0732 -0.4302
  200fsi     F2 2300   1.447   0.108  -0.167  0.1996 -0.0012 -0.3481
   3.01123   3.01123   3.01123
