simbox
 2300
    1Li      Li    1   0.356   1.502   0.807  0.1983  1.0888 -0.1230
    2Li      Li    2   0.920   0.994   0.777  0.1606 -0.2167 -0.2727
    3Li      Li    3   0.981   1.681   2.277 -0.3831  0.1109  1.0983
    4Li      Li    4   0.339   2.210   1.613  0.5864 -1.2133  0.1963
    5Li      Li    5   2.455   2.172   1.303 -0.4615  0.5916  0.2304
    6Li      Li    6   2.698   2.317   2.425 -0.3336  0.3834 -0.3066
    7Li      Li    7   0.967   0.344   2.405  0.0097 -0.8460 -0.2663
    8Li      Li    8   2.146   0.895   1.081 -0.6383 -0.7833  0.2127
    9Li      Li    9   2.119   0.784   0.367 -0.0840 -0.4940 -0.4533
   10Li      Li   10   0.774   1.845   1.764 -0.2945 -0.1977  0.5388
   11Li      Li   11   2.102   0.347   1.970 -0.0789 -0.0599 -0.4850
   12Li      Li   12   0.240   0.975   0.992 -0.7657  0.5479  0.4277
   13Li      Li   13   0.965   0.106   1.763 -0.0962 -0.5028 -0.0767
   14Li      Li   14   2.193   2.586   0.258  0.3079  0.3593 -0.2135
   15Li      Li   15   1.822   0.082   1.537  0.2896  0.3856 -0.5547
   16Li      Li   16   1.899   2.983   0.236 -0.1424  0.7147  0.0117
   17Li      Li   17   0.579   1.886   2.584 -0.0966  0.3590 -0.9004
   18Li      Li   18   1.891   1.479   2.170 -0.0509  0.0279 -0.9969
   19Li      Li   19   2.207   0.540   2.559 -0.2261 -0.4009  0.9052
   20Li      Li   20   0.319   1.913   0.161  0.4381 -0.1805 -1.0127
   21Li      Li   21   0.071   2.009   1.076 -0.1383 -0.4668 -0.2431
   22Li      Li   22   1.759   2.371   1.723  0.2476 -0.1034 -1.0890
   23Li      Li   23   0.575   2.765   1.202 -0.8145  0.2750 -0.2918
   24Li      Li   24   1.212   1.986   1.619  0.2429  0.9432 -0.0593
   25Li      Li   25   1.216   1.242   1.292 -0.0070 -0.3690  0.0213
   26Li      Li   26   2.291   2.569   0.894 -0.2086  0.9523 -0.6682
   27Li      Li   27   0.260   2.527   1.986 -0.2659 -0.1244  0.9286
   28Li      Li   28   0.666   2.430   0.434  0.6757  0.9385 -0.6970
   29Li      Li   29   1.538   2.207   2.766 -0.0381  0.3964  0.1335
   30Li      Li   30   1.577   1.192   0.356 -0.5534 -0.8479 -0.2262
   31Li      Li   31   0.357   0.765   0.020 -0.1014  0.4277 -1.3624
   32Li      Li   32   2.695   2.581   3.065  0.3314  0.2035  0.4500
   33Li      Li   33   0.860   0.743   2.909  0.4597  0.2108  0.0857
   34Li      Li   34   1.254   0.596   1.929 -0.5926  0.0369  0.2627
   35Li      Li   35   2.285   0.867   1.598 -0.2348 -0.1589  0.1563
   36Li      Li   36   1.290   1.311   1.891  0.3228  0.5990 -0.1557
   37Li      Li   37   2.435   2.044   0.762  0.4886 -0.0162 -1.0402
   38Li      Li   38   2.715   0.403   1.620 -1.3680 -0.2374  0.2448
   39Li      Li   39   0.803   2.618   1.578 -0.9837  1.2460  0.3311
   40Li      Li   40   0.054   2.164   1.918  1.2287 -0.1871  0.1388
   41Li      Li   41   1.590   1.241   0.933  0.1191 -0.5162  1.0874
   42Li      Li   42   1.883   2.889   1.982 -0.4310  0.3744 -1.0738
   43Li      Li   43   0.116   2.859   0.517  0.0428  1.0012  0.1883
   44Li      Li   44   1.513   2.769   2.835 -0.4386 -0.2708  0.1904
   45Li      Li   45   2.348   1.222   2.173  0.9628 -0.1849 -1.2667
   46Li      Li   46   2.947   2.167   1.342  0.0987  0.3486 -0.2787
   47Li      Li   47   1.301   1.674   1.712  1.2527 -0.6154  1.6803
   48Li      Li   48   0.055   2.141   2.833  0.4892 -0.2658 -1.3164
   49Li      Li   49   0.404   1.808   2.111  0.1104 -0.3837 -0.1544
   50Li      Li   50   2.091   1.101   2.678 -0.3305 -0.6288 -0.8286
   51c3c      N   51   3.008   1.480   2.386 -0.6153 -0.2962 -0.2614
   51c3c     C1   52   3.112   1.511   2.480  0.2229  0.2824  0.0384
   51c3c     C2   53   2.921   1.598   2.384 -0.0705 -0.0334 -0.2865
   51c3c     C3   54   3.141   1.659   2.451  0.0974  0.5138 -0.8087
   51c3c     C4   55   3.006   1.715   2.422 -0.0844 -0.0424 -0.8034
   51c3c     C5   56   3.070   1.461   2.255 -0.5232  0.3667  0.4512
   51c3c     C6   57   2.934   1.359   2.426  0.9063  0.1397  0.1806
   51c3c     H1   58   3.204   1.454   2.471  0.7521  0.9414  1.1076
   51c3c     H2   59   3.076   1.506   2.582 -0.2561 -1.7102 -0.2163
   51c3c     H3   60   2.864   1.614   2.293 -0.6506 -1.1098 -0.1207
   51c3c     H4   61   2.836   1.590   2.452 -0.4451 -2.3503 -0.9692
   51c3c     H5   62   3.212   1.684   2.372  1.6788  1.6754  0.9487
   51c3c     H6   63   3.187   1.699   2.541 -1.7829  1.9274 -0.4473
   51c3c     H7   64   3.011   1.776   2.333 -1.5686 -0.4333 -1.1610
   51c3c     H8   65   2.959   1.776   2.499 -0.2276 -0.3579 -0.6370
   51c3c     H9   66   3.150   1.387   2.260 -1.4374 -0.6953 -0.1477
   51c3c    H10   67   2.998   1.439   2.177  1.2543 -1.4619 -0.7182
   51c3c    H11   68   3.121   1.545   2.210 -1.6889  0.1293 -1.3713
   51c3c    H12   69   2.854   1.346   2.353  0.7651  1.0964  0.1517
   51c3c    H13   70   2.995   1.272   2.404 -2.6319 -2.1673 -0.9673
   51c3c     C7   71   2.888   1.343   2.575 -0.3960 -0.0560 -0.1530
   51c3c    H14   72   2.827   1.427   2.609 -1.7655 -1.7388  1.6884
   51c3c    H15   73   2.964   1.332   2.651 -0.8384 -1.5071  0.0928
   51c3c     C8   74   2.797   1.220   2.586  0.6853  0.2611 -0.2795
   51c3c    H16   75   2.847   1.137   2.537 -2.5563 -1.8821 -0.1103
   51c3c    H17   76   2.694   1.236   2.553  0.3369 -0.4385  0.4551
   51c3c    H18   77   2.793   1.201   2.694  0.0910  1.2670 -0.1137
   52c3c      N   78   0.912   0.771   1.295  0.0155  0.2486  0.0600
   52c3c     C1   79   0.926   0.875   1.181  0.4603 -0.4524 -0.8273
   52c3c     C2   80   0.951   0.642   1.236 -0.2692 -0.6035 -0.3335
   52c3c     C3   81   1.043   0.820   1.101 -0.3109 -0.7043 -0.2666
   52c3c     C4   82   1.066   0.675   1.137 -0.1242  0.0424 -0.5689
   52c3c     C5   83   1.002   0.816   1.402  0.5598  0.8444  0.4022
   52c3c     C6   84   0.776   0.785   1.351  0.3668  0.7579 -0.2796
   52c3c     H1   85   0.961   0.975   1.206  1.8633 -1.3452  0.8571
   52c3c     H2   86   0.842   0.888   1.112  1.2265 -0.9532 -1.8711
   52c3c     H3   87   0.977   0.567   1.311  3.5644  1.5060  0.5911
   52c3c     H4   88   0.865   0.607   1.179 -2.3617  0.7183  1.9257
   52c3c     H5   89   1.129   0.884   1.124 -2.8912  1.8649  2.6783
   52c3c     H6   90   1.048   0.851   0.997 -0.6165 -2.6536 -0.8796
   52c3c     H7   91   1.166   0.663   1.179 -0.1883  0.3977 -0.3063
   52c3c     H8   92   1.067   0.611   1.049 -3.0751 -1.0769  0.1359
   52c3c     H9   93   0.965   0.914   1.429  0.9985  0.3925  2.7838
   52c3c    H10   94   1.000   0.749   1.488  1.1855 -0.4400 -0.5493
   52c3c    H11   95   1.105   0.818   1.365  0.7219 -2.3765  0.5427
   52c3c    H12   96   0.767   0.725   1.442 -0.0791 -0.6889 -1.2523
   52c3c    H13   97   0.737   0.885   1.367  0.0984  0.6531 -0.2645
   52c3c     C7   98   0.652   0.729   1.274  0.0534  0.3076  0.1698
   52c3c    H14   99   0.666   0.628   1.236 -1.8057 -0.4385  1.4078
   52c3c    H15  100   0.637   0.786   1.182  1.2665  0.8419  0.2885
   52c3c     C8  101   0.519   0.752   1.350  0.4099 -0.2130 -0.2328
   52c3c    H16  102   0.505   0.856   1.380 -1.7310 -0.0446 -1.6554
   52c3c    H17  103   0.512   0.694   1.442  1.9546 -1.5464 -0.9305
   52c3c    H18  104   0.434   0.728   1.286  1.0304 -1.2418 -0.6710
   53c3c      N  105   0.156   1.196   0.322  0.8727 -0.5367  0.2915
   53c3c     C1  106   0.181   1.090   0.426 -0.0944  0.5378 -0.0868
   53c3c     C2  107   0.209   1.316   0.381 -0.4980 -0.0328 -0.3096
   53c3c     C3  108   0.311   1.134   0.491 -0.5138 -0.0849 -0.8482
   53c3c     C4  109   0.343   1.276   0.449  0.2264  0.5251 -0.2726
   53c3c     C5  110   0.235   1.169   0.198 -0.1907 -0.2494 -0.0825
   53c3c     C6  111   0.021   1.199   0.282  0.0727 -0.6434 -0.4613
   53c3c     H1  112   0.163   0.991   0.385  0.6673 -0.4588  1.9112
   53c3c     H2  113   0.107   1.098   0.506  0.8277 -0.5204  0.9051
   53c3c     H3  114   0.229   1.394   0.308 -3.0713 -0.9442 -2.0793
   53c3c     H4  115   0.141   1.350   0.459 -0.9921 -0.6457 -0.4651
   53c3c     H5  116   0.370   1.057   0.442  2.3424  0.5140  1.5016
   53c3c     H6  117   0.321   1.118   0.599  1.7797  1.2062 -0.8241
   53c3c     H7  118   0.434   1.282   0.391 -0.8194  1.3322 -1.8603
   53c3c     H8  119   0.355   1.333   0.541 -1.2437 -1.6294  1.3146
   53c3c     H9  120   0.231   1.060   0.190  0.9591 -0.2272 -1.0153
   53c3c    H10  121   0.193   1.212   0.107  2.0076 -0.0829 -1.0393
   53c3c    H11  122   0.340   1.191   0.213 -0.9626  2.1067  2.3275
   53c3c    H12  123  -0.000   1.275   0.207  0.3669  1.2700  1.3351
   53c3c    H13  124  -0.003   1.102   0.239 -1.8424  0.1559 -1.2389
   53c3c     C7  125  -0.089   1.225   0.402  0.1814 -0.3810 -0.2241
   53c3c    H14  126  -0.085   1.318   0.459  1.1740 -0.7717  0.3666
   53c3c    H15  127  -0.084   1.142   0.473  3.0167 -1.9759 -2.1721
   53c3c     C8  128  -0.229   1.210   0.344 -0.3729  0.4003 -0.3772
   53c3c    H16  129  -0.248   1.292   0.275 -4.0903  0.3706  0.5419
   53c3c    H17  130  -0.294   1.242   0.426  0.5383 -1.0552  0.9548
   53c3c    H18  131  -0.240   1.108   0.310  2.6761 -0.3639  0.7683
   54c3c      N  132   0.799   0.132   0.977 -0.4905  0.7951 -0.5961
   54c3c     C1  133   0.842   0.266   1.015 -0.2205 -0.5521  0.7226
   54c3c     C2  134   0.801   0.054   1.103 -0.3602 -0.2231 -0.0063
   54c3c     C3  135   0.802   0.285   1.159 -0.3137 -0.7282  0.0045
   54c3c     C4  136   0.758   0.152   1.208 -0.1942  0.3755  1.0397
   54c3c     C5  137   0.665   0.132   0.926  0.0367  0.0176  0.8968
   54c3c     C6  138   0.879   0.074   0.860  0.2800 -0.3511  0.6796
   54c3c     H1  139   0.805   0.338   0.942  0.2656  0.9544  1.9416
   54c3c     H2  140   0.948   0.288   1.003 -0.5602  1.4077  1.1041
   54c3c     H3  141   0.738  -0.034   1.089 -1.9208  1.0900 -1.5534
   54c3c     H4  142   0.903   0.020   1.124 -0.1050 -0.4326 -1.4828
   54c3c     H5  143   0.720   0.354   1.181  0.1482 -0.4623  0.9278
   54c3c     H6  144   0.886   0.324   1.216 -0.4648 -1.8444  1.0048
   54c3c     H7  145   0.649   0.143   1.211 -0.3913  0.7905 -2.9052
   54c3c     H8  146   0.789   0.125   1.309  2.6835  3.1338  0.9579
   54c3c     H9  147   0.662   0.182   0.829 -0.9854  0.2282  1.0292
   54c3c    H10  148   0.634   0.031   0.897 -0.9859  0.0178  1.9888
   54c3c    H11  149   0.587   0.187   0.978  1.3852  1.5149  1.3607
   54c3c    H12  150   0.832  -0.016   0.821  1.6508 -0.4969 -0.6817
   54c3c    H13  151   0.870   0.139   0.772 -0.4340  0.4900  1.3654
   54c3c     C7  152   1.036   0.051   0.877  0.6948 -0.0594  0.3011
   54c3c    H14  153   1.056  -0.032   0.945 -1.6403 -1.1350 -0.3011
   54c3c    H15  154   1.092   0.140   0.908 -0.5943  0.3297  1.5527
   54c3c     C8  155   1.099   0.020   0.738 -0.2608 -0.2107  0.0886
   54c3c    H16  156   1.067   0.083   0.654  1.7744 -0.9684 -1.3141
   54c3c    H17  157   1.068  -0.079   0.704 -1.1773  0.4679 -1.0920
   54c3c    H18  158   1.208   0.022   0.738 -0.2409 -1.1602  0.1595
   55c3c      N  159   2.552   0.698   2.163 -0.5141 -0.5779 -0.2818
   55c3c     C1  160   2.647   0.583   2.156 -0.0565  0.3931 -0.6303
   55c3c     C2  161   2.534   0.728   2.018 -0.0688  0.3933 -0.9062
   55c3c     C3  162   2.617   0.515   2.023  0.4332  0.2299  0.1955
   55c3c     C4  163   2.507   0.592   1.953 -0.2222  0.0863  0.7023
   55c3c     C5  164   2.435   0.653   2.232  0.6310  0.1300 -0.1284
   55c3c     C6  165   2.587   0.816   2.240 -0.6848 -0.9468 -0.3485
   55c3c     H1  166   2.631   0.518   2.242 -0.6354  1.8487  0.3966
   55c3c     H2  167   2.750   0.618   2.154 -0.3620  1.3060 -0.8331
   55c3c     H3  168   2.451   0.799   2.012  0.5305  1.2142  0.3257
   55c3c     H4  169   2.626   0.770   1.977 -0.7422  1.2776 -1.5326
   55c3c     H5  170   2.606   0.407   2.031  2.7414 -0.1124 -1.0654
   55c3c     H6  171   2.707   0.524   1.963 -0.1243 -1.8539 -1.0269
   55c3c     H7  172   2.412   0.547   1.983  0.5329 -0.6373  2.0253
   55c3c     H8  173   2.517   0.596   1.844  1.8761  0.8327  0.8968
   55c3c     H9  174   2.359   0.731   2.237  2.5073  2.0490 -0.8645
   55c3c    H10  175   2.390   0.567   2.182 -4.7786  1.5204  1.9333
   55c3c    H11  176   2.457   0.627   2.336 -2.0657  0.4450  0.5729
   55c3c    H12  177   2.514   0.894   2.216  0.9396  0.6879 -0.1122
   55c3c    H13  178   2.586   0.798   2.347 -0.2224 -1.5493 -0.4454
   55c3c     C7  179   2.727   0.885   2.205  0.5488 -0.2905 -0.2528
   55c3c    H14  180   2.725   0.919   2.101  2.3347  1.4614  0.2715
   55c3c    H15  181   2.812   0.818   2.209  1.3535  0.6848 -0.9621
   55c3c     C8  182   2.752   1.007   2.302  0.0108  0.5055 -0.1410
   55c3c    H16  183   2.684   1.093   2.299 -1.4036 -0.3248  4.1779
   55c3c    H17  184   2.854   1.042   2.290  0.0837  0.3717  0.0817
   55c3c    H18  185   2.749   0.985   2.409 -1.4595  0.3729 -0.1983
   56c3c      N  186   1.992   1.535   0.550  0.1821  0.3081  0.2378
   56c3c     C1  187   1.978   1.671   0.585 -0.5549 -0.2464  0.5035
   56c3c     C2  188   2.135   1.505   0.576 -0.3602  0.5587 -0.0447
   56c3c     C3  189   2.050   1.683   0.721 -1.1952 -1.0090  0.4490
   56c3c     C4  190   2.177   1.592   0.704 -0.1503  0.3208  0.1175
   56c3c     C5  191   1.911   1.445   0.638  0.3994  0.4641  0.0016
   56c3c     C6  192   1.937   1.506   0.410  0.2852  0.4248 -0.5815
   56c3c     H1  193   1.877   1.710   0.576  0.4175  2.6831  1.5055
   56c3c     H2  194   2.039   1.738   0.524 -0.3355  0.8222  1.8533
   56c3c     H3  195   2.150   1.398   0.588  2.2543  0.8598 -0.4571
   56c3c     H4  196   2.201   1.537   0.496 -1.1762  0.2659 -0.8526
   56c3c     H5  197   1.984   1.657   0.803 -0.6583 -0.6567  0.9980
   56c3c     H6  198   2.078   1.785   0.746  0.9925 -0.9402 -1.9644
   56c3c     H7  199   2.193   1.528   0.790  0.0614 -0.8880 -0.8038
   56c3c     H8  200   2.271   1.644   0.689  0.9189 -0.7849  2.7939
   56c3c     H9  201   1.803   1.464   0.640 -0.0611 -1.9597 -0.2065
   56c3c    H10  202   1.919   1.339   0.612  2.2688  0.0090  2.2965
   56c3c    H11  203   1.951   1.432   0.738 -0.3594 -1.6743  0.0497
   56c3c    H12  204   1.931   1.399   0.392 -0.2571  0.0986  1.3654
   56c3c    H13  205   1.834   1.542   0.410  1.4699  4.1380  0.2991
   56c3c     C7  206   2.003   1.576   0.296 -0.5170 -0.3695  0.0992
   56c3c    H14  207   2.084   1.510   0.264  0.8447  0.7286  1.1890
   56c3c    H15  208   2.039   1.675   0.323  0.3165 -0.6865  0.1944
   56c3c     C8  209   1.913   1.566   0.172  0.2192 -0.1993  0.2241
   56c3c    H16  210   1.880   1.466   0.143 -1.9729  1.0440 -1.6479
   56c3c    H17  211   1.969   1.598   0.084  1.2854 -1.5376  0.3891
   56c3c    H18  212   1.826   1.631   0.178  0.3373  0.0553 -0.7880
   57c3c      N  213   1.216   1.134   2.359 -0.3644  0.0074 -0.2307
   57c3c     C1  214   1.245   1.226   2.466 -0.2825  0.4498  0.1436
   57c3c     C2  215   1.235   1.007   2.433 -0.0216  0.1620  0.1979
   57c3c     C3  216   1.196   1.175   2.603 -0.7284 -0.5947  0.0229
   57c3c     C4  217   1.191   1.030   2.583  0.6994  0.9088 -0.0451
   57c3c     C5  218   1.069   1.141   2.323 -0.5066  0.3563  0.2024
   57c3c     C6  219   1.305   1.135   2.238 -0.0676  0.5500 -1.1106
   57c3c     H1  220   1.196   1.322   2.443  0.2856  0.4194 -1.2432
   57c3c     H2  221   1.351   1.246   2.479 -0.1483 -0.3902  0.3182
   57c3c     H3  222   1.190   0.924   2.378  0.8530  0.5337 -1.1049
   57c3c     H4  223   1.339   0.975   2.438  0.0841  0.5644  0.5912
   57c3c     H5  224   1.096   1.205   2.635 -0.4844 -0.1004  0.3277
   57c3c     H6  225   1.264   1.197   2.685 -1.0215  2.0763 -0.4025
   57c3c     H7  226   1.090   1.002   2.611  0.5846  0.2270 -1.1061
   57c3c     H8  227   1.263   0.978   2.647  0.3253  1.9472  1.2330
   57c3c     H9  228   1.037   1.238   2.287 -0.4226  0.3198  0.0287
   57c3c    H10  229   1.045   1.074   2.240 -1.4982  0.0042  0.7780
   57c3c    H11  230   1.017   1.107   2.412  0.2784  0.9766  0.9061
   57c3c    H12  231   1.277   1.047   2.180 -0.7059 -0.1949  0.2907
   57c3c    H13  232   1.282   1.218   2.171  1.8434  2.1516  0.1786
   57c3c     C7  233   1.457   1.159   2.267 -0.1265  0.3153 -1.4225
   57c3c    H14  234   1.498   1.105   2.352  1.6567  0.0531 -2.4371
   57c3c    H15  235   1.484   1.262   2.292  0.8424  0.6362 -3.6464
   57c3c     C8  236   1.527   1.117   2.143  0.2057  0.2535  0.1898
   57c3c    H16  237   1.635   1.126   2.156  0.3527  0.4183 -1.1430
   57c3c    H17  238   1.488   1.164   2.053 -3.4993  1.2697  2.1985
   57c3c    H18  239   1.503   1.016   2.110  1.8084  0.5344 -1.9042
   58c3c      N  240   0.386   1.315   2.857 -0.0846  0.3674 -0.1714
   58c3c     C1  241   0.435   1.254   2.977 -0.5093  0.3433 -0.0955
   58c3c     C2  242   0.316   1.434   2.906  0.3216 -0.1066  0.2704
   58c3c     C3  243   0.494   1.373   3.059 -0.0104  0.3990  0.3541
   58c3c     C4  244   0.413   1.499   3.011  0.4223  0.6600 -0.2055
   58c3c     C5  245   0.492   1.352   2.763  0.0935  0.6080 -0.2299
   58c3c     C6  246   0.295   1.230   2.773  0.6656 -0.1871 -0.1751
   58c3c     H1  247   0.510   1.176   2.964 -1.7114 -0.7419 -0.6449
   58c3c     H2  248   0.372   1.187   3.036 -0.6646 -0.4988 -1.2057
   58c3c     H3  249   0.301   1.507   2.826 -0.6641 -2.2980 -1.5806
   58c3c     H4  250   0.224   1.396   2.950 -0.2173  0.1216 -0.6470
   58c3c     H5  251   0.598   1.389   3.034  1.4204 -1.7132  4.4644
   58c3c     H6  252   0.485   1.345   3.164  0.4621  0.0364  0.2953
   58c3c     H7  253   0.479   1.572   2.965  2.3588 -1.3636 -0.7835
   58c3c     H8  254   0.349   1.549   3.084 -0.7948 -1.9742  0.6027
   58c3c     H9  255   0.536   1.266   2.712  0.7020  1.1489 -0.6282
   58c3c    H10  256   0.456   1.418   2.684  1.1698  0.0787 -1.1832
   58c3c    H11  257   0.579   1.394   2.813 -0.3909  0.0453  1.0870
   58c3c    H12  258   0.264   1.283   2.682  0.0726  0.0347  0.1538
   58c3c    H13  259   0.352   1.144   2.737 -0.0165 -0.5968 -0.2925
   58c3c     C7  260   0.166   1.181   2.847 -0.0926  0.0959  0.2285
   58c3c    H14  261   0.093   1.262   2.852 -1.6608 -1.3045  0.4743
   58c3c    H15  262   0.186   1.147   2.948 -0.2945 -0.8745 -0.0520
   58c3c     C8  263   0.094   1.071   2.769  0.0440  0.3778  0.2819
   58c3c    H16  264  -0.002   1.046   2.813  0.4251  0.8793  1.4400
   58c3c    H17  265   0.152   0.980   2.759 -0.3279  0.1904 -0.1867
   58c3c    H18  266   0.082   1.110   2.668  0.5441  1.1698  0.5188
   59c3c      N  267   2.175   0.358   1.056 -0.5710 -0.2664  0.2671
   59c3c     C1  268   2.267   0.449   1.130 -0.0336  0.9558 -0.4957
   59c3c     C2  269   2.169   0.250   1.154  0.2563  0.3766  0.9269
   59c3c     C3  270   2.219   0.446   1.278  0.1134 -0.1432 -0.1163
   59c3c     C4  271   2.174   0.303   1.291  0.3323 -0.2885  0.1540
   59c3c     C5  272   2.046   0.424   1.041 -0.2705  0.0411  0.2100
   59c3c     C6  273   2.221   0.328   0.918 -0.4006  0.1801  0.6032
   59c3c     H1  274   2.270   0.554   1.100  0.4060  1.5365  1.4981
   59c3c     H2  275   2.371   0.416   1.121 -0.4833 -0.0782 -2.2390
   59c3c     H3  276   2.086   0.180   1.145 -0.1306  0.9046  0.3200
   59c3c     H4  277   2.253   0.182   1.142  0.5389  0.8036  0.4651
   59c3c     H5  278   2.148   0.528   1.292  2.0184  1.6109 -0.5462
   59c3c     H6  279   2.302   0.459   1.347  0.1427  1.4788 -0.4250
   59c3c     H7  280   2.074   0.304   1.336 -0.4850  0.9346 -1.6285
   59c3c     H8  281   2.249   0.245   1.344  1.0218 -1.5823 -2.1647
   59c3c     H9  282   2.033   0.509   0.974  1.9085  0.9243  0.8367
   59c3c    H10  283   1.972   0.348   1.019 -0.9154  0.7848 -0.1889
   59c3c    H11  284   2.011   0.466   1.136  0.4628  1.9767 -0.3554
   59c3c    H12  285   2.144   0.291   0.850  0.0245  0.8555 -0.2585
   59c3c    H13  286   2.252   0.423   0.874 -0.7265 -0.6991 -1.6007
   59c3c     C7  287   2.346   0.233   0.905 -0.8891 -0.2319  0.1858
   59c3c    H14  288   2.312   0.133   0.934 -3.5785  0.4393 -0.4883
   59c3c    H15  289   2.424   0.261   0.976 -0.1576  1.0300 -1.0966
   59c3c     C8  290   2.402   0.218   0.761  0.1458  0.3021  0.1146
   59c3c    H16  291   2.449   0.309   0.725  1.4559 -0.3417  0.1785
   59c3c    H17  292   2.328   0.183   0.689  0.5440 -2.7072  1.0976
   59c3c    H18  293   2.482   0.145   0.767  1.3120  1.5544 -0.0379
   60c3c      N  294   0.911   2.199   2.911 -0.0022  1.0046 -0.0271
   60c3c     C1  295   0.825   2.151   3.018  0.0915  0.1034  0.2151
   60c3c     C2  296   0.994   2.292   2.984  0.0366 -0.5064  0.1301
   60c3c     C3  297   0.902   2.134   3.154  0.3008 -0.2839 -0.3854
   60c3c     C4  298   1.018   2.223   3.122 -0.2383 -0.5843 -0.3469
   60c3c     C5  299   0.998   2.098   2.860  0.5758  0.0884  0.3021
   60c3c     C6  300   0.834   2.263   2.803 -0.0339 -0.1320  0.0581
   60c3c     H1  301   0.750   2.075   2.995  0.2345 -0.1426  0.5577
   60c3c     H2  302   0.765   2.235   3.054  0.9705  0.5164  0.7433
   60c3c     H3  303   1.073   2.333   2.921  0.1080 -2.0173 -0.7764
   60c3c     H4  304   0.945   2.383   3.017 -1.7928 -1.1780 -0.6824
   60c3c     H5  305   0.937   2.034   3.179 -4.4141 -1.2752  2.8387
   60c3c     H6  306   0.857   2.163   3.249 -0.1190 -1.0212 -0.3574
   60c3c     H7  307   1.115   2.174   3.130  0.0467  0.2153  1.5587
   60c3c     H8  308   1.023   2.310   3.187 -1.7739  0.8639 -2.1054
   60c3c     H9  309   0.954   2.030   2.788 -2.2852 -0.3923  2.4212
   60c3c    H10  310   1.075   2.141   2.796  1.6007 -2.1120 -0.0191
   60c3c    H11  311   1.048   2.039   2.938  3.2329  0.7939 -0.8081
   60c3c    H12  312   0.909   2.298   2.732  0.0542  2.9863  1.6231
   60c3c    H13  313   0.782   2.188   2.743 -1.0248  0.5976  0.0052
   60c3c     C7  314   0.736   2.369   2.834  0.3910  0.6596 -0.0875
   60c3c    H14  315   0.780   2.457   2.881 -0.0379 -0.7255  3.0649
   60c3c    H15  316   0.656   2.329   2.897  1.8488  0.3166  1.5746
   60c3c     C8  317   0.666   2.414   2.698 -0.2377  0.2467 -0.7365
   60c3c    H16  318   0.624   2.332   2.641 -1.2139 -1.7085  2.6193
   60c3c    H17  319   0.731   2.473   2.633 -1.4019  0.1290 -2.0161
   60c3c    H18  320   0.580   2.471   2.734  1.4127  1.3772  1.5666
   61c3c      N  321   2.036   1.596   1.447  0.0375 -0.5970 -0.1655
   61c3c     C1  322   1.892   1.596   1.412  0.6046  0.4265 -0.8541
   61c3c     C2  323   2.093   1.535   1.327 -0.5230  0.6389  0.4019
   61c3c     C3  324   1.890   1.646   1.271 -0.2314  0.9817  0.2944
   61c3c     C4  325   2.027   1.607   1.209 -0.5059 -0.2177  0.4098
   61c3c     C5  326   2.093   1.730   1.473  1.2794  0.1537  0.9205
   61c3c     C6  327   2.070   1.524   1.569  0.9623 -0.3941  1.0072
   61c3c     H1  328   1.824   1.644   1.482  1.5753 -0.4493  0.7097
   61c3c     H2  329   1.851   1.496   1.425  0.2587  0.6470 -0.2092
   61c3c     H3  330   2.200   1.551   1.311 -0.4934  0.5461  0.5033
   61c3c     H4  331   2.074   1.427   1.321 -0.7906  0.7617 -1.3588
   61c3c     H5  332   1.886   1.755   1.272 -0.5478  0.9968 -1.3452
   61c3c     H6  333   1.800   1.613   1.219  0.5498  1.0950 -1.1415
   61c3c     H7  334   2.081   1.696   1.176  1.6294 -1.5074  0.3404
   61c3c     H8  335   2.009   1.538   1.125  0.6383 -0.6706  0.5241
   61c3c     H9  336   2.095   1.762   1.578  0.2701 -0.5536  1.1602
   61c3c    H10  337   2.199   1.731   1.448  1.1722 -1.1828  0.3596
   61c3c    H11  338   2.035   1.804   1.419 -0.1264 -0.5895  1.3797
   61c3c    H12  339   2.178   1.532   1.582  1.2131 -2.2034  0.1898
   61c3c    H13  340   2.032   1.575   1.657 -0.1140  0.6524 -0.0491
   61c3c     C7  341   2.033   1.373   1.578 -0.3511  0.3450  0.1128
   61c3c    H14  342   2.096   1.313   1.513  2.8051 -0.0735  3.4201
   61c3c    H15  343   1.932   1.343   1.550 -0.0007 -0.6188 -0.1377
   61c3c     C8  344   2.042   1.329   1.722 -0.5159  0.5001  0.3550
   61c3c    H16  345   2.146   1.336   1.756 -0.8844  0.0904  1.6129
   61c3c    H17  346   2.031   1.222   1.736  1.4498  0.3029  0.5175
   61c3c    H18  347   1.971   1.378   1.789 -3.5075 -1.4403 -1.3224
   62c3c      N  348   1.173   2.678   0.261  0.0024  0.4295 -0.0634
   62c3c     C1  349   1.240   2.808   0.279  0.1918  0.3061  0.4986
   62c3c     C2  350   1.052   2.672   0.343  0.0605 -0.1032 -0.3587
   62c3c     C3  351   1.124   2.906   0.297 -0.6964  0.9111 -0.2506
   62c3c     C4  352   1.007   2.821   0.350 -0.7857 -0.3415  0.4942
   62c3c     C5  353   1.137   2.659   0.121 -0.0801  0.7660  0.6896
   62c3c     C6  354   1.254   2.565   0.291 -0.6512  0.8680  0.0627
   62c3c     H1  355   1.315   2.823   0.202  0.0358  1.7673  0.6140
   62c3c     H2  356   1.293   2.805   0.375  1.7427 -0.7527 -0.3721
   62c3c     H3  357   0.977   2.604   0.302 -0.8097  2.1553 -2.6401
   62c3c     H4  358   1.064   2.638   0.446  2.1550  1.0433 -0.1906
   62c3c     H5  359   1.091   2.939   0.199 -3.6816 -0.5818  0.1957
   62c3c     H6  360   1.151   2.989   0.363  0.2533  0.1759  0.2992
   62c3c     H7  361   0.920   2.843   0.289  0.4935 -0.3023 -1.3419
   62c3c     H8  362   0.975   2.847   0.451 -0.1323 -2.6411  1.3253
   62c3c     H9  363   1.226   2.669   0.059 -0.0666 -0.5905  0.4802
   62c3c    H10  364   1.091   2.562   0.103 -0.5055  1.4147 -2.0581
   62c3c    H11  365   1.062   2.734   0.097  1.1259  2.6318  2.5529
   62c3c    H12  366   1.197   2.473   0.287  1.6313 -0.5290 -1.8030
   62c3c    H13  367   1.332   2.556   0.215 -0.1049 -2.7787  0.9685
   62c3c     C7  368   1.341   2.570   0.426 -0.0479  0.0869 -0.0034
   62c3c    H14  369   1.276   2.607   0.506 -0.1397 -0.9591  0.4276
   62c3c    H15  370   1.433   2.626   0.419  1.0986 -1.7580 -0.0820
   62c3c     C8  371   1.394   2.427   0.464 -0.2357 -0.0781 -0.2281
   62c3c    H16  372   1.322   2.346   0.470 -1.1520  0.7454  0.0945
   62c3c    H17  373   1.457   2.428   0.553 -0.6872  1.3647  0.0917
   62c3c    H18  374   1.466   2.408   0.385 -0.5766 -0.1368 -0.5275
   63c3c      N  375   0.275   2.245   0.628  0.6912  0.2512 -0.0059
   63c3c     C1  376   0.166   2.171   0.689  0.2056  0.6171  0.0309
   63c3c     C2  377   0.392   2.151   0.649  0.1361  1.6896 -1.0966
   63c3c     C3  378   0.182   2.028   0.640 -0.0885  0.0478  0.4238
   63c3c     C4  379   0.336   2.007   0.633 -0.0975 -0.2270  0.7993
   63c3c     C5  380   0.258   2.269   0.486  0.8566  0.0127 -0.0236
   63c3c     C6  381   0.297   2.386   0.681  1.1543 -0.3692 -0.2437
   63c3c     H1  382   0.066   2.209   0.666  1.2854  2.1775 -2.3091
   63c3c     H2  383   0.188   2.174   0.796  0.1554 -0.4053  0.0774
   63c3c     H3  384   0.469   2.169   0.574  1.1712  1.7850 -0.0322
   63c3c     H4  385   0.443   2.160   0.745 -3.0794 -1.3975  1.0501
   63c3c     H5  386   0.136   2.013   0.543  0.6004 -0.4886  0.1760
   63c3c     H6  387   0.128   1.965   0.711  0.2743  1.1994  1.7553
   63c3c     H7  388   0.364   1.966   0.536 -0.2122  1.8536 -0.1353
   63c3c     H8  389   0.376   1.940   0.710 -0.1924  0.9639  1.8981
   63c3c     H9  390   0.175   2.339   0.478  1.6532  0.8706 -0.9795
   63c3c    H10  391   0.336   2.333   0.445  0.4926 -0.2754 -1.1987
   63c3c    H11  392   0.248   2.184   0.418  0.6088  0.0341 -0.0111
   63c3c    H12  393   0.377   2.438   0.629 -0.0201  0.3576 -1.3452
   63c3c    H13  394   0.210   2.446   0.656  1.6912  1.4501  2.0421
   63c3c     C7  395   0.321   2.396   0.835  0.0613  0.0588  0.0559
   63c3c    H14  396   0.398   2.326   0.868  1.1522  1.1738 -0.0672
   63c3c    H15  397   0.231   2.361   0.885  0.5357  0.0426  0.9057
   63c3c     C8  398   0.362   2.529   0.879 -0.7261  0.3224 -0.7441
   63c3c    H16  399   0.461   2.554   0.841 -1.0610  1.2948 -1.0123
   63c3c    H17  400   0.374   2.526   0.987 -1.5633 -2.8197 -0.6749
   63c3c    H18  401   0.285   2.604   0.858 -0.6874  0.8490  0.9828
   64c3c      N  402   0.973   1.742   0.533  0.3511  0.1171  0.2893
   64c3c     C1  403   1.065   1.799   0.630 -0.4351  0.1253 -0.1853
   64c3c     C2  404   0.985   1.598   0.553  0.2901 -0.2883  0.2688
   64c3c     C3  405   1.041   1.714   0.758  0.1833 -0.9333  0.4854
   64c3c     C4  406   0.997   1.574   0.703  0.0205  0.2383  0.1942
   64c3c     C5  407   0.834   1.775   0.553 -0.3518 -0.3575 -0.7505
   64c3c     C6  408   1.005   1.782   0.393 -0.2291 -0.1171  0.4575
   64c3c     H1  409   1.042   1.902   0.656 -1.9911 -0.3723  0.4353
   64c3c     H2  410   1.168   1.776   0.600 -0.1070 -3.0977  2.9962
   64c3c     H3  411   0.907   1.532   0.515 -3.6941  4.1686  0.2121
   64c3c     H4  412   1.083   1.569   0.516  0.2616 -0.6165  0.4480
   64c3c     H5  413   0.955   1.742   0.819 -0.8269 -0.9517 -0.8948
   64c3c     H6  414   1.131   1.707   0.819  2.0976  1.4834 -1.9725
   64c3c     H7  415   0.897   1.545   0.735 -0.1725  1.7393  0.9991
   64c3c     H8  416   1.066   1.494   0.730  0.4549  0.5565  0.0378
   64c3c     H9  417   0.808   1.880   0.563  0.1334 -0.2840 -0.2285
   64c3c    H10  418   0.776   1.729   0.474 -0.2384 -1.0695 -0.4297
   64c3c    H11  419   0.793   1.729   0.643  1.0156  0.9382  0.5612
   64c3c    H12  420   0.937   1.725   0.330  1.1376 -0.6441 -0.5628
   64c3c    H13  421   0.961   1.882   0.388 -1.9990 -0.9090 -0.1871
   64c3c     C7  422   1.151   1.752   0.342 -0.1600  0.4310 -0.6518
   64c3c    H14  423   1.169   1.645   0.341 -0.1185  0.4412 -1.2650
   64c3c    H15  424   1.232   1.790   0.405 -2.9963  2.5329  1.8421
   64c3c     C8  425   1.174   1.796   0.209 -0.1236  0.2165 -0.0230
   64c3c    H16  426   1.153   1.902   0.207 -0.2522  0.1808 -0.5333
   64c3c    H17  427   1.110   1.745   0.137 -0.5320 -0.4435  0.7988
   64c3c    H18  428   1.278   1.783   0.180  0.0440 -1.7438  1.3429
   65c3c      N  429   0.134   2.876   3.081  0.0333  0.2932 -0.0740
   65c3c     C1  430   0.166   2.738   3.081  0.1196  0.7208  1.1921
   65c3c     C2  431   0.114   2.909   2.937  0.0650  0.6760  0.0067
   65c3c     C3  432   0.092   2.673   2.967 -0.4262 -0.4961  0.2217
   65c3c     C4  433   0.029   2.787   2.877 -1.3653  0.0760  1.1373
   65c3c     C5  434   0.012   2.906   3.154  0.8222  0.7337  0.0100
   65c3c     C6  435   0.240   2.963   3.148  0.0814 -0.4366  0.4751
   65c3c     H1  436   0.162   2.680   3.173 -2.0874  0.7913  1.1645
   65c3c     H2  437   0.269   2.724   3.048 -0.2776 -0.1958  0.2853
   65c3c     H3  438   0.066   3.005   2.918  0.8450  1.0621 -0.0022
   65c3c     H4  439   0.211   2.916   2.889  0.9826  3.5168  2.1357
   65c3c     H5  440   0.032   2.586   2.991  0.7136 -1.0472  1.1050
   65c3c     H6  441   0.172   2.639   2.900 -0.2943 -0.6272  0.4472
   65c3c     H7  442  -0.077   2.780   2.902 -1.5209 -1.8273  0.0222
   65c3c     H8  443   0.044   2.767   2.771 -0.1105  0.1453  1.2968
   65c3c     H9  444   0.027   2.897   3.262  1.1205  3.8657  0.2752
   65c3c    H10  445  -0.016   3.008   3.127  2.8315  0.7922 -1.9031
   65c3c    H11  446  -0.071   2.840   3.127  1.0407  0.2105  0.6065
   65c3c    H12  447   0.188   3.057   3.169  0.5939  0.6186 -2.7453
   65c3c    H13  448   0.257   2.923   3.249 -1.4685  2.1904  1.8218
   65c3c     C7  449   0.378   2.984   3.080  0.1391  0.5888 -0.2788
   65c3c    H14  450   0.373   3.021   2.978  2.3070 -0.5985 -0.8495
   65c3c    H15  451   0.431   2.889   3.067 -2.3301 -0.6515 -1.5404
   65c3c     C8  452   0.467   3.085   3.155 -0.6188 -0.5881 -0.1250
   65c3c    H16  453   0.552   3.127   3.101  0.6980 -0.5617  1.8680
   65c3c    H17  454   0.497   3.037   3.249  2.5277  1.4774  0.0099
   65c3c    H18  455   0.412   3.175   3.182 -0.4408 -1.2971  2.8478
   66c3c      N  456   1.565   1.633   2.828  0.0405 -0.0964 -0.2538
   66c3c     C1  457   1.470   1.742   2.840  0.6550  0.0406 -0.0625
   66c3c     C2  458   1.621   1.618   2.960  0.4063 -0.3495  0.0442
   66c3c     C3  459   1.396   1.713   2.977 -0.2418  0.3488  0.3599
   66c3c     C4  460   1.508   1.645   3.061  0.1633  0.3858  0.0839
   66c3c     C5  461   1.490   1.511   2.787 -0.1964 -0.1093 -0.1769
   66c3c     C6  462   1.665   1.653   2.725  0.3779 -0.0910  0.9530
   66c3c     H1  463   1.399   1.748   2.758  2.3857 -3.0469 -1.8667
   66c3c     H2  464   1.517   1.839   2.858 -1.2849  1.0391 -0.1546
   66c3c     H3  465   1.664   1.520   2.983 -2.1841 -1.2573  1.1763
   66c3c     H4  466   1.702   1.688   2.982  0.7077 -0.5872 -0.3136
   66c3c     H5  467   1.306   1.652   2.968 -0.1229  0.2048  0.1371
   66c3c     H6  468   1.364   1.811   3.011 -1.9705 -0.3671  0.8309
   66c3c     H7  469   1.474   1.546   3.092 -0.6210  1.4480  2.7648
   66c3c     H8  470   1.535   1.704   3.149 -1.1348  1.3320 -0.1264
   66c3c     H9  471   1.429   1.529   2.698 -2.4736 -0.7178  1.2048
   66c3c    H10  472   1.558   1.429   2.766  0.5827  0.2809  0.7679
   66c3c    H11  473   1.417   1.469   2.857 -0.4595 -0.9179 -0.9303
   66c3c    H12  474   1.734   1.569   2.721  0.6863  0.2323 -2.1185
   66c3c    H13  475   1.620   1.659   2.626  1.9485 -0.2205  0.2240
   66c3c     C7  476   1.758   1.776   2.732  0.2418  0.2095 -1.0205
   66c3c    H14  477   1.812   1.770   2.827 -2.2363  2.2083  0.5891
   66c3c    H15  478   1.700   1.868   2.725  0.3483  0.3945  0.3590
   66c3c     C8  479   1.861   1.780   2.624 -0.2017  0.2709 -0.8341
   66c3c    H16  480   1.949   1.727   2.659 -0.8052 -0.8944 -1.0770
   66c3c    H17  481   1.895   1.881   2.598 -3.0238  1.9148  1.5460
   66c3c    H18  482   1.847   1.709   2.543 -0.2001 -0.8660  0.1614
   67c3c      N  483   0.503   0.674   2.312  0.6896 -0.4820  0.5760
   67c3c     C1  484   0.536   0.536   2.300 -0.1720  0.0121 -0.5677
   67c3c     C2  485   0.462   0.714   2.176 -0.1144 -0.6472  0.4974
   67c3c     C3  486   0.441   0.472   2.195  0.3410  0.1088 -0.1385
   67c3c     C4  487   0.409   0.590   2.101 -0.0130 -0.9429  0.2571
   67c3c     C5  488   0.383   0.684   2.400 -0.0623  0.4586  0.1906
   67c3c     C6  489   0.605   0.765   2.373 -0.2998 -0.0142 -0.1609
   67c3c     H1  490   0.550   0.471   2.386  1.7343  0.5671 -0.4432
   67c3c     H2  491   0.633   0.531   2.250  0.4593  0.6219  0.5824
   67c3c     H3  492   0.386   0.791   2.160 -0.2119 -0.6894  0.7622
   67c3c     H4  493   0.543   0.760   2.120 -0.6495 -0.3486 -0.0377
   67c3c     H5  494   0.351   0.448   2.252 -0.0586 -0.5900 -1.0600
   67c3c     H6  495   0.490   0.386   2.150  0.0137 -0.0690 -0.1527
   67c3c     H7  496   0.302   0.604   2.082  0.0391 -1.6708 -0.5996
   67c3c     H8  497   0.472   0.588   2.012 -1.1933 -0.1433 -0.6063
   67c3c     H9  498   0.397   0.638   2.498 -0.3782  0.9391  0.4657
   67c3c    H10  499   0.360   0.789   2.420 -1.8468 -0.1715  1.5206
   67c3c    H11  500   0.294   0.645   2.350 -0.2962  0.7945  0.3397
   67c3c    H12  501   0.570   0.867   2.355 -0.2385 -0.2488 -1.6659
   67c3c    H13  502   0.617   0.751   2.481 -0.9058 -0.9537 -0.2103
   67c3c     C7  503   0.751   0.755   2.315  0.3681  0.3752  0.4414
   67c3c    H14  504   0.750   0.765   2.206  0.5135  0.9400  0.4938
   67c3c    H15  505   0.791   0.656   2.339  2.2679  0.7832 -0.9521
   67c3c     C8  506   0.852   0.865   2.373 -0.0801  0.4004 -1.0130
   67c3c    H16  507   0.881   0.838   2.475 -2.6337 -1.9504 -0.8474
   67c3c    H17  508   0.812   0.966   2.365 -1.1647  0.2204  1.6753
   67c3c    H18  509   0.941   0.859   2.311 -0.7258 -2.5023 -1.7605
   68c3c      N  510   2.455   2.779   1.610 -0.9278 -0.2203 -0.8763
   68c3c     C1  511   2.320   2.750   1.570 -0.7210 -0.1783 -0.3726
   68c3c     C2  512   2.436   2.842   1.743 -0.4045 -0.0041  0.5523
   68c3c     C3  513   2.257   2.696   1.697  0.3397 -0.5181 -0.3506
   68c3c     C4  514   2.322   2.772   1.812 -0.2297 -0.7248  0.2963
   68c3c     C5  515   2.535   2.651   1.622  0.3953  0.2015 -0.1481
   68c3c     C6  516   2.516   2.867   1.507 -0.6472 -0.3513 -0.0744
   68c3c     H1  517   2.303   2.701   1.474 -0.4174 -0.5579 -0.2350
   68c3c     H2  518   2.262   2.839   1.547  0.5182  0.6193 -0.4892
   68c3c     H3  519   2.526   2.833   1.804  1.7865  5.8928 -1.5316
   68c3c     H4  520   2.408   2.947   1.738  1.4384  0.5141  1.0125
   68c3c     H5  521   2.279   2.590   1.712  0.6812 -0.2765  0.8876
   68c3c     H6  522   2.149   2.709   1.697  0.2917 -0.7661  1.6477
   68c3c     H7  523   2.354   2.694   1.881 -1.5609  0.3357  2.1651
   68c3c     H8  524   2.252   2.834   1.868  0.6370 -1.2059  1.9304
   68c3c     H9  525   2.521   2.595   1.530 -0.1208  1.5551 -0.9247
   68c3c    H10  526   2.642   2.668   1.619  0.5434 -0.1579  2.2421
   68c3c    H11  527   2.509   2.589   1.708  0.4047  0.9513  0.4043
   68c3c    H12  528   2.621   2.891   1.524  0.1139 -1.9602 -2.2219
   68c3c    H13  529   2.526   2.814   1.412 -0.1046  1.9030 -1.2992
   68c3c     C7  530   2.445   2.999   1.476  0.4293 -0.4720 -0.0555
   68c3c    H14  531   2.436   3.069   1.558  0.5228 -1.3666  0.7199
   68c3c    H15  532   2.353   2.975   1.422  0.1794 -1.1730  0.6711
   68c3c     C8  533   2.534   3.069   1.375 -0.0648 -0.5235 -0.2414
   68c3c    H16  534   2.635   3.075   1.415 -0.5054  0.3414  0.7728
   68c3c    H17  535   2.508   3.174   1.364 -2.1301 -0.8537  1.1672
   68c3c    H18  536   2.533   3.022   1.276  0.7808 -2.6467  0.7263
   69c3c      N  537   0.688   2.667   2.131 -0.2390 -0.0964  0.7300
   69c3c     C1  538   0.590   2.661   2.237 -0.1806  0.0955  0.4860
   69c3c     C2  539   0.813   2.697   2.215  0.0108 -0.0403  0.7479
   69c3c     C3  540   0.657   2.584   2.352  0.3961 -0.4984 -0.4112
   69c3c     C4  541   0.795   2.648   2.352  0.6772  0.2074 -0.0153
   69c3c     C5  542   0.717   2.534   2.064  0.4604  0.4612  0.3178
   69c3c     C6  543   0.645   2.761   2.027 -0.1621 -0.0375 -0.4066
   69c3c     H1  544   0.499   2.615   2.197  0.0603  0.5525 -0.5928
   69c3c     H2  545   0.553   2.755   2.276  1.7789  0.6140  1.1367
   69c3c     H3  546   0.910   2.669   2.174 -0.9806  0.1373 -1.8441
   69c3c     H4  547   0.827   2.805   2.213  0.6231 -0.1315 -0.5042
   69c3c     H5  548   0.659   2.477   2.334  0.5758 -0.6033  0.1990
   69c3c     H6  549   0.600   2.612   2.442 -1.6957  0.2717 -1.9243
   69c3c     H7  550   0.881   2.586   2.376  0.4661  0.4975  1.5544
   69c3c     H8  551   0.798   2.732   2.423  1.7749  0.7300 -0.6703
   69c3c     H9  552   0.623   2.506   2.018  1.6368 -0.1138 -1.7821
   69c3c    H10  553   0.782   2.542   1.977 -0.5274 -3.3734 -0.8522
   69c3c    H11  554   0.748   2.458   2.136 -1.2524  2.0606  2.8557
   69c3c    H12  555   0.732   2.770   1.962  0.2710 -1.4317 -0.0404
   69c3c    H13  556   0.576   2.712   1.958  0.0236 -1.7034  0.5702
   69c3c     C7  557   0.599   2.903   2.061 -0.3059  0.3623 -0.2351
   69c3c    H14  558   0.650   2.942   2.149  4.3433  1.1162 -3.0943
   69c3c    H15  559   0.494   2.900   2.092 -0.3990  1.9769 -0.3770
   69c3c     C8  560   0.611   3.005   1.945 -0.3654  0.2591 -0.7287
   69c3c    H16  561   0.710   3.014   1.901  0.5484 -0.9709  1.0148
   69c3c    H17  562   0.579   3.102   1.982  0.6630  0.3659 -0.0972
   69c3c    H18  563   0.542   2.977   1.865  1.6548 -1.3744 -1.9474
   70c3c      N  564   0.766   3.039   2.778  0.4358  0.0668 -0.4385
   70c3c     C1  565   0.887   3.106   2.723 -0.0586 -1.0021 -0.0630
   70c3c     C2  566   0.764   2.917   2.699  0.1180 -0.5094  0.3995
   70c3c     C3  567   0.994   3.002   2.704 -0.3226  0.2287  0.3137
   70c3c     C4  568   0.909   2.873   2.693 -0.4926 -0.3507  0.6635
   70c3c     C5  569   0.786   3.009   2.916  0.4576  0.1207  0.2689
   70c3c     C6  570   0.642   3.128   2.763 -0.0279  0.0353 -1.0648
   70c3c     H1  571   0.928   3.187   2.784 -0.1509 -0.6129 -0.5098
   70c3c     H2  572   0.865   3.157   2.629 -1.4459  1.3083  1.4412
   70c3c     H3  573   0.700   2.848   2.753  0.5086 -0.3756  1.0417
   70c3c     H4  574   0.729   2.912   2.596  0.4858 -2.5151  0.3633
   70c3c     H5  575   1.069   2.992   2.782  0.1284  1.4373  0.0371
   70c3c     H6  576   1.061   3.020   2.620 -1.0246 -3.0194 -1.0079
   70c3c     H7  577   0.932   2.807   2.777  1.7744  0.2920  0.5786
   70c3c     H8  578   0.939   2.824   2.601  1.7651 -0.9311  1.6739
   70c3c     H9  579   0.813   3.100   2.968 -1.5887  0.0971  1.4416
   70c3c    H10  580   0.693   2.969   2.959  0.7140 -1.8353 -0.9281
   70c3c    H11  581   0.863   2.935   2.937  0.6280 -0.3834 -1.9351
   70c3c    H12  582   0.564   3.078   2.822 -0.0475 -0.5972 -1.6253
   70c3c    H13  583   0.656   3.223   2.815  0.2395 -0.4000 -0.3294
   70c3c     C7  584   0.582   3.147   2.622 -0.1997  0.2594  0.3303
   70c3c    H14  585   0.538   3.055   2.583 -0.5820  0.2775  0.7052
   70c3c    H15  586   0.654   3.197   2.558 -1.6323 -0.7856 -2.1446
   70c3c     C8  587   0.485   3.260   2.635 -0.5446 -0.4319 -0.8324
   70c3c    H16  588   0.428   3.276   2.543 -1.7220  0.3677  0.0275
   70c3c    H17  589   0.534   3.353   2.664  1.0477 -1.2529 -0.8594
   70c3c    H18  590   0.405   3.237   2.706  0.5082 -0.5618  0.3247
   71c3c      N  591   1.641   0.830   1.746 -0.2393 -0.2876 -0.5052
   71c3c     C1  592   1.607   0.976   1.716 -0.3070  0.2294  0.0143
   71c3c     C2  593   1.785   0.825   1.718 -0.0729  0.0341  0.3538
   71c3c     C3  594   1.724   1.058   1.769  0.1937  0.0033  0.0547
   71c3c     C4  595   1.838   0.954   1.782  0.1194  1.0660  0.2996
   71c3c     C5  596   1.611   0.795   1.890  0.9442  0.4598  0.0489
   71c3c     C6  597   1.556   0.730   1.668  0.6193  0.2127 -0.2863
   71c3c     H1  598   1.512   1.000   1.764 -2.0007  0.5678 -3.4056
   71c3c     H2  599   1.594   1.000   1.611  2.2035  0.0322 -0.3824
   71c3c     H3  600   1.832   0.734   1.756  0.2796 -0.1277 -0.4652
   71c3c     H4  601   1.793   0.830   1.610  0.3164  3.2161  0.4906
   71c3c     H5  602   1.721   1.112   1.863  0.3039 -0.8518  0.5499
   71c3c     H6  603   1.758   1.130   1.694 -1.8062  0.0865 -0.8080
   71c3c     H7  604   1.846   0.937   1.890  0.3840 -1.1628 -0.0508
   71c3c     H8  605   1.930   1.000   1.745  0.0974  0.7356 -0.1692
   71c3c     H9  606   1.503   0.804   1.894  1.0273  1.3559  0.5203
   71c3c    H10  607   1.640   0.693   1.915 -1.1018  0.4965  2.7316
   71c3c    H11  608   1.660   0.857   1.965 -1.5030 -0.6070  2.5806
   71c3c    H12  609   1.577   0.630   1.705  0.6134  0.1653 -0.4108
   71c3c    H13  610   1.450   0.749   1.685  1.0102  3.1712 -0.8035
   71c3c     C7  611   1.566   0.741   1.511  0.0548  0.1354 -0.5576
   71c3c    H14  612   1.668   0.714   1.483 -0.0059 -1.2316  0.4504
   71c3c    H15  613   1.535   0.843   1.489  0.6025  0.4673  0.1646
   71c3c     C8  614   1.470   0.645   1.426 -0.0300 -0.2477  0.1782
   71c3c    H16  615   1.495   0.647   1.320 -0.2884 -1.3286  0.0968
   71c3c    H17  616   1.368   0.662   1.461  0.0304 -0.2138  0.3411
   71c3c    H18  617   1.485   0.542   1.458 -0.9348 -0.4682 -0.1012
   72c3c      N  618   2.616   1.901   2.036  0.4751  0.6892  0.1727
   72c3c     C1  619   2.521   1.865   2.141 -0.1173  0.2464 -0.8188
   72c3c     C2  620   2.675   2.020   2.096  0.4840  0.1760 -0.2267
   72c3c     C3  621   2.587   1.886   2.280  0.0506 -0.7804 -0.6281
   72c3c     C4  622   2.704   1.971   2.234  0.2876 -0.3972 -0.3815
   72c3c     C5  623   2.711   1.791   2.008  0.5142 -1.2703 -0.0598
   72c3c     C6  624   2.540   1.932   1.914  0.3448 -0.0955 -0.3736
   72c3c     H1  625   2.483   1.763   2.138 -1.5500  0.7057  0.9963
   72c3c     H2  626   2.431   1.926   2.145 -1.1884 -1.1883 -2.1425
   72c3c     H3  627   2.763   2.046   2.037 -0.6597  2.2101 -1.0956
   72c3c     H4  628   2.605   2.104   2.099 -3.3265 -2.7819 -1.1318
   72c3c     H5  629   2.635   1.799   2.324  0.0987 -0.6550 -0.4268
   72c3c     H6  630   2.520   1.941   2.346 -0.3437 -1.1514 -0.7184
   72c3c     H7  631   2.797   1.916   2.238  1.0220  0.8961  0.7712
   72c3c     H8  632   2.711   2.051   2.308 -0.4661  0.6037 -1.3720
   72c3c     H9  633   2.654   1.699   1.996 -0.2858 -0.6176 -1.5090
   72c3c    H10  634   2.773   1.804   1.919 -0.3054 -0.3931 -0.5162
   72c3c    H11  635   2.778   1.761   2.088  1.9493 -0.2723 -0.8516
   72c3c    H12  636   2.608   1.950   1.831  0.7434  0.1251  0.0007
   72c3c    H13  637   2.486   1.841   1.890  0.4207 -0.4965  0.9503
   72c3c     C7  638   2.438   2.050   1.911 -0.6432 -0.4308 -0.2357
   72c3c    H14  639   2.505   2.135   1.909 -0.4280 -0.6117 -2.5051
   72c3c    H15  640   2.375   2.044   2.000 -1.4372  1.9709 -0.5986
   72c3c     C8  641   2.364   2.058   1.776  0.1396  0.4579 -1.2487
   72c3c    H16  642   2.271   2.002   1.778  0.9824 -0.9231  1.4562
   72c3c    H17  643   2.427   2.015   1.698  0.8114  0.1742 -0.5605
   72c3c    H18  644   2.337   2.159   1.744 -2.6160 -0.6472 -2.6072
   73c3c      N  645   1.866   2.189   0.417  0.6092  0.2069 -0.7770
   73c3c     C1  646   1.786   2.085   0.480 -0.7779  0.8960 -0.0908
   73c3c     C2  647   1.978   2.111   0.361 -0.3665 -0.0514 -0.1952
   73c3c     C3  648   1.781   1.974   0.371  0.6795  0.7429  0.3009
   73c3c     C4  649   1.923   1.978   0.307  0.1382  0.1083  0.4842
   73c3c     C5  650   1.804   2.251   0.301  0.4278 -0.3818  0.0146
   73c3c     C6  651   1.908   2.290   0.524  0.4635  0.0670 -0.1190
   73c3c     H1  652   1.686   2.112   0.514 -1.0950  1.9584 -1.7715
   73c3c     H2  653   1.829   2.034   0.566 -2.8309  0.2196  0.5743
   73c3c     H3  654   2.040   2.157   0.284 -1.7991  0.9412 -0.7844
   73c3c     H4  655   2.045   2.090   0.444  1.7196  1.4878 -1.4434
   73c3c     H5  656   1.707   1.990   0.293  1.0048  0.9820  0.0333
   73c3c     H6  657   1.769   1.874   0.411 -0.0481  1.0876  0.9668
   73c3c     H7  658   1.926   1.957   0.200 -2.1483  1.5861  0.0776
   73c3c     H8  659   1.976   1.901   0.362 -0.5070 -0.9557 -0.3695
   73c3c     H9  660   1.711   2.296   0.335 -0.1445 -1.5919  0.0683
   73c3c    H10  661   1.859   2.339   0.268 -0.0444  0.2676  0.9068
   73c3c    H11  662   1.798   2.191   0.210  1.0644  0.5365 -0.6439
   73c3c    H12  663   1.991   2.345   0.480  1.9276 -1.3176  0.8384
   73c3c    H13  664   1.829   2.365   0.525 -0.6043 -1.0406  0.2628
   73c3c     C7  665   1.938   2.240   0.668  0.2569 -0.2561 -0.1366
   73c3c    H14  666   1.998   2.150   0.662  2.1246  1.0768 -2.3012
   73c3c    H15  667   1.843   2.205   0.710  0.9612 -0.7742  1.0156
   73c3c     C8  668   1.990   2.363   0.755 -0.4617 -0.8004 -0.4958
   73c3c    H16  669   2.012   2.333   0.857 -2.3087 -2.6107 -0.6055
   73c3c    H17  670   1.930   2.454   0.748 -2.5697 -2.1460 -0.3386
   73c3c    H18  671   2.086   2.391   0.714  0.4666 -0.2684  1.9478
   74c3c      N  672   2.235   1.957   2.835 -0.5392 -0.4047  0.4777
   74c3c     C1  673   2.096   1.934   2.885  0.0159  0.3611  0.0785
   74c3c     C2  674   2.287   1.825   2.786 -0.0875 -0.0048 -0.6806
   74c3c     C3  675   2.106   1.794   2.948  0.3117 -0.2436  0.4461
   74c3c     C4  676   2.225   1.723   2.880  0.2880  0.1448 -0.1029
   74c3c     C5  677   2.229   2.052   2.717 -0.2647  0.0343 -0.7437
   74c3c     C6  678   2.325   2.029   2.928 -0.6413 -0.3257  0.1597
   74c3c     H1  679   2.021   1.930   2.806  1.0247 -0.8193 -0.8244
   74c3c     H2  680   2.069   2.017   2.951  1.8063 -0.8843  2.4731
   74c3c     H3  681   2.245   1.815   2.686 -1.3940  1.2988 -0.2859
   74c3c     H4  682   2.395   1.818   2.787 -0.1934 -1.8607 -0.3727
   74c3c     H5  683   2.012   1.739   2.940  0.0740  0.5138 -2.4829
   74c3c     H6  684   2.132   1.806   3.053 -0.8900 -1.4337  0.8891
   74c3c     H7  685   2.191   1.644   2.812 -0.8764  0.7379 -0.2335
   74c3c     H8  686   2.298   1.686   2.952  0.3871  0.6110  0.0374
   74c3c     H9  687   2.159   2.019   2.641 -0.2266  0.3984 -0.9361
   74c3c    H10  688   2.206   2.152   2.753 -1.2832 -1.3266  2.6399
   74c3c    H11  689   2.324   2.054   2.664  1.1738 -0.4163  1.7154
   74c3c    H12  690   2.419   2.051   2.876  0.4029 -0.8026  1.8101
   74c3c    H13  691   2.288   2.130   2.948 -0.2879  0.1791 -1.6277
   74c3c     C7  692   2.353   1.966   3.064  0.3109 -0.0513 -0.3386
   74c3c    H14  693   2.401   1.869   3.052 -0.0720 -0.3648  0.5885
   74c3c    H15  694   2.264   1.962   3.127 -1.4683  2.2749 -2.5920
   74c3c     C8  695   2.472   2.040   3.128  0.1785 -0.5517 -0.3151
   74c3c    H16  696   2.561   2.065   3.070 -0.2008  1.2849 -0.1596
   74c3c    H17  697   2.509   1.974   3.205  2.6199  1.0642 -0.0283
   74c3c    H18  698   2.443   2.130   3.183 -1.3135 -2.1939  1.6551
   75c3c      N  699   1.720   0.668   2.816 -0.0023 -0.5849 -0.1127
   75c3c     C1  700   1.822   0.708   2.714 -0.6192 -0.0839 -0.3614
   75c3c     C2  701   1.601   0.744   2.771 -0.1749  0.1638 -1.4755
   75c3c     C3  702   1.745   0.712   2.581  0.0514  0.7196 -0.1998
   75c3c     C4  703   1.601   0.744   2.621 -0.8671  0.1533  0.5181
   75c3c     C5  704   1.696   0.525   2.805 -0.2994  0.2659 -0.2880
   75c3c     C6  705   1.754   0.705   2.955  0.1302  0.3494  0.0333
   75c3c     H1  706   1.907   0.640   2.701 -0.0866  0.9093 -2.2227
   75c3c     H2  707   1.868   0.804   2.734 -0.8009  0.0631 -0.6496
   75c3c     H3  708   1.513   0.688   2.804 -0.1767 -0.2409 -2.1524
   75c3c     H4  709   1.591   0.849   2.799  2.3168 -0.1638  0.8117
   75c3c     H5  710   1.742   0.618   2.525 -2.1682 -0.1411  1.2649
   75c3c     H6  711   1.782   0.787   2.512  1.0738  1.8207  1.5189
   75c3c     H7  712   1.539   0.662   2.585  1.5507 -1.6871  0.4608
   75c3c     H8  713   1.572   0.845   2.589 -1.5651  0.2588  1.4682
   75c3c     H9  714   1.771   0.449   2.827 -1.3969 -0.9262 -0.5369
   75c3c    H10  715   1.608   0.494   2.861 -0.1385 -0.5427 -0.4732
   75c3c    H11  716   1.679   0.495   2.701  0.1663 -2.5456  0.4080
   75c3c    H12  717   1.672   0.662   3.013  1.0732 -0.9237  0.4235
   75c3c    H13  718   1.848   0.657   2.982  0.4605  1.9701  1.9266
   75c3c     C7  719   1.779   0.860   2.990  0.2363  0.1337 -0.1089
   75c3c    H14  720   1.707   0.930   2.948  2.4288  1.8384 -1.0917
   75c3c    H15  721   1.871   0.905   2.954 -0.1903 -1.1183 -2.9034
   75c3c     C8  722   1.762   0.871   3.141  0.5005 -0.2632 -0.0317
   75c3c    H16  723   1.781   0.967   3.188 -1.0797  0.4561 -0.8025
   75c3c    H17  724   1.824   0.797   3.191 -0.2742 -1.8593 -1.3575
   75c3c    H18  725   1.665   0.849   3.186  0.7629 -0.2551  0.5442
   76c3c      N  726   1.612   2.081   1.022 -0.5290 -0.7019 -0.3615
   76c3c     C1  727   1.544   2.137   1.147  0.0781  0.4087  0.4666
   76c3c     C2  728   1.708   2.187   0.994 -0.4942  0.0176  0.6623
   76c3c     C3  729   1.642   2.210   1.234  0.2360  0.7575  0.2237
   76c3c     C4  730   1.757   2.229   1.132 -0.3815  0.0276  0.0973
   76c3c     C5  731   1.681   1.959   1.059  0.3125 -0.0823  0.2321
   76c3c     C6  732   1.521   2.053   0.914 -0.5992  0.4027 -0.2631
   76c3c     H1  733   1.497   2.054   1.200  1.8314 -0.1776  1.1508
   76c3c     H2  734   1.471   2.215   1.123 -1.5822 -1.3604 -0.4106
   76c3c     H3  735   1.791   2.148   0.935 -0.8344  0.6372 -0.2394
   76c3c     H4  736   1.661   2.271   0.943  1.6859 -0.2247 -1.8763
   76c3c     H5  737   1.671   2.141   1.313  1.4075 -1.0351 -1.7099
   76c3c     H6  738   1.599   2.300   1.276 -0.6090  0.3641  0.2121
   76c3c     H7  739   1.849   2.178   1.160 -0.5258  0.0826  0.6681
   76c3c     H8  740   1.794   2.331   1.121 -0.0900 -0.3032 -2.1711
   76c3c     H9  741   1.743   1.913   0.982  2.5790  3.4646 -0.1518
   76c3c    H10  742   1.741   1.987   1.145  0.2188  0.9366 -0.0320
   76c3c    H11  743   1.607   1.883   1.085 -0.4176  0.7409  0.5645
   76c3c    H12  744   1.583   2.014   0.834 -1.3535 -1.7001  0.1473
   76c3c    H13  745   1.459   1.967   0.938  0.9841 -1.0203 -1.1855
   76c3c     C7  746   1.431   2.171   0.866 -0.5517 -0.7611 -0.2084
   76c3c    H14  747   1.493   2.250   0.824 -1.4944 -0.0269 -0.2040
   76c3c    H15  748   1.373   2.227   0.938 -1.3487 -2.5643  0.5904
   76c3c     C8  749   1.326   2.129   0.759 -0.1314  0.2486 -0.1912
   76c3c    H16  750   1.291   2.215   0.702 -1.9010  0.2427  0.8362
   76c3c    H17  751   1.240   2.088   0.813 -0.4280  0.0380 -0.8267
   76c3c    H18  752   1.365   2.056   0.688 -0.7447  0.1571 -0.4357
   77c3c      N  753   0.247   1.001   1.846  0.1524 -0.0821  0.1804
   77c3c     C1  754   0.271   1.023   1.702 -0.5091 -0.0410 -0.1688
   77c3c     C2  755   0.225   0.854   1.848  0.6380 -0.2221 -0.2800
   77c3c     C3  756   0.342   0.896   1.646  0.8447  0.5597  0.2898
   77c3c     C4  757   0.318   0.789   1.753  0.3189 -0.7654  0.2625
   77c3c     C5  758   0.375   1.023   1.911  0.3301 -0.3850 -0.2088
   77c3c     C6  759   0.138   1.078   1.897  0.0799 -0.3667 -0.0981
   77c3c     H1  760   0.330   1.112   1.682 -0.5658 -0.3345 -1.7273
   77c3c     H2  761   0.176   1.025   1.649 -0.7510 -1.9765  0.1532
   77c3c     H3  762   0.227   0.806   1.946 -3.3551  1.6098  0.8172
   77c3c     H4  763   0.128   0.828   1.805 -0.6413  0.2243  2.2215
   77c3c     H5  764   0.447   0.916   1.627  0.9475 -0.3295 -0.1300
   77c3c     H6  765   0.302   0.874   1.547  1.5454 -1.8342  0.5053
   77c3c     H7  766   0.410   0.761   1.804  0.4550 -0.6336  0.0876
   77c3c     H8  767   0.290   0.693   1.709  1.4423 -1.5171  1.1415
   77c3c     H9  768   0.388   1.132   1.907  3.0472 -0.6864  0.0110
   77c3c    H10  769   0.390   1.004   2.017 -0.2032  0.9616  0.1274
   77c3c    H11  770   0.463   0.976   1.869  2.1661  1.5276  1.3902
   77c3c    H12  771   0.143   1.066   2.005 -2.1246  0.4143  0.1318
   77c3c    H13  772   0.160   1.179   1.861  0.4661 -0.9431 -1.5103
   77c3c     C7  773  -0.008   1.032   1.871 -0.1100 -0.3392 -0.7395
   77c3c    H14  774  -0.015   0.939   1.928  0.2425  1.1285  1.7760
   77c3c    H15  775  -0.030   1.000   1.770 -1.1716 -0.4787 -0.4645
   77c3c     C8  776  -0.112   1.132   1.917 -0.1935 -0.6281 -0.0772
   77c3c    H16  777  -0.216   1.102   1.905 -0.2990 -1.5594  2.6495
   77c3c    H17  778  -0.097   1.231   1.873 -1.5893 -1.0700 -1.5940
   77c3c    H18  779  -0.111   1.148   2.025  1.0866 -0.9950 -0.0315
   78c3c      N  780   0.642   1.403   1.391 -0.1937  0.1003 -0.2298
   78c3c     C1  781   0.749   1.376   1.300  0.0556  0.2522  0.5466
   78c3c     C2  782   0.551   1.290   1.368  0.0070  0.0390  0.2845
   78c3c     C3  783   0.780   1.220   1.313  0.1200  0.5616  0.1714
   78c3c     C4  784   0.646   1.174   1.361  0.6107  0.2779 -0.0747
   78c3c     C5  785   0.688   1.406   1.531 -0.5405  0.1629 -0.1407
   78c3c     C6  786   0.577   1.534   1.366  0.3368 -0.3526 -0.0213
   78c3c     H1  787   0.829   1.448   1.319  0.3768 -0.1094  0.5680
   78c3c     H2  788   0.706   1.379   1.200 -1.9094  0.6650  1.3874
   78c3c     H3  789   0.473   1.285   1.444  0.3121  3.2990  0.8880
   78c3c     H4  790   0.501   1.305   1.273 -1.9327  0.1063  1.2926
   78c3c     H5  791   0.862   1.193   1.379 -1.0307 -2.7774  0.3218
   78c3c     H6  792   0.785   1.191   1.208  0.1721  1.1472  0.0088
   78c3c     H7  793   0.650   1.122   1.456  3.5619  2.0153  0.8366
   78c3c     H8  794   0.608   1.101   1.290  1.2302 -2.9405  2.7941
   78c3c     H9  795   0.755   1.490   1.549  1.4561 -0.7431 -3.0066
   78c3c    H10  796   0.617   1.434   1.609 -1.5348 -2.7363  0.0370
   78c3c    H11  797   0.734   1.313   1.564 -1.3508  0.3153  1.4607
   78c3c    H12  798   0.654   1.609   1.378  0.7361 -1.0197  1.7575
   78c3c    H13  799   0.546   1.552   1.263 -0.2659  0.2629  0.2656
   78c3c     C7  800   0.450   1.574   1.451 -0.6164  0.0443 -0.1036
   78c3c    H14  801   0.494   1.585   1.550  0.9335 -2.9482 -0.4070
   78c3c    H15  802   0.384   1.487   1.449  0.8941 -1.1102 -0.4097
   78c3c     C8  803   0.388   1.707   1.412 -0.5826 -0.2088 -0.5279
   78c3c    H16  804   0.303   1.729   1.477  1.7499  2.1711  1.8706
   78c3c    H17  805   0.378   1.715   1.304  2.5114 -1.4256 -0.9444
   78c3c    H18  806   0.473   1.773   1.428  0.0012 -0.8467 -0.9791
   79c3c      N  807   1.000   1.270   0.091  0.1322 -0.3482  0.2064
   79c3c     C1  808   0.863   1.233   0.071 -0.3731  0.2060  0.3676
   79c3c     C2  809   1.006   1.360   0.204 -0.1701 -0.2295  0.3167
   79c3c     C3  810   0.811   1.226   0.219 -0.9345 -0.5642 -0.0542
   79c3c     C4  811   0.913   1.304   0.307 -0.4749 -0.1210  0.1437
   79c3c     C5  812   1.075   1.145   0.120  0.0790  0.5400 -0.1481
   79c3c     C6  813   1.057   1.331  -0.032  0.6236  0.0555  0.2713
   79c3c     H1  814   0.851   1.144   0.009 -1.8153  1.9208 -1.9136
   79c3c     H2  815   0.798   1.308   0.025  1.6653  0.3352 -2.4022
   79c3c     H3  816   1.102   1.384   0.250 -0.9680  0.7613  1.4840
   79c3c     H4  817   0.965   1.456   0.174 -3.2837 -2.3468 -2.4883
   79c3c     H5  818   0.817   1.123   0.254  0.1632 -0.0872  1.1967
   79c3c     H6  819   0.708   1.257   0.236 -0.6249  0.2751  0.3097
   79c3c     H7  820   0.967   1.237   0.373  2.0405  2.1860  0.5391
   79c3c     H8  821   0.866   1.374   0.376  1.7565  3.7486 -2.0571
   79c3c     H9  822   1.098   1.074   0.040  0.5616 -1.0796  1.3914
   79c3c    H10  823   1.173   1.173   0.159 -0.0166 -0.0943  0.5774
   79c3c    H11  824   1.024   1.075   0.187 -2.0117  1.0383 -1.1703
   79c3c    H12  825   1.166   1.340  -0.027  0.4780  1.4504  1.3606
   79c3c    H13  826   1.045   1.259  -0.112  0.5149  0.1473  0.2055
   79c3c     C7  827   0.995   1.462  -0.095 -0.4595 -0.4555 -0.1942
   79c3c    H14  828   1.016   1.552  -0.037 -1.0635 -0.7012  0.3967
   79c3c    H15  829   0.888   1.452  -0.110 -0.6653 -0.9311  1.5575
   79c3c     C8  830   1.047   1.486  -0.236  0.2009  0.5987 -0.2570
   79c3c    H16  831   1.153   1.510  -0.240  0.1136  0.8440 -1.4994
   79c3c    H17  832   1.003   1.580  -0.272  2.2202  0.7639 -2.4570
   79c3c    H18  833   1.031   1.401  -0.303 -1.7281  1.8485 -1.4415
   80c3c      N  834   0.311   0.301   1.445  0.2410  0.3642 -0.3957
   80c3c     C1  835   0.283   0.435   1.381  0.3941 -0.3080 -0.0333
   80c3c     C2  836   0.179   0.237   1.434 -0.0540  0.8260 -0.3468
   80c3c     C3  837   0.181   0.401   1.272 -0.4807 -0.4126 -0.6008
   80c3c     C4  838   0.112   0.265   1.294 -0.0417  0.3436  0.3752
   80c3c     C5  839   0.408   0.222   1.369  0.0370  0.4537  0.3410
   80c3c     C6  840   0.363   0.319   1.585 -0.0781 -0.1165 -0.2449
   80c3c     H1  841   0.374   0.488   1.353  0.4950  1.2961  3.1294
   80c3c     H2  842   0.225   0.504   1.442  1.2490  0.9735 -0.6290
   80c3c     H3  843   0.202   0.131   1.447  1.8471  0.9124 -2.5473
   80c3c     H4  844   0.098   0.248   1.506 -0.6474 -0.4778 -0.7959
   80c3c     H5  845   0.233   0.389   1.177  1.0005 -0.1431  0.1688
   80c3c     H6  846   0.103   0.476   1.256  1.2414  0.5206 -5.3624
   80c3c     H7  847   0.135   0.197   1.212  1.5799  0.6210  0.5964
   80c3c     H8  848   0.003   0.276   1.302 -0.0444  0.0951  0.7132
   80c3c     H9  849   0.501   0.277   1.385 -0.1566  0.5696  1.0437
   80c3c    H10  850   0.425   0.121   1.405 -2.1130 -0.4623 -1.1089
   80c3c    H11  851   0.389   0.215   1.262 -1.4865 -0.7787  0.6806
   80c3c    H12  852   0.401   0.229   1.633  1.5852  0.3639 -0.6208
   80c3c    H13  853   0.436   0.400   1.579 -0.5646  0.2446 -1.3916
   80c3c     C7  854   0.249   0.354   1.677 -0.4563 -0.5453 -0.4161
   80c3c    H14  855   0.173   0.277   1.683 -1.6949  0.4631 -2.3593
   80c3c    H15  856   0.215   0.452   1.643 -0.6563 -0.8881 -1.2206
   80c3c     C8  857   0.294   0.386   1.818 -1.0383 -0.4813 -0.3248
   80c3c    H16  858   0.347   0.308   1.872 -0.2478  1.1516  1.3084
   80c3c    H17  859   0.207   0.404   1.882  0.9341  0.2552  2.2528
   80c3c    H18  860   0.357   0.474   1.828  2.6635 -2.9727 -0.7178
   81c3c      N  861   1.399   2.823   1.363 -0.1446 -0.8541 -0.1503
   81c3c     C1  862   1.382   2.726   1.470  0.9707  0.0001  0.1233
   81c3c     C2  863   1.543   2.843   1.354 -0.3366  0.4843 -0.4610
   81c3c     C3  864   1.490   2.622   1.451  0.3480  0.2413  0.2536
   81c3c     C4  865   1.606   2.711   1.398 -0.4819  0.0303 -0.7697
   81c3c     C5  866   1.350   2.769   1.240  0.2609 -0.1689  0.2787
   81c3c     C6  867   1.333   2.951   1.373 -0.2022  0.3130  0.4310
   81c3c     H1  868   1.278   2.694   1.470  1.1150 -0.5451  2.6530
   81c3c     H2  869   1.400   2.777   1.564  0.8882  2.0495 -0.9377
   81c3c     H3  870   1.566   2.872   1.251 -1.0017  0.7426 -0.5406
   81c3c     H4  871   1.581   2.913   1.427  1.1869 -2.0151  1.2107
   81c3c     H5  872   1.480   2.541   1.378  2.3034 -0.6576  0.9363
   81c3c     H6  873   1.518   2.571   1.543 -0.0559 -0.7176 -0.1519
   81c3c     H7  874   1.656   2.659   1.316  2.7213  1.1904  0.3538
   81c3c     H8  875   1.687   2.706   1.471 -0.5695  0.0626 -0.6701
   81c3c     H9  876   1.247   2.734   1.249  0.9307 -1.7811  2.0002
   81c3c    H10  877   1.348   2.838   1.156 -0.0274  0.8822  1.1311
   81c3c    H11  878   1.401   2.681   1.202  0.1221  0.4373 -1.3550
   81c3c    H12  879   1.344   3.005   1.279  0.1842 -2.9798 -1.4955
   81c3c    H13  880   1.228   2.925   1.381  0.1884 -0.8670  2.1005
   81c3c     C7  881   1.354   3.033   1.499 -0.6002 -0.3408  0.1736
   81c3c    H14  882   1.461   3.052   1.503 -0.7439  0.3055  1.2912
   81c3c    H15  883   1.326   2.986   1.593 -0.0500  0.8407  0.9497
   81c3c     C8  884   1.274   3.165   1.507  0.2058  0.0706  0.3037
   81c3c    H16  885   1.243   3.192   1.608 -0.4664  4.3882 -0.9319
   81c3c    H17  886   1.184   3.151   1.447  0.2207 -1.8864  0.7159
   81c3c    H18  887   1.333   3.247   1.466  0.7529 -0.5012 -0.0624
   82c3c      N  888   2.954   0.297   2.584 -0.1660 -0.1730 -0.3379
   82c3c     C1  889   3.062   0.288   2.682 -0.3446 -0.7999 -0.3534
   82c3c     C2  890   2.997   0.204   2.480  0.0693  0.2696  0.3200
   82c3c     C3  891   3.110   0.139   2.680  0.0725  0.5370  0.2761
   82c3c     C4  892   3.051   0.074   2.549  0.0578 -0.5488 -0.5418
   82c3c     C5  893   2.826   0.246   2.647 -0.0428 -0.3814 -0.1318
   82c3c     C6  894   2.937   0.441   2.543 -0.3168  0.5889 -0.1303
   82c3c     H1  895   3.029   0.328   2.778 -0.2388  2.2471 -1.5519
   82c3c     H2  896   3.152   0.344   2.656 -1.4920  0.8808 -0.7677
   82c3c     H3  897   2.921   0.181   2.406 -0.4413 -2.6851  1.6596
   82c3c     H4  898   3.079   0.248   2.424 -0.6295  0.9759 -0.1492
   82c3c     H5  899   3.081   0.093   2.775  1.0345  1.6656  1.1456
   82c3c     H6  900   3.219   0.135   2.674  0.0626  1.2065 -0.3502
   82c3c     H7  901   2.980  -0.002   2.580  3.7306 -3.9680 -0.0902
   82c3c     H8  902   3.129   0.025   2.490  1.1913  1.3045 -0.6221
   82c3c     H9  903   2.779   0.316   2.717  0.4413 -0.9439  0.7635
   82c3c    H10  904   2.755   0.206   2.574  2.3744  0.0171 -2.7876
   82c3c    H11  905   2.853   0.166   2.716 -2.3037 -1.0085  0.0634
   82c3c    H12  906   2.846   0.455   2.484 -1.2739  0.7221  1.3508
   82c3c    H13  907   2.910   0.504   2.628  1.6433 -0.0012  0.9605
   82c3c     C7  908   3.056   0.508   2.479  1.2110  0.2781 -0.3503
   82c3c    H14  909   3.098   0.451   2.396 -1.1850 -0.5130 -1.0490
   82c3c    H15  910   3.136   0.511   2.554  0.3638  0.2782  0.5693
   82c3c     C8  911   3.022   0.644   2.434 -0.2662 -0.2114  0.4369
   82c3c    H16  912   3.021   0.709   2.521 -2.3344  0.1752  0.1445
   82c3c    H17  913   2.936   0.643   2.367 -0.5455 -3.5703  0.7438
   82c3c    H18  914   3.113   0.686   2.391 -0.0886 -0.2172  0.8043
   83c3c      N  915   2.280   2.747   2.656 -0.2784  0.2683 -0.3013
   83c3c     C1  916   2.164   2.667   2.606 -0.1504  0.1406 -0.0452
   83c3c     C2  917   2.232   2.799   2.788  0.4573 -1.1033  0.5105
   83c3c     C3  918   2.084   2.626   2.730 -0.3845 -0.8068  0.3125
   83c3c     C4  919   2.150   2.690   2.849 -0.0728  0.2352 -0.7316
   83c3c     C5  920   2.393   2.654   2.665  0.1929 -0.1285  0.1574
   83c3c     C6  921   2.324   2.852   2.560  0.3419  0.5549 -0.4475
   83c3c     H1  922   2.186   2.574   2.555  0.3954 -0.7113  1.7184
   83c3c     H2  923   2.099   2.718   2.535 -0.0530 -0.2722 -0.4312
   83c3c     H3  924   2.309   2.828   2.860  2.1373 -2.2926 -0.7826
   83c3c     H4  925   2.167   2.886   2.778  1.4337 -0.3522  0.5895
   83c3c     H5  926   2.086   2.517   2.739 -3.0874 -0.5854  4.9524
   83c3c     H6  927   1.985   2.667   2.710 -0.1341 -0.8314 -1.0850
   83c3c     H7  928   2.203   2.612   2.903  0.2690  0.8212 -0.2066
   83c3c     H8  929   2.079   2.735   2.918  3.9030  1.3474  2.7971
   83c3c     H9  930   2.412   2.608   2.568 -1.3906 -0.3625 -0.0546
   83c3c    H10  931   2.489   2.700   2.690 -1.8836  3.7274  1.4322
   83c3c    H11  932   2.380   2.581   2.745  1.7985  0.6557  1.1753
   83c3c    H12  933   2.429   2.878   2.576  0.0542  1.0041  0.7931
   83c3c    H13  934   2.321   2.803   2.463 -0.7423  1.4619 -0.8792
   83c3c     C7  935   2.235   2.977   2.558  0.5770 -0.1411 -0.4643
   83c3c    H14  936   2.242   3.038   2.648 -2.5416 -1.5979  0.8181
   83c3c    H15  937   2.133   2.943   2.544  0.8340 -1.1403  0.0471
   83c3c     C8  938   2.262   3.068   2.434 -0.1884  0.7061 -0.5341
   83c3c    H16  939   2.282   3.014   2.342  0.1242 -0.3299  0.1290
   83c3c    H17  940   2.326   3.150   2.467 -0.6826  1.2609 -0.9439
   83c3c    H18  941   2.177   3.132   2.412 -1.1109 -0.0975  0.6438
   84c3c      N  942   1.299   2.423   2.246  0.3314 -0.2050 -0.0128
   84c3c     C1  943   1.423   2.341   2.259  0.0089 -0.2648  0.5608
   84c3c     C2  944   1.248   2.424   2.389  0.2046  0.4543 -0.6249
   84c3c     C3  945   1.489   2.363   2.388 -0.1674 -0.6034 -0.0512
   84c3c     C4  946   1.376   2.410   2.480 -0.3043  0.2390 -0.1892
   84c3c     C5  947   1.333   2.563   2.215 -0.0590  0.8072 -0.5107
   84c3c     C6  948   1.199   2.380   2.151 -0.1170 -0.4758  0.2075
   84c3c     H1  949   1.499   2.357   2.182 -0.2037 -1.0080  0.1916
   84c3c     H2  950   1.401   2.235   2.247  0.3397 -0.0687 -2.1548
   84c3c     H3  951   1.184   2.508   2.416  0.7468  0.1278  1.8280
   84c3c     H4  952   1.182   2.339   2.401  1.6920 -0.7921 -1.0678
   84c3c     H5  953   1.557   2.448   2.392 -2.7197  1.4795  0.0436
   84c3c     H6  954   1.533   2.273   2.432 -0.3387  0.4220  2.3213
   84c3c     H7  955   1.413   2.506   2.516  0.5713  0.5548 -1.8853
   84c3c     H8  956   1.363   2.348   2.568 -1.2907  0.9757  0.1899
   84c3c     H9  957   1.364   2.567   2.111  3.4337 -1.1495  0.3633
   84c3c    H10  958   1.239   2.618   2.214 -0.8315 -0.4720  0.0187
   84c3c    H11  959   1.409   2.608   2.279  1.5790 -1.5332 -0.7697
   84c3c    H12  960   1.121   2.456   2.157 -0.0858 -0.1922 -2.4097
   84c3c    H13  961   1.235   2.394   2.049  1.5044  0.7411  0.9430
   84c3c     C7  962   1.154   2.237   2.169 -0.0657 -0.2957  0.1715
   84c3c    H14  963   1.109   2.216   2.266 -2.3407  1.9161 -0.3408
   84c3c    H15  964   1.233   2.164   2.151 -0.3330 -0.8540  1.2357
   84c3c     C8  965   1.037   2.201   2.063  0.1030 -0.1218  0.5121
   84c3c    H16  966   0.950   2.265   2.077  0.8222  0.8277  0.6812
   84c3c    H17  967   1.002   2.097   2.055 -0.0523 -0.0452  0.1744
   84c3c    H18  968   1.065   2.236   1.964 -0.5775 -0.5822  0.1527
   85c3c      N  969   2.336   0.370   0.109 -0.2356 -0.1304  0.4258
   85c3c     C1  970   2.369   0.392  -0.031 -0.7527  0.1222 -0.2800
   85c3c     C2  971   2.357   0.227   0.132  0.0316  0.1466 -0.5698
   85c3c     C3  972   2.490   0.302  -0.056 -0.3710 -0.5374 -0.1382
   85c3c     C4  973   2.481   0.189   0.047 -0.1479  0.3069  0.2433
   85c3c     C5  974   2.432   0.438   0.198 -0.0819  0.2489 -0.1014
   85c3c     C6  975   2.195   0.418   0.145  0.3763 -0.7925  0.2120
   85c3c     H1  976   2.394   0.492  -0.065  0.3868 -0.5697 -1.5025
   85c3c     H2  977   2.291   0.355  -0.098 -2.4230 -0.3751  1.8488
   85c3c     H3  978   2.370   0.193   0.235  1.1304  0.8801 -0.4583
   85c3c     H4  979   2.272   0.176   0.087 -0.3738 -0.5331  0.8957
   85c3c     H5  980   2.576   0.369  -0.054 -1.2383  0.5701  0.1842
   85c3c     H6  981   2.491   0.257  -0.156 -1.2972 -0.7289 -0.0660
   85c3c     H7  982   2.575   0.175   0.099  0.1233  1.1341 -0.0113
   85c3c     H8  983   2.469   0.096  -0.009  0.9948  0.6124 -0.5213
   85c3c     H9  984   2.425   0.546   0.187  0.8633  0.4639  1.3161
   85c3c    H10  985   2.423   0.424   0.305  1.0795 -0.1495 -0.0463
   85c3c    H11  986   2.533   0.399   0.183 -0.4778 -1.0990  0.6427
   85c3c    H12  987   2.175   0.398   0.250 -1.1315 -1.3847 -0.1754
   85c3c    H13  988   2.205   0.526   0.133  0.2917 -0.8451 -0.3510
   85c3c     C7  989   2.069   0.375   0.052 -0.1459  0.0553  0.5129
   85c3c    H14  990   2.073   0.271   0.022  0.3516  0.0560  0.5743
   85c3c    H15  991   2.091   0.431  -0.039  1.1149  1.5392  1.6935
   85c3c     C8  992   1.939   0.419   0.118  0.0248  0.3897  0.4233
   85c3c    H16  993   1.940   0.522   0.153  0.2286  0.3191  0.6244
   85c3c    H17  994   1.908   0.354   0.200  0.7676 -0.6451 -0.1075
   85c3c    H18  995   1.860   0.416   0.042  0.5029  1.2818 -0.1147
   86c3c      N  996   2.872   1.969   0.285 -0.3726  0.4895  0.0074
   86c3c     C1  997   2.990   2.017   0.360 -0.0704 -0.2241  0.1784
   86c3c     C2  998   2.763   2.062   0.325  0.8242 -0.5174  0.2816
   86c3c     C3  999   2.977   2.171   0.359  0.6909  0.8368  0.1138
   86c3c     C4 1000   2.829   2.197   0.348  0.9857 -1.5392  0.8167
   86c3c     C5 1001   2.891   1.993   0.142  0.8647 -0.8404 -0.2046
   86c3c     C6 1002   2.837   1.821   0.305  0.0278  0.6211  0.1084
   86c3c     H1 1003   3.084   1.973   0.329  0.5016 -0.0171  1.5639
   86c3c     H2 1004   2.987   1.972   0.460 -0.7516 -2.5445 -0.8449
   86c3c     H3 1005   2.683   2.077   0.252  0.1438  0.7871  1.2722
   86c3c     H4 1006   2.716   2.020   0.414 -0.1405  0.2302  0.1333
   86c3c     H5 1007   3.033   2.204   0.271  0.0049 -1.4592 -1.2415
   86c3c     H6 1008   3.023   2.211   0.449  1.0681 -3.0160  1.7349
   86c3c     H7 1009   2.822   2.263   0.262  2.2018  0.9059  2.5336
   86c3c     H8 1010   2.785   2.248   0.434 -2.7513 -1.2891 -1.1550
   86c3c     H9 1011   2.984   1.946   0.112  2.2933  0.4347  2.0519
   86c3c    H10 1012   2.811   1.946   0.085  0.7000 -2.2689  1.1633
   86c3c    H11 1013   2.897   2.096   0.108  0.7799 -1.5241 -2.3585
   86c3c    H12 1014   2.746   1.796   0.250 -1.3423 -0.7129  2.9037
   86c3c    H13 1015   2.912   1.759   0.256 -1.0623 -0.1688 -0.5608
   86c3c     C7 1016   2.828   1.774   0.447 -0.0067  0.1999  0.0506
   86c3c    H14 1017   2.768   1.826   0.521  1.4996  1.2185  0.5758
   86c3c    H15 1018   2.927   1.780   0.491 -0.5845 -0.4031  1.4614
   86c3c     C8 1019   2.778   1.631   0.444  0.4124  0.0420 -0.3939
   86c3c    H16 1020   2.675   1.621   0.412  0.8122 -2.3408 -1.0584
   86c3c    H17 1021   2.784   1.590   0.545 -0.1800 -0.6257 -0.6272
   86c3c    H18 1022   2.850   1.580   0.380  2.8352  1.1020  1.3979
   87c3c      N 1023   0.493   0.321   0.453 -0.1364  0.6229 -0.0988
   87c3c     C1 1024   0.506   0.352   0.309  0.2891 -0.0671 -0.3224
   87c3c     C2 1025   0.568   0.425   0.522  0.1490  0.4062  1.4895
   87c3c     C3 1026   0.502   0.506   0.294  0.1389 -0.4153  0.1317
   87c3c     C4 1027   0.563   0.551   0.426 -0.0029  0.3609  0.6465
   87c3c     C5 1028   0.350   0.326   0.490  0.0952  0.1303  0.2967
   87c3c     C6 1029   0.532   0.181   0.492  0.3525  0.4318  0.4204
   87c3c     H1 1030   0.433   0.299   0.247 -0.3423  1.8273 -1.2215
   87c3c     H2 1031   0.603   0.319   0.271  1.4072  0.2310  2.2300
   87c3c     H3 1032   0.544   0.437   0.628 -0.6311 -1.8151  1.6019
   87c3c     H4 1033   0.671   0.387   0.518 -0.1467 -0.1381 -2.3941
   87c3c     H5 1034   0.398   0.539   0.294 -0.0377 -0.7990 -2.9383
   87c3c     H6 1035   0.556   0.542   0.207 -0.9142  1.5485  0.2643
   87c3c     H7 1036   0.520   0.635   0.480  0.1963  0.4026  0.7399
   87c3c     H8 1037   0.664   0.589   0.410  0.1463 -0.2522  0.1037
   87c3c     H9 1038   0.290   0.267   0.421 -2.2665 -1.0077  3.2302
   87c3c    H10 1039   0.333   0.294   0.592  0.4881 -1.0268  0.0048
   87c3c    H11 1040   0.310   0.427   0.479 -0.5003 -0.2884 -1.5686
   87c3c    H12 1041   0.512   0.169   0.599  0.5669 -0.5158  0.3597
   87c3c    H13 1042   0.456   0.115   0.450  0.2623 -0.4011  1.8620
   87c3c     C7 1043   0.667   0.126   0.438  0.1506  0.1590  0.8015
   87c3c    H14 1044   0.748   0.182   0.482 -0.2091  2.1969 -1.0391
   87c3c    H15 1045   0.668   0.131   0.329  0.8699 -1.2109  0.7361
   87c3c     C8 1046   0.693  -0.014   0.486  0.8839  0.1008 -0.8343
   87c3c    H16 1047   0.698  -0.018   0.595 -4.8590  2.8921 -0.2819
   87c3c    H17 1048   0.787  -0.049   0.443  1.2745  0.2939 -0.1460
   87c3c    H18 1049   0.615  -0.086   0.459 -0.9640  2.1919 -1.1868
   88c3c      N 1050   0.958   2.258   1.129  0.1073  0.3933 -0.6791
   88c3c     C1 1051   0.902   2.148   1.203 -0.0294  1.1747 -0.3163
   88c3c     C2 1052   1.065   2.191   1.048 -0.1467  0.3495  0.2906
   88c3c     C3 1053   0.880   2.027   1.096 -0.2760  0.3097 -0.5452
   88c3c     C4 1054   0.998   2.056   0.999  0.3042  0.1574  0.3316
   88c3c     C5 1055   0.863   2.323   1.047 -0.1316  0.2939  0.9450
   88c3c     C6 1056   1.018   2.362   1.211  0.1238 -0.3796 -0.4408
   88c3c     H1 1057   0.806   2.182   1.240  0.4997  0.6760  1.5563
   88c3c     H2 1058   0.959   2.107   1.286  2.2276  1.4742 -1.6542
   88c3c     H3 1059   1.101   2.244   0.960  0.0084 -0.6301 -0.2379
   88c3c     H4 1060   1.147   2.164   1.115  0.3880  2.6134  0.6128
   88c3c     H5 1061   0.784   2.040   1.045 -1.0483 -0.8660  0.5844
   88c3c     H6 1062   0.880   1.927   1.139 -1.8114 -1.2947 -4.0629
   88c3c     H7 1063   0.970   2.071   0.895  0.1709 -1.3790  0.1263
   88c3c     H8 1064   1.064   1.970   1.005 -1.1364 -0.8530  2.3516
   88c3c     H9 1065   0.786   2.373   1.105 -0.5067 -1.6215  2.1396
   88c3c    H10 1066   0.904   2.395   0.976 -0.7719  2.6390  2.8937
   88c3c    H11 1067   0.816   2.256   0.975  0.7470 -0.9138  1.4641
   88c3c    H12 1068   1.060   2.437   1.145  4.1242 -2.1096  0.0003
   88c3c    H13 1069   0.936   2.407   1.266  0.6992  0.9380 -0.6571
   88c3c     C7 1070   1.134   2.319   1.308 -0.4431  1.1043 -0.4880
   88c3c    H14 1071   1.223   2.298   1.249  0.7961 -0.2015  1.8042
   88c3c    H15 1072   1.109   2.224   1.355  1.5078 -0.7478 -3.0357
   88c3c     C8 1073   1.167   2.421   1.408 -0.6845 -1.4629  0.1525
   88c3c    H16 1074   1.263   2.398   1.453  0.2471  2.8000  0.6009
   88c3c    H17 1075   1.081   2.426   1.476  0.7258  0.1998  1.8607
   88c3c    H18 1076   1.181   2.513   1.351 -1.4456 -1.5579 -0.2051
   89c3c      N 1077   3.030   2.731   1.208 -0.3319 -0.5137 -0.1373
   89c3c     C1 1078   3.174   2.727   1.191  0.5408 -0.4840  0.5011
   89c3c     C2 1079   2.990   2.810   1.090 -0.0745 -0.5161 -0.0534
   89c3c     C3 1080   3.194   2.688   1.045  0.3511 -0.5640  0.1737
   89c3c     C4 1081   3.081   2.761   0.974 -0.4765 -0.1859  0.1323
   89c3c     C5 1082   2.976   2.593   1.208 -0.1940 -0.4392 -0.4881
   89c3c     C6 1083   2.996   2.796   1.340  0.2944 -0.6080  0.0466
   89c3c     H1 1084   3.225   2.654   1.254  0.9652 -3.3363 -2.9488
   89c3c     H2 1085   3.226   2.817   1.222 -4.4582  1.7555  2.9489
   89c3c     H3 1086   2.887   2.806   1.053  0.7525  2.5743 -2.9238
   89c3c     H4 1087   3.014   2.915   1.106  0.4760 -0.2205 -2.6920
   89c3c     H5 1088   3.193   2.581   1.022 -1.2632 -0.8379  1.3717
   89c3c     H6 1089   3.289   2.732   1.019  0.5469  0.2804  2.2068
   89c3c     H7 1090   3.016   2.694   0.918  3.4581 -3.5252 -0.6897
   89c3c     H8 1091   3.108   2.843   0.908 -3.0428 -0.6288 -1.5203
   89c3c     H9 1092   3.023   2.521   1.275  0.2358  0.1840 -0.1181
   89c3c    H10 1093   2.872   2.578   1.238  0.1392 -1.8028  0.0154
   89c3c    H11 1094   2.975   2.550   1.108 -2.5051 -0.0650 -0.6517
   89c3c    H12 1095   2.889   2.780   1.355 -0.0130  1.3449  0.0271
   89c3c    H13 1096   3.043   2.738   1.419  1.5884 -0.7284 -0.7988
   89c3c     C7 1097   3.017   2.945   1.367 -0.2942  0.9446  0.6948
   89c3c    H14 1098   2.945   3.011   1.318 -1.8889  0.2749  2.0861
   89c3c    H15 1099   3.116   2.980   1.338  0.9527 -0.8960  2.5599
   89c3c     C8 1100   3.001   2.978   1.514 -0.0456 -0.1001  0.3841
   89c3c    H16 1101   3.079   2.930   1.573  1.9963 -1.1169 -2.9908
   89c3c    H17 1102   2.898   2.953   1.539 -0.2984 -0.8889 -1.3848
   89c3c    H18 1103   3.013   3.085   1.533  0.0997 -0.2658  1.2546
   90c3c      N 1104   1.567   0.080   2.362 -0.6026 -0.6627 -0.6936
   90c3c     C1 1105   1.491  -0.004   2.265 -0.4465  0.2785 -0.0443
   90c3c     C2 1106   1.668   0.152   2.280 -0.2587 -0.6469 -0.1411
   90c3c     C3 1107   1.483   0.079   2.139  0.2067  0.3514 -0.1255
   90c3c     C4 1108   1.599   0.176   2.146 -0.1451  0.3542 -0.2732
   90c3c     C5 1109   1.474   0.176   2.424 -0.2069  0.4669  0.5944
   90c3c     C6 1110   1.632  -0.003   2.465  0.0788 -0.0889 -0.1410
   90c3c     H1 1111   1.390  -0.028   2.299  0.0982 -0.7485  0.9035
   90c3c     H2 1112   1.537  -0.097   2.231  1.9053  1.0548  0.9342
   90c3c     H3 1113   1.701   0.245   2.328  0.4545 -1.3207  0.6965
   90c3c     H4 1114   1.762   0.097   2.273  0.2024  0.2254 -0.8979
   90c3c     H5 1115   1.390   0.134   2.127 -0.6102 -1.2519 -1.3395
   90c3c     H6 1116   1.489   0.014   2.052  1.2457  0.6259 -0.2759
   90c3c     H7 1117   1.564   0.278   2.134  0.2705  0.5657  0.3542
   90c3c     H8 1118   1.664   0.163   2.059 -0.6470 -3.5828 -0.1522
   90c3c     H9 1119   1.384   0.125   2.459 -0.3749 -0.1181 -0.6586
   90c3c    H10 1120   1.523   0.222   2.510 -0.4405  2.3239 -0.2479
   90c3c    H11 1121   1.449   0.257   2.355  2.4118  2.1399  1.5242
   90c3c    H12 1122   1.681   0.058   2.541  1.7153 -2.2200  0.5616
   90c3c    H13 1123   1.555  -0.043   2.531 -0.2317  0.7103 -0.0234
   90c3c     C7 1124   1.731  -0.113   2.420 -0.1395 -0.3271  0.0607
   90c3c    H14 1125   1.819  -0.089   2.359 -0.2701 -1.5443 -0.6200
   90c3c    H15 1126   1.679  -0.188   2.360  1.8079 -0.7533 -1.1629
   90c3c     C8 1127   1.791  -0.188   2.534 -0.2405 -0.5453  0.0950
   90c3c    H16 1128   1.711  -0.241   2.587 -0.5138 -1.5907 -1.3188
   90c3c    H17 1129   1.852  -0.117   2.589 -2.1124  2.4805 -1.6083
   90c3c    H18 1130   1.868  -0.261   2.507 -0.3027  0.0920 -1.8626
   91c3c      N 1131   2.873   2.854   2.235 -0.7295 -0.1213 -0.6808
   91c3c     C1 1132   2.800   2.849   2.101 -0.4166 -0.0424  0.4259
   91c3c     C2 1133   2.835   2.976   2.303 -0.1215  0.1975  0.0017
   91c3c     C3 1134   2.662   2.897   2.142 -0.2797 -0.2599 -0.5973
   91c3c     C4 1135   2.687   2.984   2.266 -0.2439 -0.5086  0.2332
   91c3c     C5 1136   2.833   2.737   2.322 -0.5863  0.0441  0.3320
   91c3c     C6 1137   3.016   2.850   2.231  0.1694  0.0846 -0.0880
   91c3c     H1 1138   2.803   2.753   2.049 -2.0117 -0.8064  1.6961
   91c3c     H2 1139   2.832   2.928   2.033  2.8185  0.3113  2.2772
   91c3c     H3 1140   2.844   2.961   2.411  2.2584 -0.1838 -0.2334
   91c3c     H4 1141   2.890   3.065   2.271 -0.0687  0.3312  0.4566
   91c3c     H5 1142   2.583   2.829   2.173 -1.7250  2.2791  1.5250
   91c3c     H6 1143   2.619   2.963   2.067 -0.6270 -2.2533 -2.1799
   91c3c     H7 1144   2.630   2.943   2.349  0.4308 -0.3188  0.7889
   91c3c     H8 1145   2.643   3.084   2.258 -1.3714 -1.0674 -0.8445
   91c3c     H9 1146   2.845   2.647   2.262  2.8410  1.6519 -1.5331
   91c3c    H10 1147   2.890   2.714   2.413  1.1285  0.2967 -0.6605
   91c3c    H11 1148   2.728   2.750   2.348 -0.0275  2.1235  1.5966
   91c3c    H12 1149   3.064   2.865   2.327  0.6671 -0.1970 -0.2951
   91c3c    H13 1150   3.048   2.751   2.200  0.5596  0.5983 -1.3537
   91c3c     C7 1151   3.084   2.945   2.123  0.1307 -0.4697  0.3259
   91c3c    H14 1152   3.027   3.038   2.113 -0.4785 -1.1286 -2.8101
   91c3c    H15 1153   3.064   2.905   2.024 -1.3410  0.9505  0.0341
   91c3c     C8 1154   3.228   2.991   2.159 -0.2326 -0.0581  0.0904
   91c3c    H16 1155   3.224   3.020   2.264  0.7604 -1.3743  0.5083
   91c3c    H17 1156   3.257   3.078   2.099  0.4850 -0.7093 -0.5219
   91c3c    H18 1157   3.293   2.903   2.160 -3.3577 -2.4750  3.3835
   92c3c      N 1158   2.792   0.651   0.912  0.2651  0.5706  0.1112
   92c3c     C1 1159   2.660   0.587   0.903  0.0568  0.5388 -0.2639
   92c3c     C2 1160   2.771   0.792   0.867 -0.2185  0.1927  0.2422
   92c3c     C3 1161   2.556   0.687   0.945  0.8652 -0.0838  0.3396
   92c3c     C4 1162   2.618   0.814   0.889  0.1078  0.2219 -0.6766
   92c3c     C5 1163   2.835   0.651   1.057  0.2543  0.1612 -0.5999
   92c3c     C6 1164   2.897   0.579   0.839  0.2575 -0.1181  0.5072
   92c3c     H1 1165   2.651   0.502   0.970  1.3345  0.7839  0.2270
   92c3c     H2 1166   2.640   0.559   0.799 -0.9069  0.5554 -0.0897
   92c3c     H3 1167   2.844   0.855   0.918 -0.6505  2.1253 -1.4680
   92c3c     H4 1168   2.787   0.809   0.760  2.5085 -0.6717  0.4698
   92c3c     H5 1169   2.565   0.690   1.053 -1.6414 -1.5777  0.6085
   92c3c     H6 1170   2.454   0.661   0.918  0.2750  1.3689  1.1576
   92c3c     H7 1171   2.610   0.901   0.955  2.3399  1.6887 -2.2644
   92c3c     H8 1172   2.555   0.849   0.808 -1.1124 -0.1968  0.0747
   92c3c     H9 1173   2.840   0.557   1.112 -0.6400  0.5343  0.1302
   92c3c    H10 1174   2.934   0.697   1.064 -0.1308  0.9577 -0.2919
   92c3c    H11 1175   2.773   0.710   1.125  1.1195 -1.1472  1.3956
   92c3c    H12 1176   2.999   0.617   0.849 -0.2629  1.8427 -1.2236
   92c3c    H13 1177   2.914   0.474   0.861 -0.8569 -0.6484 -1.0681
   92c3c     C7 1178   2.870   0.562   0.683 -0.5592 -0.6783 -0.5009
   92c3c    H14 1179   2.827   0.652   0.638 -0.5348 -1.8710 -2.9848
   92c3c    H15 1180   2.802   0.478   0.671 -1.4281 -0.2075  1.0190
   92c3c     C8 1181   2.982   0.511   0.600 -0.0224 -0.4417 -0.4472
   92c3c    H16 1182   3.025   0.426   0.654  1.4592 -0.5467 -1.7740
   92c3c    H17 1183   3.066   0.579   0.586 -0.0313 -0.2943  0.2110
   92c3c    H18 1184   2.950   0.471   0.504 -3.5606  1.4386 -0.1019
   93c3c      N 1185   1.253   0.418   0.087 -0.8089 -0.6588  0.4175
   93c3c     C1 1186   1.349   0.315   0.104 -0.3939  0.2584 -0.0235
   93c3c     C2 1187   1.279   0.515   0.195  0.4713  0.2484  0.7453
   93c3c     C3 1188   1.478   0.390   0.142 -0.4379 -0.1207 -0.1308
   93c3c     C4 1189   1.427   0.526   0.202  0.0045  0.2747 -0.0308
   93c3c     C5 1190   1.263   0.477  -0.050  1.0828 -0.0826  0.0528
   93c3c     C6 1191   1.118   0.368   0.090  1.0707 -0.0002 -0.5137
   93c3c     H1 1192   1.356   0.262   0.009  0.1177  0.0976  0.0998
   93c3c     H2 1193   1.322   0.244   0.182 -1.2169 -1.2762 -1.6827
   93c3c     H3 1194   1.228   0.611   0.190  1.3431  0.7628  1.5187
   93c3c     H4 1195   1.248   0.471   0.290  1.1740 -0.4796  0.6398
   93c3c     H5 1196   1.535   0.408   0.051  0.3107 -0.3362  0.2931
   93c3c     H6 1197   1.535   0.325   0.209  0.7738  1.3463  0.2980
   93c3c     H7 1198   1.471   0.605   0.142  1.7694 -1.8260 -1.6164
   93c3c     H8 1199   1.456   0.534   0.306  0.4959  0.4309 -0.1797
   93c3c     H9 1200   1.235   0.395  -0.117 -1.2862  0.6808  0.0486
   93c3c    H10 1201   1.203   0.568  -0.059  0.2022 -0.3698  2.7724
   93c3c    H11 1202   1.365   0.507  -0.074  1.1952  0.0260  0.6749
   93c3c    H12 1203   1.045   0.443   0.058 -0.2449 -0.7883  0.5863
   93c3c    H13 1204   1.095   0.291   0.016 -2.7433 -2.6133  3.1559
   93c3c     C7 1205   1.064   0.306   0.224 -0.1122 -0.7512  0.1891
   93c3c    H14 1206   1.084   0.371   0.309 -2.0705 -1.2120  1.0297
   93c3c    H15 1207   1.115   0.216   0.256 -1.2205 -0.4955  2.8122
   93c3c     C8 1208   0.911   0.276   0.216 -1.0221  0.2388  0.0370
   93c3c    H16 1209   0.866   0.251   0.313 -1.0374 -0.0088 -0.0338
   93c3c    H17 1210   0.907   0.191   0.149  4.3599 -0.8144  0.8282
   93c3c    H18 1211   0.845   0.349   0.169 -0.4639 -0.9496 -2.6437
   94c3c      N 1212   2.659   1.388   1.064  0.4957  0.3609 -0.1659
   94c3c     C1 1213   2.594   1.265   1.093 -0.5003 -0.5178 -0.0839
   94c3c     C2 1214   2.583   1.474   1.161 -0.1240  0.2054  0.4276
   94c3c     C3 1215   2.560   1.257   1.241 -0.5626  0.2460 -0.3838
   94c3c     C4 1216   2.536   1.398   1.285 -0.3955  0.5280 -0.5862
   94c3c     C5 1217   2.796   1.365   1.103  0.0205  0.8078 -0.1409
   94c3c     C6 1218   2.653   1.432   0.925  0.1794  0.1291 -0.2256
   94c3c     H1 1219   2.634   1.174   1.047 -2.1034 -1.6608  0.7179
   94c3c     H2 1220   2.496   1.270   1.045 -0.3270  0.7966 -0.2907
   94c3c     H3 1221   2.648   1.556   1.193  1.9591 -1.5952  0.9469
   94c3c     H4 1222   2.495   1.514   1.111 -0.3321 -1.4742 -0.5991
   94c3c     H5 1223   2.646   1.218   1.295 -3.0694  0.0414  3.6919
   94c3c     H6 1224   2.483   1.182   1.261  0.0298 -0.4478 -0.6726
   94c3c     H7 1225   2.599   1.410   1.372 -1.0924 -0.6210  0.0863
   94c3c     H8 1226   2.433   1.423   1.308 -0.8166 -0.0233 -1.7818
   94c3c     H9 1227   2.844   1.291   1.039 -0.0628  1.3472 -0.8335
   94c3c    H10 1228   2.847   1.459   1.083  0.5547  0.3469 -0.9567
   94c3c    H11 1229   2.812   1.349   1.210 -0.2661  1.0336 -0.0623
   94c3c    H12 1230   2.696   1.531   0.917  0.1437  0.1577 -0.0702
   94c3c    H13 1231   2.724   1.369   0.871 -1.1433  0.2702 -2.1739
   94c3c     C7 1232   2.532   1.413   0.843  0.8132 -0.1094 -0.0885
   94c3c    H14 1233   2.449   1.457   0.898  2.1086  1.4386  0.6667
   94c3c    H15 1234   2.512   1.306   0.830  3.0395 -0.4117 -1.2156
   94c3c     C8 1235   2.542   1.469   0.697 -0.0667 -0.0526 -1.1952
   94c3c    H16 1236   2.630   1.421   0.653  0.0511 -0.4336 -0.5555
   94c3c    H17 1237   2.569   1.575   0.697 -3.9723  1.0158 -1.3522
   94c3c    H18 1238   2.460   1.441   0.631  0.1928 -0.1110 -1.4933
   95c3c      N 1239   1.963   2.015   2.206 -0.2460 -0.9972  0.4173
   95c3c     C1 1240   1.820   1.963   2.207 -0.1823 -0.4458 -0.0972
   95c3c     C2 1241   1.944   2.147   2.141 -0.2306  0.0915  0.2538
   95c3c     C3 1242   1.734   2.088   2.232 -0.2300  0.6975 -0.2281
   95c3c     C4 1243   1.814   2.203   2.183  0.4769 -0.4967  0.4434
   95c3c     C5 1244   2.006   2.042   2.346 -0.1560 -0.6330 -0.3495
   95c3c     C6 1245   2.062   1.929   2.136 -0.2398  0.2430  0.1018
   95c3c     H1 1246   1.799   1.880   2.274 -2.0073  1.1429  1.3620
   95c3c     H2 1247   1.795   1.929   2.107  1.9333 -0.2820 -0.7025
   95c3c     H3 1248   2.029   2.213   2.161  0.6244 -0.3133 -1.8798
   95c3c     H4 1249   1.946   2.141   2.032 -1.4555 -1.1498  0.2919
   95c3c     H5 1250   1.719   2.104   2.338 -2.1110 -0.8188 -0.2441
   95c3c     H6 1251   1.637   2.075   2.183  0.1159  0.1336 -0.7742
   95c3c     H7 1252   1.821   2.278   2.262  1.8926  0.1078 -0.2433
   95c3c     H8 1253   1.768   2.253   2.098  0.6737 -0.9220  0.0814
   95c3c     H9 1254   2.024   1.944   2.390  0.2821 -0.1500  0.5554
   95c3c    H10 1255   2.095   2.104   2.354 -0.2371 -0.3794 -1.4094
   95c3c    H11 1256   1.923   2.090   2.398 -1.1968 -0.6426 -1.9592
   95c3c    H12 1257   2.164   1.953   2.166 -0.5314  2.0424 -0.2602
   95c3c    H13 1258   2.043   1.832   2.181 -1.2851  0.2390 -0.3339
   95c3c     C7 1259   2.056   1.896   1.982 -0.1209  0.5487 -0.0667
   95c3c    H14 1260   2.077   1.986   1.924  3.3529  0.2537  0.6412
   95c3c    H15 1261   1.960   1.854   1.952  0.5752 -0.9401 -0.2439
   95c3c     C8 1262   2.156   1.787   1.944  0.1731  0.0381 -0.0113
   95c3c    H16 1263   2.255   1.815   1.980 -0.6665  1.6288  1.1467
   95c3c    H17 1264   2.155   1.777   1.836 -2.5795  2.6261 -0.2843
   95c3c    H18 1265   2.136   1.691   1.993  0.0921  0.4397  0.7563
   96c3c      N 1266   2.603   2.918   0.493  0.0724 -0.0484 -0.0332
   96c3c     C1 1267   2.505   2.953   0.593  0.0322  0.7458  0.1859
   96c3c     C2 1268   2.723   2.880   0.566  0.1045  0.2618 -0.2268
   96c3c     C3 1269   2.532   2.855   0.708  0.0125  1.0601 -0.2333
   96c3c     C4 1270   2.672   2.811   0.692  0.4689 -0.4060 -0.1366
   96c3c     C5 1271   2.560   2.804   0.412 -0.5609  0.6272  0.5153
   96c3c     C6 1272   2.632   3.033   0.403 -0.4253 -0.1334 -0.3566
   96c3c     H1 1273   2.404   2.966   0.555 -0.8802 -1.0200  1.9521
   96c3c     H2 1274   2.531   3.049   0.639  0.9584  0.0266  1.2204
   96c3c     H3 1275   2.786   2.815   0.505 -0.7629 -1.5036  0.7215
   96c3c     H4 1276   2.781   2.965   0.602  0.2522  0.1360 -0.1649
   96c3c     H5 1277   2.460   2.775   0.692 -0.2809  1.4167 -0.7105
   96c3c     H6 1278   2.508   2.905   0.802  0.5650  0.5032  0.2039
   96c3c     H7 1279   2.680   2.702   0.698  0.0383 -0.4905 -0.9041
   96c3c     H8 1280   2.735   2.844   0.774  0.6777 -0.5843 -0.2261
   96c3c     H9 1281   2.472   2.822   0.350  0.3792 -1.0534 -1.3870
   96c3c    H10 1282   2.640   2.780   0.341  0.3755  0.1048  1.7167
   96c3c    H11 1283   2.541   2.715   0.473 -2.4491  1.5518  1.2908
   96c3c    H12 1284   2.716   2.998   0.344 -1.4146  0.5493 -2.2406
   96c3c    H13 1285   2.554   3.039   0.326 -0.8299  0.2569  0.0839
   96c3c     C7 1286   2.665   3.175   0.459 -0.8596  0.2154  0.3061
   96c3c    H14 1287   2.753   3.166   0.522  0.1777 -2.1103 -1.3834
   96c3c    H15 1288   2.599   3.225   0.529 -0.5495  0.9279  0.0937
   96c3c     C8 1289   2.715   3.270   0.345  0.5195  0.3607 -0.5012
   96c3c    H16 1290   2.777   3.345   0.394 -0.7658  2.4262 -1.9660
   96c3c    H17 1291   2.630   3.330   0.312 -0.5395  0.0706  1.5691
   96c3c    H18 1292   2.779   3.223   0.271 -0.5741  0.0460 -1.2548
   97c3c      N 1293   1.619   0.010   0.722  0.4274 -0.0526 -0.1705
   97c3c     C1 1294   1.676   0.035   0.860  0.2172 -0.4790 -0.4523
   97c3c     C2 1295   1.725  -0.073   0.665  0.5947 -0.1038 -0.6365
   97c3c     C3 1296   1.751  -0.089   0.898  0.3574  0.2978 -0.3314
   97c3c     C4 1297   1.805  -0.148   0.773  0.2303 -0.1573  0.2806
   97c3c     C5 1298   1.504  -0.079   0.729  0.1316 -0.4619  0.1449
   97c3c     C6 1299   1.584   0.135   0.654  0.4420 -0.0985 -0.2089
   97c3c     H1 1300   1.605   0.059   0.939  0.9559 -2.4468  0.8410
   97c3c     H2 1301   1.742   0.121   0.868  3.0039 -2.5960 -0.1228
   97c3c     H3 1302   1.695  -0.146   0.590  0.9192 -0.1373 -0.7347
   97c3c     H4 1303   1.804  -0.014   0.617  1.2561 -0.8268 -0.4540
   97c3c     H5 1304   1.693  -0.162   0.954  2.0169 -0.8745 -0.1059
   97c3c     H6 1305   1.832  -0.042   0.954 -0.5369  1.7035 -0.2001
   97c3c     H7 1306   1.789  -0.256   0.776  1.0304 -0.3024 -0.4519
   97c3c     H8 1307   1.913  -0.143   0.762  0.8702 -5.6030  2.3804
   97c3c     H9 1308   1.524  -0.177   0.773 -0.0307 -0.4085  0.3406
   97c3c    H10 1309   1.420  -0.029   0.777  2.2064  1.9591  1.3332
   97c3c    H11 1310   1.458  -0.111   0.636 -1.2381  0.3232  0.5371
   97c3c    H12 1311   1.569   0.102   0.551 -0.2369 -0.2112 -0.0720
   97c3c    H13 1312   1.492   0.176   0.694  1.0626 -1.7106  2.9881
   97c3c     C7 1313   1.698   0.248   0.647  0.1211  0.3452 -0.0540
   97c3c    H14 1314   1.795   0.211   0.613 -0.3957 -1.2470  0.1930
   97c3c    H15 1315   1.727   0.292   0.742  1.0300  1.9457 -1.0345
   97c3c     C8 1316   1.651   0.353   0.547  0.4078  0.7565  0.4809
   97c3c    H16 1317   1.725   0.416   0.498  0.4148 -0.2376 -0.8335
   97c3c    H17 1318   1.579   0.430   0.575  0.7318  0.3944  2.3717
   97c3c    H18 1319   1.602   0.315   0.457 -0.1179 -0.2900  1.2004
   98c3c      N 1320   1.601   0.775   0.780 -0.2759  0.2128 -0.2411
   98c3c     C1 1321   1.646   0.639   0.783  0.7680  0.4165  0.3008
   98c3c     C2 1322   1.464   0.756   0.817  0.3064 -0.4516 -0.2143
   98c3c     C3 1323   1.588   0.566   0.908 -0.1274 -0.1393 -0.0459
   98c3c     C4 1324   1.455   0.635   0.920 -0.0849 -0.2368 -0.0770
   98c3c     C5 1325   1.670   0.859   0.881 -0.7327 -0.6732  0.0566
   98c3c     C6 1326   1.625   0.824   0.637  0.4019 -0.1284 -0.0815
   98c3c     H1 1327   1.752   0.620   0.768  0.1919 -3.3655  0.5515
   98c3c     H2 1328   1.615   0.587   0.692  2.1770 -0.3417  0.2389
   98c3c     H3 1329   1.408   0.848   0.836  0.2462 -0.9540  2.2391
   98c3c     H4 1330   1.416   0.711   0.731 -0.7463 -2.1111  1.2205
   98c3c     H5 1331   1.654   0.578   0.994 -1.8521  1.0820  1.1384
   98c3c     H6 1332   1.591   0.458   0.892 -0.4142 -0.2587  0.7060
   98c3c     H7 1333   1.452   0.675   1.021  0.1116  1.2233 -0.6343
   98c3c     H8 1334   1.365   0.577   0.899  0.9043 -1.4456 -1.1367
   98c3c     H9 1335   1.777   0.839   0.873 -0.9693 -1.4651 -1.2722
   98c3c    H10 1336   1.659   0.965   0.859 -0.8718 -0.9397 -1.2440
   98c3c    H11 1337   1.632   0.842   0.981 -0.7809  3.1376  0.7712
   98c3c    H12 1338   1.593   0.928   0.636  0.6934 -0.0392 -0.5741
   98c3c    H13 1339   1.733   0.829   0.618  0.3764  0.8825  0.0154
   98c3c     C7 1340   1.564   0.753   0.512  0.3622  0.7043 -0.0697
   98c3c    H14 1341   1.458   0.730   0.525  0.4851  1.0910  1.8604
   98c3c    H15 1342   1.598   0.652   0.487 -1.8068 -0.9663  3.3283
   98c3c     C8 1343   1.578   0.840   0.383  0.2041 -0.6221 -0.4345
   98c3c    H16 1344   1.680   0.841   0.345  0.5977 -0.7519  0.6219
   98c3c    H17 1345   1.549   0.944   0.392  1.9251 -0.2134  0.4203
   98c3c    H18 1346   1.524   0.795   0.299  1.2015 -0.9616 -0.9056
   99c3c      N 1347   2.997   1.461   1.535  0.3247  0.3197 -0.3717
   99c3c     C1 1348   3.040   1.506   1.664 -0.7606 -0.4630  0.2012
   99c3c     C2 1349   2.914   1.572   1.476 -0.8563 -0.2993 -0.3428
   99c3c     C3 1350   3.072   1.653   1.642  0.0366 -0.7153 -1.0495
   99c3c     C4 1351   3.002   1.692   1.517 -0.1130  0.5905  0.0246
   99c3c     C5 1352   3.105   1.434   1.438 -0.0112 -0.0847 -0.4433
   99c3c     C6 1353   2.928   1.330   1.546  0.1618  0.4406 -0.7960
   99c3c     H1 1354   3.114   1.443   1.712 -0.8682  0.7425  2.0051
   99c3c     H2 1355   2.961   1.494   1.739  0.2970 -3.4609  0.8919
   99c3c     H3 1356   2.900   1.566   1.368 -0.1347 -0.0533 -0.4518
   99c3c     H4 1357   2.816   1.576   1.523 -1.2709 -0.8316 -1.1383
   99c3c     H5 1358   3.178   1.666   1.622  0.1298 -0.8189 -0.6330
   99c3c     H6 1359   3.045   1.712   1.730  0.9890 -0.4464 -0.9358
   99c3c     H7 1360   3.072   1.719   1.438  0.1209  1.3833  0.5119
   99c3c     H8 1361   2.943   1.780   1.542  0.8932  0.9874  0.9969
   99c3c     H9 1362   3.173   1.350   1.455 -0.6332 -1.0166 -2.4567
   99c3c    H10 1363   3.059   1.423   1.340 -0.4608 -0.2069 -0.2204
   99c3c    H11 1364   3.175   1.517   1.431  3.3900 -2.5014  2.5958
   99c3c    H12 1365   2.902   1.303   1.444 -0.0853  0.3280 -0.7033
   99c3c    H13 1366   2.976   1.236   1.573  1.7868  2.1388  2.5652
   99c3c     C7 1367   2.790   1.335   1.617 -0.3434 -0.2560  0.1531
   99c3c    H14 1368   2.722   1.408   1.573 -0.2488 -0.0730  0.3129
   99c3c    H15 1369   2.797   1.366   1.721  2.4720 -1.3099  0.3107
   99c3c     C8 1370   2.720   1.196   1.614 -0.3190  0.5236 -0.5221
   99c3c    H16 1371   2.785   1.118   1.654  1.1767  1.9658 -0.1074
   99c3c    H17 1372   2.695   1.157   1.515 -0.6914  1.2870 -0.7321
   99c3c    H18 1373   2.631   1.194   1.678 -0.4700 -0.6801 -0.7479
  100c3c      N 1374   2.489   1.287   3.038 -0.4448  0.2327  0.4030
  100c3c     C1 1375   2.639   1.278   3.043  0.6764 -0.2456 -0.1978
  100c3c     C2 1376   2.446   1.153   3.011 -0.2248  0.3144 -0.1156
  100c3c     C3 1377   2.674   1.151   3.113 -0.5908  0.5801 -0.1947
  100c3c     C4 1378   2.554   1.059   3.073  0.0744  0.0383 -0.4159
  100c3c     C5 1379   2.445   1.330   3.172 -0.4532  0.1237  0.2845
  100c3c     C6 1380   2.435   1.381   2.932 -0.1274 -0.0381 -0.1498
  100c3c     H1 1381   2.692   1.363   3.084  0.5058  0.1574 -0.8084
  100c3c     H2 1382   2.688   1.263   2.946 -1.4555  0.7083 -1.4530
  100c3c     H3 1383   2.354   1.139   3.069  1.0382 -1.5711  1.5153
  100c3c     H4 1384   2.432   1.129   2.906 -0.1199 -1.3119  0.2291
  100c3c     H5 1385   2.682   1.176   3.219 -0.6416  0.5714 -0.1892
  100c3c     H6 1386   2.775   1.115   3.092  0.6754  2.2407  2.7643
  100c3c     H7 1387   2.519   1.001   3.159 -0.8008  0.7892 -0.2592
  100c3c     H8 1388   2.573   0.987   2.994  0.6109 -0.2064 -0.0651
  100c3c     H9 1389   2.500   1.416   3.209 -0.9690  0.5393  0.0872
  100c3c    H10 1390   2.342   1.366   3.173 -0.8654 -1.0042 -0.0792
  100c3c    H11 1391   2.459   1.247   3.241  0.0026  1.2792  1.6008
  100c3c    H12 1392   2.326   1.379   2.928 -0.2495 -1.3409  2.5884
  100c3c    H13 1393   2.457   1.483   2.962 -0.1325  0.2517 -1.1254
  100c3c     C7 1394   2.503   1.369   2.794 -0.0558 -0.0038  0.2814
  100c3c    H14 1395   2.503   1.268   2.752  0.9991 -0.4264  1.2558
  100c3c    H15 1396   2.602   1.414   2.792  0.9317 -1.9366  2.1182
  100c3c     C8 1397   2.427   1.451   2.684  0.3929 -0.1400  0.2310
  100c3c    H16 1398   2.460   1.432   2.582  0.2789  0.3832  0.0957
  100c3c    H17 1399   2.451   1.555   2.710  1.0106 -0.1279 -0.3801
  100c3c    H18 1400   2.323   1.421   2.683  0.5574 -0.6638 -1.7394
  101fsi     F1 1401   0.931   1.534   1.869  0.1120  0.3117 -0.3843
  101fsi     S1 1402   1.050   1.530   1.964  0.4069  0.2662 -0.0494
  101fsi      N 1403   1.141   1.640   1.897 -0.6459 -0.5409  0.2179
  101fsi     O1 1404   0.987   1.568   2.092  0.5536  0.4555 -0.0443
  101fsi     O2 1405   1.097   1.396   1.950 -0.5862  0.0416  0.7676
  101fsi     S2 1406   1.110   1.799   1.876 -0.2355 -0.2005 -0.1541
  101fsi     O3 1407   0.977   1.835   1.845  0.3238  0.6325 -0.5400
  101fsi     O4 1408   1.210   1.868   1.799 -0.0203  0.2897 -0.3195
  101fsi     F2 1409   1.116   1.863   2.023  0.3831 -0.6402  0.3259
  102fsi     F1 1410   1.838   0.607   1.256 -0.5435  0.0987  0.3406
  102fsi     S1 1411   1.899   0.753   1.228  0.0437  0.2391 -0.3127
  102fsi      N 1412   1.948   0.792   1.373  0.1372  0.1294  0.0736
  102fsi     O1 1413   2.008   0.731   1.139  0.0961 -0.0100 -0.1505
  102fsi     O2 1414   1.790   0.836   1.181  0.3402 -0.5697 -0.4731
  102fsi     S2 1415   2.011   0.929   1.418 -0.0205 -0.0133  0.2888
  102fsi     O3 1416   2.073   0.990   1.308 -0.3280 -0.0746  0.2351
  102fsi     O4 1417   2.085   0.925   1.541 -0.1238 -0.5635  0.1117
  102fsi     F2 1418   1.893   1.023   1.445 -0.3261 -0.0299 -0.0114
  103fsi     F1 1419   2.706   1.870   1.118  0.0466 -0.2135 -0.4791
  103fsi     S1 1420   2.739   1.945   1.260 -0.2758  0.0100  0.1773
  103fsi      N 1421   2.720   1.827   1.368  0.8750 -0.0318  0.3894
  103fsi     O1 1422   2.875   1.992   1.255 -0.5016  0.2988  0.4721
  103fsi     O2 1423   2.638   2.046   1.256  0.0072  0.1084  0.2606
  103fsi     S2 1424   2.608   1.802   1.473 -0.5165  0.1781 -0.2843
  103fsi     O3 1425   2.504   1.903   1.476  0.1272 -0.3397 -0.1277
  103fsi     O4 1426   2.671   1.759   1.600 -0.1524 -0.6116  0.8395
  103fsi     F2 1427   2.532   1.674   1.420 -0.5087 -0.5967  0.5224
  104fsi     F1 1428   2.200   3.060   2.098  0.4117  0.1733  0.1385
  104fsi     S1 1429   2.076   3.152   2.056  0.2403  0.3603  0.1159
  104fsi      N 1430   2.091   3.183   1.905 -0.2431 -0.3403  0.3810
  104fsi     O1 1431   1.959   3.073   2.091  0.2059  0.3675 -0.3878
  104fsi     O2 1432   2.094   3.271   2.135 -0.1870 -0.2576  0.5831
  104fsi     S2 1433   2.049   3.099   1.777 -0.3668  0.0491 -0.2764
  104fsi     O3 1434   2.002   3.167   1.665  0.3426 -0.2389 -0.2287
  104fsi     O4 1435   1.991   2.971   1.801 -0.3162 -0.5299 -0.3515
  104fsi     F2 1436   2.193   3.057   1.724 -0.4896  0.6110 -0.1662
  105fsi     F1 1437   0.117   2.715   1.703 -0.2086 -0.0065 -0.1200
  105fsi     S1 1438   0.232   2.810   1.765  0.6509  0.2372  0.4085
  105fsi      N 1439   0.351   2.808   1.661 -0.2704  0.5332  0.0899
  105fsi     O1 1440   0.171   2.934   1.785  0.9275  0.3439 -0.2471
  105fsi     O2 1441   0.275   2.730   1.878  0.3349 -0.2940  0.3036
  105fsi     S2 1442   0.378   2.890   1.524  0.5511  0.1987  0.0714
  105fsi     O3 1443   0.260   2.905   1.444  0.3012  0.4082  0.4130
  105fsi     O4 1444   0.493   2.843   1.453 -0.4960  0.5779  0.2565
  105fsi     F2 1445   0.423   3.034   1.577 -0.2615 -0.3070  0.3374
  106fsi     F1 1446   0.305   2.619   2.676 -0.3318  0.4129  0.4621
  106fsi     S1 1447   0.331   2.727   2.558  0.2069  0.0739  0.4444
  106fsi      N 1448   0.315   2.645   2.427  0.1671  0.4789  0.5857
  106fsi     O1 1449   0.228   2.825   2.577 -0.0123  0.1461 -0.1551
  106fsi     O2 1450   0.468   2.757   2.589  0.0457 -0.2292 -0.3860
  106fsi     S2 1451   0.189   2.598   2.346 -0.1590 -0.2245  0.1878
  106fsi     O3 1452   0.211   2.623   2.206 -0.1106 -0.4184 -0.1195
  106fsi     O4 1453   0.056   2.618   2.398 -0.4275 -0.1450 -0.2931
  106fsi     F2 1454   0.213   2.443   2.360 -0.1387 -0.3738  0.2305
  107fsi     F1 1455   1.064   2.374   0.541  0.1840  0.2682  0.0071
  107fsi     S1 1456   0.971   2.277   0.468  0.2154  0.3020 -0.0168
  107fsi      N 1457   0.903   2.198   0.586  0.0329 -0.3196  0.7157
  107fsi     O1 1458   0.885   2.370   0.408  0.0110  0.6799  0.4687
  107fsi     O2 1459   1.053   2.187   0.385  0.1298 -0.1499  0.7228
  107fsi     S2 1460   0.748   2.184   0.616 -0.0012 -0.1078  0.0387
  107fsi     O3 1461   0.678   2.313   0.615 -1.2575  0.4955  0.2303
  107fsi     O4 1462   0.717   2.094   0.723  0.4819 -0.0292  0.1968
  107fsi     F2 1463   0.705   2.113   0.486 -0.2828 -0.1599  0.4608
  108fsi     F1 1464   0.911   0.792   1.799 -0.4571  0.0376 -0.0968
  108fsi     S1 1465   0.759   0.826   1.805 -0.3167  0.0812  0.1080
  108fsi      N 1466   0.753   0.973   1.857  0.8088  0.2438  0.4831
  108fsi     O1 1467   0.718   0.804   1.672 -0.0588  0.1066 -0.0437
  108fsi     O2 1468   0.710   0.736   1.906 -0.0812  0.6723 -0.1830
  108fsi     S2 1469   0.759   1.108   1.773  0.2588 -0.1394 -0.0533
  108fsi     O3 1470   0.630   1.176   1.762 -0.6384 -0.4608 -0.3674
  108fsi     O4 1471   0.836   1.087   1.654  0.4058 -0.4125  0.3588
  108fsi     F2 1472   0.848   1.193   1.857 -0.2063 -0.4490 -0.2160
  109fsi     F1 1473   1.921   0.484   0.635 -0.2312 -0.3451  0.1609
  109fsi     S1 1474   2.033   0.439   0.535 -0.1796 -0.3045  0.1740
  109fsi      N 1475   1.977   0.299   0.479  0.8869 -0.2921 -0.0027
  109fsi     O1 1476   2.027   0.536   0.432 -0.5830  0.7949  0.5438
  109fsi     O2 1477   2.152   0.430   0.612  0.1087 -1.1801  0.0940
  109fsi     S2 1478   2.051   0.171   0.435 -0.1401 -0.0232 -0.0445
  109fsi     O3 1479   2.193   0.196   0.419 -0.0866  0.1503  0.7360
  109fsi     O4 1480   1.989   0.089   0.335 -0.0539 -0.2883  0.3216
  109fsi     F2 1481   2.049   0.082   0.555  0.2401  0.0891 -0.1930
  110fsi     F1 1482   1.228   0.410   2.254  0.1227  0.5459 -0.1479
  110fsi     S1 1483   1.158   0.556   2.250  0.3414  0.0949  0.5831
  110fsi      N 1484   1.280   0.640   2.309 -0.3864 -0.3744  0.3869
  110fsi     O1 1485   1.121   0.579   2.113  0.3217  0.2076  0.1786
  110fsi     O2 1486   1.056   0.544   2.348  0.5512 -0.3115  0.1433
  110fsi     S2 1487   1.409   0.686   2.229 -0.1757  0.0290 -0.1539
  110fsi     O3 1488   1.467   0.807   2.277 -0.1807  0.6099  0.1424
  110fsi     O4 1489   1.404   0.667   2.087  0.5484  0.3957  0.1796
  110fsi     F2 1490   1.508   0.580   2.284 -0.5680 -0.5633 -0.3920
  111fsi     F1 1491   0.682   0.654   0.726  0.2260 -0.0507  0.2598
  111fsi     S1 1492   0.714   0.721   0.856 -0.1611  0.1361  0.1492
  111fsi      N 1493   0.576   0.769   0.907 -0.3786  0.5154 -0.5293
  111fsi     O1 1494   0.768   0.618   0.938 -0.6595 -0.0034  0.2157
  111fsi     O2 1495   0.800   0.826   0.821 -0.6236 -0.6536 -0.0917
  111fsi     S2 1496   0.445   0.685   0.918  0.7495 -0.1007 -0.3331
  111fsi     O3 1497   0.349   0.757   0.996 -0.1298 -0.2592 -0.1332
  111fsi     O4 1498   0.460   0.545   0.958 -0.1187 -0.2554 -0.0190
  111fsi     F2 1499   0.383   0.682   0.779  0.5341  0.7012  0.3428
  112fsi     F1 1500   1.447   2.691   1.838  0.5834  0.4119  0.1777
  112fsi     S1 1501   1.600   2.687   1.820  0.5135  0.2525  0.0989
  112fsi      N 1502   1.631   2.805   1.722  0.0459 -0.0950 -0.8707
  112fsi     O1 1503   1.648   2.695   1.957 -0.0550  0.2704  0.2009
  112fsi     O2 1504   1.615   2.559   1.764 -0.2741  0.1240 -0.6162
  112fsi     S2 1505   1.647   2.958   1.756  0.1287 -0.0852 -0.1034
  112fsi     O3 1506   1.676   3.042   1.640  0.1587 -0.6255  0.3926
  112fsi     O4 1507   1.707   2.995   1.885 -0.0454  0.6757  0.5194
  112fsi     F2 1508   1.495   2.992   1.786  0.3422  0.5641  0.2711
  113fsi     F1 1509   1.174   2.711   0.797 -0.1521 -0.0360 -0.7173
  113fsi     S1 1510   1.241   2.592   0.877 -0.1379 -0.3725 -0.1816
  113fsi      N 1511   1.391   2.616   0.842 -0.5898 -0.7968  0.8407
  113fsi     O1 1512   1.200   2.613   1.011 -0.1965 -0.1263  0.1443
  113fsi     O2 1513   1.179   2.481   0.814 -0.1522 -0.4315 -0.4936
  113fsi     S2 1514   1.516   2.555   0.912 -0.0898  0.0543  0.0028
  113fsi     O3 1515   1.617   2.514   0.826  0.1365 -0.5328  0.9823
  113fsi     O4 1516   1.486   2.462   1.013 -0.1091 -0.3749  0.1694
  113fsi     F2 1517   1.577   2.678   0.986  0.7987 -0.4441  0.0972
  114fsi     F1 1518   1.044   0.976   1.905 -0.6772  0.0479  0.3556
  114fsi     S1 1519   1.193   0.957   1.838 -0.0406  0.0944  0.1263
  114fsi      N 1520   1.178   0.983   1.681 -1.0043  0.4834  0.3421
  114fsi     O1 1521   1.261   1.059   1.911 -0.7931  0.5862 -0.7372
  114fsi     O2 1522   1.233   0.826   1.872  0.4860 -0.0829  0.4907
  114fsi     S2 1523   1.213   1.114   1.603 -0.2022 -0.1365  0.1530
  114fsi     O3 1524   1.219   1.238   1.673  0.5899 -0.0500 -0.0154
  114fsi     O4 1525   1.154   1.109   1.473 -0.1892  0.6056 -0.4349
  114fsi     F2 1526   1.368   1.091   1.579 -0.1568  0.6898  0.2339
  115fsi     F1 1527   2.915   2.349   0.891 -0.4193  0.2154  0.3737
  115fsi     S1 1528   2.918   2.214   0.974  0.2254  0.0122 -0.2389
  115fsi      N 1529   2.804   2.132   0.917 -0.3819 -0.9200 -0.7347
  115fsi     O1 1530   3.051   2.162   0.954  0.5405 -0.4257  0.3500
  115fsi     O2 1531   2.894   2.262   1.112 -0.0165  0.2367 -0.2052
  115fsi     S2 1532   2.800   2.029   0.797  0.3228 -0.4651 -0.3376
  115fsi     O3 1533   2.895   2.056   0.693  0.2369 -0.1403  0.0703
  115fsi     O4 1534   2.662   2.016   0.757  0.4449  0.1683  0.4158
  115fsi     F2 1535   2.839   1.885   0.860  0.0582  0.1249  0.2784
  116fsi     F1 1536   2.681   2.391   1.611  0.6458  0.2193 -0.5360
  116fsi     S1 1537   2.682   2.249   1.542  0.1194 -0.0158 -0.2686
  116fsi      N 1538   2.743   2.166   1.658  0.0122  0.4103 -0.2138
  116fsi     O1 1539   2.546   2.221   1.515 -0.3790 -0.5206  0.7488
  116fsi     O2 1540   2.762   2.274   1.428 -0.1017 -0.1770  0.8676
  116fsi     S2 1541   2.890   2.107   1.672  0.0323  0.4530 -0.0328
  116fsi     O3 1542   2.955   2.142   1.793 -1.0719  0.0074  0.0645
  116fsi     O4 1543   2.976   2.104   1.555 -0.0079 -0.7658  0.7961
  116fsi     F2 1544   2.850   1.954   1.695  0.0873 -0.9005 -0.2475
  117fsi     F1 1545   3.017   2.050   2.446  0.0646  0.3222  0.2891
  117fsi     S1 1546   2.920   2.108   2.561 -0.2268 -0.2095 -0.1463
  117fsi      N 1547   2.802   1.998   2.581 -0.6481 -0.9447  0.4294
  117fsi     O1 1548   3.011   2.117   2.672 -0.4231  0.2795 -0.2167
  117fsi     O2 1549   2.867   2.226   2.498 -0.5637  0.0189  0.0028
  117fsi     S2 1550   2.663   2.025   2.636  0.5930  0.2856  0.4590
  117fsi     O3 1551   2.569   1.925   2.602  0.1380  0.0479 -0.6024
  117fsi     O4 1552   2.611   2.162   2.623  0.3711  0.0555  0.3413
  117fsi     F2 1553   2.678   2.007   2.787 -0.3747 -0.0230  0.1148
  118fsi     F1 1554   2.385   1.870   1.188  0.2887 -0.2019  0.0556
  118fsi     S1 1555   2.336   1.841   1.040  0.6359  0.0669  0.0648
  118fsi      N 1556   2.184   1.890   1.030  0.0888 -0.5854 -0.3111
  118fsi     O1 1557   2.425   1.919   0.955  0.0947 -0.3232  0.1889
  118fsi     O2 1558   2.332   1.701   1.029 -0.4326  0.3142 -0.6603
  118fsi     S2 1559   2.132   2.005   0.929 -0.0548 -0.6571  0.7013
  118fsi     O3 1560   1.991   1.998   0.912  0.2871  0.3648 -0.1541
  118fsi     O4 1561   2.211   2.019   0.810 -0.3134 -0.5160  0.0359
  118fsi     F2 1562   2.150   2.137   1.004  0.0415  0.1231 -0.1054
  119fsi     F1 1563   1.616   1.413   1.600  0.8140 -0.9869  0.4503
  119fsi     S1 1564   1.559   1.439   1.740 -0.2862  0.0801 -0.3184
  119fsi      N 1565   1.686   1.466   1.830  0.0147  0.2161 -0.2323
  119fsi     O1 1566   1.470   1.550   1.724 -0.3021  0.2093  0.1297
  119fsi     O2 1567   1.493   1.316   1.766  0.5869 -0.0473 -0.5585
  119fsi     S2 1568   1.747   1.607   1.866 -0.0261 -0.2192 -0.2814
  119fsi     O3 1569   1.795   1.677   1.752  0.1485  0.2392  0.7059
  119fsi     O4 1570   1.835   1.602   1.979 -0.0179  0.0469 -0.1472
  119fsi     F2 1571   1.621   1.686   1.914 -0.0138 -0.0891 -0.1310
  120fsi     F1 1572   1.810   2.201   3.020  0.7264  0.0084  0.4864
  120fsi     S1 1573   1.708   2.077   3.023 -0.0501  0.4471  0.3174
  120fsi      N 1574   1.605   2.136   3.125 -0.3952 -0.3241  0.2347
  120fsi     O1 1575   1.668   2.062   2.883  0.4998  0.3237  0.3553
  120fsi     O2 1576   1.775   1.964   3.089 -0.3703  0.4703  0.6493
  120fsi     S2 1577   1.461   2.197   3.099 -0.3610  0.3062 -0.1956
  120fsi     O3 1578   1.416   2.198   2.958 -0.3863 -0.2869 -0.4962
  120fsi     O4 1579   1.442   2.308   3.187  0.3577  0.3467  0.6674
  120fsi     F2 1580   1.367   2.085   3.163 -0.7688  0.2270 -0.5789
  121fsi     F1 1581   0.874   2.239   1.773  0.4785  0.0779 -0.1771
  121fsi     S1 1582   0.903   2.170   1.633 -0.3414  0.1630 -0.0209
  121fsi      N 1583   0.802   2.051   1.645  0.2953  0.4162 -0.6428
  121fsi     O1 1584   0.869   2.265   1.535 -0.6176 -0.0888 -0.9730
  121fsi     O2 1585   1.038   2.119   1.641 -0.5410 -0.0707  0.0614
  121fsi     S2 1586   0.658   2.026   1.585  0.1296  0.1753  0.2877
  121fsi     O3 1587   0.574   2.142   1.567  0.1187 -0.0107  0.0652
  121fsi     O4 1588   0.594   1.915   1.652  0.2845 -0.1197 -0.1606
  121fsi     F2 1589   0.683   1.966   1.434  0.3560  0.2701 -0.3844
  122fsi     F1 1590   1.309   1.283   0.660 -0.2995 -0.5479  0.5207
  122fsi     S1 1591   1.387   1.150   0.664 -0.5561  0.3680  0.1588
  122fsi      N 1592   1.272   1.049   0.670 -0.6270 -0.3062  0.2559
  122fsi     O1 1593   1.458   1.154   0.539  0.3359  0.2503  0.7615
  122fsi     O2 1594   1.471   1.155   0.778  0.1587  0.2772  0.6147
  122fsi     S2 1595   1.179   0.995   0.556 -0.2454  0.6131  0.0529
  122fsi     O3 1596   1.184   1.063   0.429 -0.2493 -0.4819  0.1885
  122fsi     O4 1597   1.044   0.965   0.596  0.1480 -0.1737 -0.3344
  122fsi     F2 1598   1.228   0.846   0.534 -0.4795  0.1228  0.1842
  123fsi     F1 1599   2.190   2.861   0.679 -0.0757  0.4268 -0.9032
  123fsi     S1 1600   2.163   2.730   0.610 -0.1071  0.1905 -0.2210
  123fsi      N 1601   2.009   2.723   0.590  0.0578  0.3321 -0.0512
  123fsi     O1 1602   2.248   2.735   0.496  0.3558  0.0639 -0.4356
  123fsi     O2 1603   2.203   2.639   0.713  0.2216  0.4132  0.1533
  123fsi     S2 1604   1.942   2.724   0.452  0.6403 -0.1653 -0.3791
  123fsi     O3 1605   1.990   2.621   0.371  0.1752 -0.1150  1.0533
  123fsi     O4 1606   1.907   2.854   0.404  0.0340 -0.3873  0.3536
  123fsi     F2 1607   1.802   2.670   0.490  0.6950 -0.2649 -0.2431
  124fsi     F1 1608   3.066   1.715   0.725 -0.5189 -0.1764 -0.2463
  124fsi     S1 1609   3.136   1.619   0.829  0.2528 -0.1223  0.1185
  124fsi      N 1610   3.161   1.716   0.951 -0.4459  0.4854  0.2157
  124fsi     O1 1611   3.042   1.515   0.853 -0.1665  0.5979  0.1441
  124fsi     O2 1612   3.253   1.571   0.764  0.1371 -0.1875 -0.7844
  124fsi     S2 1613   3.111   1.704   1.096  0.6790  0.2187 -0.0655
  124fsi     O3 1614   2.977   1.661   1.104  0.5108  0.4402  0.3728
  124fsi     O4 1615   3.148   1.819   1.178 -0.5627  0.1448  0.2434
  124fsi     F2 1616   3.203   1.589   1.163  0.3055  0.3447  0.0611
  125fsi     F1 1617   2.910   0.173   1.014  0.0195  0.3059  0.4928
  125fsi     S1 1618   2.775   0.126   1.083 -0.0433 -0.0859 -0.1441
  125fsi      N 1619   2.788   0.174   1.232  0.7834 -0.5306 -0.0039
  125fsi     O1 1620   2.673   0.184   1.008 -0.5619  0.0639 -0.5351
  125fsi     O2 1621   2.782  -0.018   1.072 -0.5042 -0.2374  0.2719
  125fsi     S2 1622   2.723   0.298   1.306  0.1164  0.2178  0.2164
  125fsi     O3 1623   2.699   0.277   1.447  0.6748 -0.2276  0.1768
  125fsi     O4 1624   2.622   0.376   1.228 -0.3747 -0.0717 -0.1442
  125fsi     F2 1625   2.844   0.394   1.316  0.2482 -0.3264  0.1722
  126fsi     F1 1626   2.353   0.789   2.843 -0.2422 -0.3491 -0.0661
  126fsi     S1 1627   2.198   0.758   2.863 -0.0440 -0.1595 -0.0435
  126fsi      N 1628   2.194   0.738   3.020  0.0139  1.1715 -0.0571
  126fsi     O1 1629   2.128   0.875   2.815  0.1553  0.4538 -0.1302
  126fsi     O2 1630   2.170   0.636   2.796 -0.4059 -0.4199  0.1016
  126fsi     S2 1631   2.189   0.843   3.139  0.0748  0.2939 -0.4070
  126fsi     O3 1632   2.111   0.800   3.252  0.0198 -0.0188  0.5891
  126fsi     O4 1633   2.178   0.981   3.105  0.0582  0.2039 -0.3957
  126fsi     F2 1634   2.331   0.824   3.192 -0.1498  0.0521 -0.5372
  127fsi     F1 1635   0.079   1.945   2.161 -0.3524  0.1182 -0.1574
  127fsi     S1 1636   0.088   1.838   2.046  0.1531  0.1521 -0.1511
  127fsi      N 1637   0.122   1.915   1.910 -0.2623 -0.0756 -0.2907
  127fsi     O1 1638   0.185   1.747   2.096 -0.3436 -0.1025  0.0499
  127fsi     O2 1639  -0.043   1.784   2.034  0.4979  0.5141  0.5946
  127fsi     S2 1640   0.257   1.926   1.829  0.0521 -0.2102 -0.1433
  127fsi     O3 1641   0.378   1.916   1.910  0.4316  0.1163 -0.4438
  127fsi     O4 1642   0.254   2.045   1.746 -0.4554 -0.2260  0.2845
  127fsi     F2 1643   0.252   1.799   1.744 -0.1155  0.1526 -0.1310
  128fsi     F1 1644   2.989   1.351   3.013  0.4117 -0.4895 -0.0381
  128fsi     S1 1645   2.953   1.495   3.053  0.2534  0.0492  0.3811
  128fsi      N 1646   2.856   1.534   2.936 -0.5691 -0.4689 -0.9143
  128fsi     O1 1647   2.895   1.488   3.183 -0.3771 -0.0788 -0.0277
  128fsi     O2 1648   3.082   1.555   3.046 -0.1644  0.2214 -0.6927
  128fsi     S2 1649   2.841   1.674   2.865  0.3632  0.1208 -0.3230
  128fsi     O3 1650   2.893   1.782   2.947  0.0014  0.1723  0.3531
  128fsi     O4 1651   2.712   1.687   2.800 -0.3092  0.1941  0.2033
  128fsi     F2 1652   2.935   1.662   2.738  0.1584  0.4593 -0.2027
  129fsi     F1 1653   0.071   0.946   2.438  0.1658  0.0094  0.5512
  129fsi     S1 1654   0.147   1.003   2.297 -0.0431  0.1146 -0.3143
  129fsi      N 1655   0.296   1.023   2.342  0.0233 -0.3590 -0.0388
  129fsi     O1 1656   0.138   0.891   2.206  0.1209  0.7924 -0.2891
  129fsi     O2 1657   0.078   1.124   2.257 -0.6211 -0.4118 -0.0033
  129fsi     S2 1658   0.368   1.159   2.391 -0.1080  0.1998 -0.3336
  129fsi     O3 1659   0.477   1.132   2.481  0.6868 -0.6716 -0.0494
  129fsi     O4 1660   0.277   1.261   2.431 -0.3377  0.6967 -0.3525
  129fsi     F2 1661   0.433   1.211   2.263  0.3567 -0.3441 -0.4251
  130fsi     F1 1662   0.484   2.952   0.699 -0.3199  0.4441  0.5260
  130fsi     S1 1663   0.339   2.988   0.753  0.3261 -0.2144 -0.3536
  130fsi      N 1664   0.346   2.933   0.906  0.0156  0.2158  0.1102
  130fsi     O1 1665   0.344   3.133   0.747  0.6332  0.0734  0.1175
  130fsi     O2 1666   0.253   2.912   0.664 -0.4626 -0.0247  0.3356
  130fsi     S2 1667   0.367   3.010   1.047 -0.0589  0.1254  0.3898
  130fsi     O3 1668   0.389   3.151   1.044 -0.2854 -0.4476 -0.2181
  130fsi     O4 1669   0.445   2.926   1.133  0.6390  0.3175 -0.0355
  130fsi     F2 1670   0.221   3.013   1.110  0.3142  0.0650 -0.0824
  131fsi     F1 1671   3.051   0.779   3.000 -0.4873 -0.3849 -0.0965
  131fsi     S1 1672   3.117   0.887   3.093  0.2991 -0.1562 -0.4511
  131fsi      N 1673   3.110   0.820   3.241  0.2975 -0.4379  0.7267
  131fsi     O1 1674   3.252   0.895   3.035 -1.3417 -0.1295  0.0164
  131fsi     O2 1675   3.038   1.002   3.086 -0.2628 -0.1398 -0.1301
  131fsi     S2 1676   3.190   0.700   3.303  0.6990 -0.0400  0.1797
  131fsi     O3 1677   3.217   0.717   3.440 -0.3556 -0.5474  0.6207
  131fsi     O4 1678   3.295   0.648   3.219 -0.1298  0.4664 -0.1055
  131fsi     F2 1679   3.081   0.593   3.302 -0.0465  0.3246 -0.3679
  132fsi     F1 1680   0.551   2.094   0.061  0.4058 -0.1312 -0.2350
  132fsi     S1 1681   0.494   2.181   0.177 -0.1304 -0.2464 -0.2906
  132fsi      N 1682   0.378   2.265   0.114  0.6040 -0.0982 -0.3784
  132fsi     O1 1683   0.449   2.087   0.276 -0.4313  0.2377  0.6137
  132fsi     O2 1684   0.610   2.260   0.209  0.9141 -1.0034 -0.6185
  132fsi     S2 1685   0.231   2.226   0.078 -0.3613  0.0300 -0.1669
  132fsi     O3 1686   0.190   2.099   0.131  0.2757  0.3958 -0.5339
  132fsi     O4 1687   0.197   2.253  -0.060 -0.1756 -0.0211 -0.2928
  132fsi     F2 1688   0.147   2.334   0.155 -0.2192 -0.2548 -0.2398
  133fsi     F1 1689   0.443   2.202   2.867 -0.1201 -0.1966  0.3618
  133fsi     S1 1690   0.391   2.089   2.775  0.1726 -0.1679  0.5397
  133fsi      N 1691   0.354   1.981   2.885 -0.3414  0.2198  0.7058
  133fsi     O1 1692   0.274   2.137   2.707 -0.0502 -0.4388  0.1164
  133fsi     O2 1693   0.506   2.044   2.701 -0.0703 -0.5128 -0.7817
  133fsi     S2 1694   0.219   1.894   2.914  0.2927  0.0495  0.0555
  133fsi     O3 1695   0.100   1.943   2.852 -0.5764  0.5908  0.1457
  133fsi     O4 1696   0.213   1.855   3.054 -0.0010  0.6238  0.6887
  133fsi     F2 1697   0.235   1.756   2.838  0.2944  0.3366 -0.3646
  134fsi     F1 1698   1.990   1.459   2.586 -0.7523 -0.6862 -1.1178
  134fsi     S1 1699   2.059   1.382   2.471 -0.2712 -0.2175 -0.1404
  134fsi      N 1700   2.177   1.481   2.433 -0.1524  0.7284 -0.0479
  134fsi     O1 1701   2.103   1.267   2.540  0.5296  0.4300  0.1400
  134fsi     O2 1702   1.955   1.361   2.377 -0.1119  0.2345  0.1771
  134fsi     S2 1703   2.201   1.565   2.302 -0.1055 -0.2220 -0.1511
  134fsi     O3 1704   2.090   1.566   2.208  1.4262  0.3954  0.0342
  134fsi     O4 1705   2.334   1.549   2.242 -0.5048 -0.6599 -0.6823
  134fsi     F2 1706   2.207   1.717   2.353  0.1787 -0.4879 -0.5055
  135fsi     F1 1707   3.068   0.147   1.805 -0.5148  0.4194  0.2292
  135fsi     S1 1708   2.942   0.224   1.863 -0.1475  0.0225 -0.3774
  135fsi      N 1709   3.015   0.346   1.919 -0.0868  0.2359 -0.4159
  135fsi     O1 1710   2.869   0.249   1.740  0.1925  0.6526  0.2710
  135fsi     O2 1711   2.885   0.135   1.962  0.5092 -0.1330  0.2861
  135fsi     S2 1712   3.052   0.375   2.066 -0.4622  0.2112 -0.2199
  135fsi     O3 1713   3.133   0.494   2.089  0.4724 -0.1044  0.1897
  135fsi     O4 1714   3.085   0.258   2.145 -0.3472 -0.4202 -0.1934
  135fsi     F2 1715   2.914   0.411   2.127 -0.1000 -0.2894 -0.3791
  136fsi     F1 1716   2.594   1.504   2.168  0.5062  0.0357  0.2019
  136fsi     S1 1717   2.622   1.399   2.059  0.1130  0.3325  0.4550
  136fsi      N 1718   2.549   1.461   1.934  0.3929  0.2725 -0.1319
  136fsi     O1 1719   2.766   1.401   2.048 -0.2885  0.3188  0.3205
  136fsi     O2 1720   2.561   1.275   2.110 -0.1466 -0.3494  0.3923
  136fsi     S2 1721   2.407   1.426   1.872 -0.4532  0.3609 -0.0832
  136fsi     O3 1722   2.307   1.385   1.970  0.1581  0.3167 -0.2484
  136fsi     O4 1723   2.411   1.356   1.748 -0.1106  0.3488  0.1355
  136fsi     F2 1724   2.357   1.573   1.832 -0.4969  0.6351  0.6642
  137fsi     F1 1725   2.023   2.828   1.430 -0.1842 -0.4016  0.3790
  137fsi     S1 1726   1.986   2.916   1.307 -0.2908  0.3698  0.3163
  137fsi      N 1727   2.060   2.845   1.190 -0.0578  0.7176 -0.2068
  137fsi     O1 1728   1.843   2.913   1.309  0.2077 -0.0105  0.2083
  137fsi     O2 1729   2.044   3.047   1.338  0.1009 -0.0344  0.4219
  137fsi     S2 1730   2.153   2.894   1.074 -0.5151 -0.4486  0.1147
  137fsi     O3 1731   2.108   3.016   1.005 -0.2384  0.4634  0.5450
  137fsi     O4 1732   2.195   2.787   0.989 -0.3614 -0.4362 -0.6488
  137fsi     F2 1733   2.279   2.934   1.161  0.1298 -0.7756 -0.2445
  138fsi     F1 1734   1.990   0.662   2.245  0.1107 -0.2364 -0.1218
  138fsi     S1 1735   2.015   0.501   2.238  0.4969  0.4904 -0.1226
  138fsi      N 1736   2.063   0.458   2.382 -0.6966 -0.4781 -0.4100
  138fsi     O1 1737   1.883   0.451   2.204 -0.2369  0.0965  0.0656
  138fsi     O2 1738   2.120   0.504   2.134 -0.0146  0.6588 -0.1226
  138fsi     S2 1739   1.980   0.377   2.487  0.0907  0.1057  0.2321
  138fsi     O3 1740   1.838   0.389   2.493 -0.4165 -0.3782 -0.4907
  138fsi     O4 1741   2.040   0.372   2.621  1.0457  0.4877  0.7485
  138fsi     F2 1742   1.996   0.221   2.444 -0.6919  0.2588  0.0318
  139fsi     F1 1743   2.179   0.861   2.011  0.4039 -0.0999  0.4554
  139fsi     S1 1744   2.203   1.003   1.945 -0.3156  0.1956  0.3354
  139fsi      N 1745   2.064   1.083   1.981 -0.0190 -0.1832  0.4245
  139fsi     O1 1746   2.320   1.053   2.009  0.0431 -0.2765  0.6135
  139fsi     O2 1747   2.212   0.983   1.805 -0.0657  0.1927  0.2315
  139fsi     S2 1748   2.018   1.166   2.103 -0.2129 -0.0668 -0.6241
  139fsi     O3 1749   1.922   1.275   2.076  1.2607  0.2531 -0.0128
  139fsi     O4 1750   2.126   1.196   2.193 -0.1661  0.1293 -0.8657
  139fsi     F2 1751   1.931   1.058   2.175  0.1432 -0.1411 -0.0446
  140fsi     F1 1752   0.735   1.363   2.311 -0.1318  0.2186  0.4083
  140fsi     S1 1753   0.778   1.438   2.439  0.1589 -0.4002  0.0405
  140fsi      N 1754   0.636   1.465   2.497 -0.0137 -0.6170  0.6351
  140fsi     O1 1755   0.857   1.355   2.520 -0.0842  0.3674  0.1510
  140fsi     O2 1756   0.849   1.554   2.394  0.1894 -0.6287 -0.4060
  140fsi     S2 1757   0.539   1.591   2.472 -0.0291  0.1101  0.1045
  140fsi     O3 1758   0.558   1.656   2.347 -0.2121 -0.2393  0.2101
  140fsi     O4 1759   0.515   1.667   2.592  0.3354 -0.8793  0.4577
  140fsi     F2 1760   0.404   1.522   2.448  0.0896 -0.2991 -0.7669
  141fsi     F1 1761   2.535   2.536   2.122 -0.0411 -0.6656 -0.7634
  141fsi     S1 1762   2.472   2.549   2.260 -0.0137 -0.3532 -0.1816
  141fsi      N 1763   2.369   2.431   2.248  0.4319  0.8135  0.5413
  141fsi     O1 1764   2.586   2.526   2.343 -0.6223  0.5760 -0.1390
  141fsi     O2 1765   2.406   2.674   2.269  0.0794  0.2692  0.2199
  141fsi     S2 1766   2.377   2.277   2.295 -0.1771 -0.1857  0.2792
  141fsi     O3 1767   2.503   2.258   2.359 -0.0612  0.2512  0.3782
  141fsi     O4 1768   2.326   2.183   2.195 -0.2591  1.2012  0.9693
  141fsi     F2 1769   2.269   2.264   2.414  0.2266 -0.0632  0.4145
  142fsi     F1 1770   2.678   2.546   1.049  0.3628 -0.2706  0.4635
  142fsi     S1 1771   2.565   2.610   1.143 -0.3321 -0.1791 -0.1731
  142fsi      N 1772   2.432   2.557   1.077 -0.2792  0.5208  0.3302
  142fsi     O1 1773   2.587   2.562   1.275 -0.0732  0.1016 -0.4270
  142fsi     O2 1774   2.591   2.752   1.127  0.2577  0.1427 -0.0903
  142fsi     S2 1775   2.346   2.423   1.110  0.0958 -0.0219  0.2543
  142fsi     O3 1776   2.423   2.314   1.158  0.5406 -0.1869 -0.2903
  142fsi     O4 1777   2.259   2.393   0.999  0.6195  0.2776 -0.1923
  142fsi     F2 1778   2.240   2.468   1.223  0.1558 -0.0060  0.0025
  143fsi     F1 1779   2.177   2.262   0.102 -0.0917  0.5280 -0.0633
  143fsi     S1 1780   2.140   2.401   0.039  0.4562  0.3357  0.0117
  143fsi      N 1781   2.274   2.480   0.063  0.3992  0.4701 -0.0401
  143fsi     O1 1782   2.102   2.370  -0.098 -0.1503  0.0374 -0.0479
  143fsi     O2 1783   2.038   2.444   0.131 -0.3501  0.3517  0.1463
  143fsi     S2 1784   2.404   2.474  -0.028 -0.3769 -0.0495 -0.2083
  143fsi     O3 1785   2.394   2.404  -0.155  0.2861  0.5774  0.4297
  143fsi     O4 1786   2.534   2.463   0.042 -0.3446 -0.1105  0.1663
  143fsi     F2 1787   2.411   2.625  -0.076  0.1287 -0.0941  0.0448
  144fsi     F1 1788   3.021   2.434   1.551  0.5997  0.3222 -0.3418
  144fsi     S1 1789   3.172   2.411   1.511 -0.4817  0.1080  0.3024
  144fsi      N 1790   3.161   2.322   1.382  0.5597 -0.1907  0.4438
  144fsi     O1 1791   3.218   2.542   1.474 -0.1801 -0.0441 -0.5555
  144fsi     O2 1792   3.225   2.343   1.627 -0.0085  0.8741 -0.1672
  144fsi     S2 1793   3.256   2.206   1.329  0.3780  0.0376  0.4702
  144fsi     O3 1794   3.175   2.122   1.252  0.2704  0.4016 -0.3884
  144fsi     O4 1795   3.348   2.151   1.424  0.0458 -0.0901  0.1469
  144fsi     F2 1796   3.338   2.283   1.228 -0.0687 -0.0898  0.2210
  145fsi     F1 1797   0.609   2.372   1.735  0.0748 -0.7856 -0.2881
  145fsi     S1 1798   0.500   2.481   1.684 -0.4088  0.2747 -0.5399
  145fsi      N 1799   0.467   2.439   1.533 -0.4443  0.2490  0.4791
  145fsi     O1 1800   0.396   2.461   1.776  0.2680 -0.0909 -0.2752
  145fsi     O2 1801   0.574   2.597   1.697  0.1015 -0.5310  0.3259
  145fsi     S2 1802   0.536   2.491   1.404  0.0634 -0.1276 -0.2774
  145fsi     O3 1803   0.671   2.533   1.426 -0.5676  0.1146  1.0534
  145fsi     O4 1804   0.451   2.562   1.313  0.0108 -0.1588  0.3085
  145fsi     F2 1805   0.557   2.361   1.315 -0.1441 -0.0665  0.3961
  146fsi     F1 1806   2.383   2.031   0.376  0.2767  0.0947  0.0129
  146fsi     S1 1807   2.361   1.911   0.465  0.2926  0.0722  0.1045
  146fsi      N 1808   2.438   1.800   0.381  0.0797 -0.4872  0.0569
  146fsi     O1 1809   2.428   1.939   0.589  0.2539  0.2699 -0.0021
  146fsi     O2 1810   2.218   1.894   0.464 -0.3780  0.1059 -0.1081
  146fsi     S2 1811   2.388   1.710   0.263 -0.1734  0.3703 -0.0791
  146fsi     O3 1812   2.497   1.686   0.169  0.4888 -0.4978 -0.1258
  146fsi     O4 1813   2.258   1.745   0.209  0.0632 -0.2543  0.0294
  146fsi     F2 1814   2.368   1.564   0.322 -0.2783 -0.4145 -0.4099
  147fsi     F1 1815   0.966   0.570   0.562  0.3795 -0.0598 -0.0767
  147fsi     S1 1816   0.995   0.470   0.679 -0.0639 -0.1743 -0.3298
  147fsi      N 1817   1.094   0.374   0.602  0.2057 -0.2352 -0.6700
  147fsi     O1 1818   1.056   0.556   0.773  0.4341  0.2994 -0.5828
  147fsi     O2 1819   0.866   0.413   0.703  0.1955  0.2057 -0.2305
  147fsi     S2 1820   1.252   0.372   0.593 -0.2095 -0.3260 -0.4154
  147fsi     O3 1821   1.306   0.511   0.602 -0.1558 -0.2230 -0.2520
  147fsi     O4 1822   1.312   0.280   0.496 -0.4064 -0.6245  0.2585
  147fsi     F2 1823   1.288   0.319   0.736 -0.0291  0.0759 -0.1375
  148fsi     F1 1824   0.540   2.542   0.034  0.2112 -0.3462  0.1161
  148fsi     S1 1825   0.596   2.649   0.129 -0.0082  0.2004  0.0711
  148fsi      N 1826   0.471   2.707   0.196  0.1462 -0.6324  0.4265
  148fsi     O1 1827   0.685   2.583   0.223 -0.7397  0.2958 -0.0198
  148fsi     O2 1828   0.650   2.746   0.033 -0.1818  0.1460  0.1547
  148fsi     S2 1829   0.414   2.673   0.336 -0.1703  0.2607 -0.1298
  148fsi     O3 1830   0.458   2.540   0.386  0.0410 -0.3136  0.3231
  148fsi     O4 1831   0.275   2.698   0.347 -0.3201  0.5399  0.1912
  148fsi     F2 1832   0.479   2.783   0.429  0.5192 -0.5156  0.5465
  149fsi     F1 1833   0.167   0.858   0.674  0.0238 -0.2961 -0.4352
  149fsi     S1 1834   0.082   0.928   0.785 -0.2407  0.0067  0.2992
  149fsi      N 1835   0.169   1.055   0.809 -0.0711  0.2420  0.1772
  149fsi     O1 1836  -0.047   0.939   0.726 -0.5942  0.5405 -0.0410
  149fsi     O2 1837   0.085   0.843   0.896 -0.4551 -0.3566  0.2028
  149fsi     S2 1838   0.126   1.207   0.798  0.1993  0.0785  0.2753
  149fsi     O3 1839   0.039   1.242   0.691  0.2466 -0.1159 -0.3022
  149fsi     O4 1840   0.240   1.290   0.819 -0.1997 -0.0080  0.8516
  149fsi     F2 1841   0.035   1.231   0.924 -0.2938  0.0931  0.1580
  150fsi     F1 1842   2.191   1.130   0.562  0.1514 -0.6407  0.7728
  150fsi     S1 1843   2.146   1.139   0.409  0.2864 -0.1576 -0.2378
  150fsi      N 1844   1.996   1.165   0.423  0.1444  0.2594  0.5390
  150fsi     O1 1845   2.225   1.249   0.364  0.6273  0.8099 -1.0119
  150fsi     O2 1846   2.180   1.008   0.357 -0.3491  0.2077 -0.2260
  150fsi     S2 1847   1.877   1.065   0.428  0.3626  0.0377 -0.2848
  150fsi     O3 1848   1.911   0.924   0.421  0.5019 -0.5939 -1.5172
  150fsi     O4 1849   1.771   1.122   0.344 -0.5223  0.6422 -0.3342
  150fsi     F2 1850   1.829   1.083   0.573 -0.1691  0.3135  0.0237
  151fsi     F1 1851   0.065   0.183   0.378 -0.2553 -0.0464 -0.7366
  151fsi     S1 1852   0.037   0.046   0.458  0.1682  0.0484  0.1339
  151fsi      N 1853   0.051   0.080   0.606 -0.2854  0.0509  0.1250
  151fsi     O1 1854  -0.097   0.020   0.418 -0.5599  0.2186  0.1862
  151fsi     O2 1855   0.136  -0.043   0.406  0.7335  0.0201 -0.1623
  151fsi     S2 1856  -0.037   0.012   0.723  0.0511 -0.1194 -0.3939
  151fsi     O3 1857   0.015   0.044   0.851 -0.2162 -0.6746  0.0260
  151fsi     O4 1858  -0.064  -0.129   0.709 -0.1036  0.0455 -0.0926
  151fsi     F2 1859  -0.175   0.081   0.719  0.0396 -0.1770  0.1992
  152fsi     F1 1860   1.367   0.348   1.213  0.0047 -0.2262  0.6425
  152fsi     S1 1861   1.412   0.217   1.130 -0.2989 -0.5179 -0.0841
  152fsi      N 1862   1.541   0.165   1.215 -0.0970 -1.2794  0.9127
  152fsi     O1 1863   1.302   0.126   1.142 -0.4113 -0.7484  0.0899
  152fsi     O2 1864   1.451   0.278   1.006 -0.4593  0.3038 -0.2629
  152fsi     S2 1865   1.693   0.213   1.216  0.2152  0.3480  0.0982
  152fsi     O3 1866   1.755   0.188   1.342  0.3386 -0.5750  0.4852
  152fsi     O4 1867   1.725   0.336   1.148 -0.2060 -0.2552  0.5388
  152fsi     F2 1868   1.771   0.103   1.137  0.2082  0.0438  0.0355
  153fsi     F1 1869   1.770   2.486   2.963 -0.2607  0.0589  0.4035
  153fsi     S1 1870   1.715   2.475   2.813 -0.2312 -0.0602 -0.0836
  153fsi      N 1871   1.829   2.412   2.729  0.1656 -0.1266  0.2967
  153fsi     O1 1872   1.599   2.389   2.830  0.2716 -0.0143 -0.7443
  153fsi     O2 1873   1.692   2.610   2.781  0.6747 -0.3536 -0.3033
  153fsi     S2 1874   1.828   2.275   2.648 -0.1687 -0.3413  0.2683
  153fsi     O3 1875   1.697   2.219   2.619 -0.7267 -0.2770 -0.3432
  153fsi     O4 1876   1.940   2.188   2.673 -0.2722 -0.0802  0.1414
  153fsi     F2 1877   1.875   2.322   2.509  0.0727 -0.6319 -0.3303
  154fsi     F1 1878   0.771   1.978   2.018  0.1253 -0.1554  0.1394
  154fsi     S1 1879   0.735   1.921   2.158  0.0512  0.0845 -0.0029
  154fsi      N 1880   0.743   2.052   2.245 -0.1159 -0.3106  0.0638
  154fsi     O1 1881   0.603   1.871   2.145  1.1012  0.4477 -0.0994
  154fsi     O2 1882   0.832   1.821   2.184  0.1009  0.0164  0.0765
  154fsi     S2 1883   0.808   2.064   2.392 -0.0042  0.1425  0.2459
  154fsi     O3 1884   0.754   1.967   2.487  0.1163 -0.0736  0.6706
  154fsi     O4 1885   0.812   2.206   2.433  0.1166 -0.4582  0.4348
  154fsi     F2 1886   0.957   2.017   2.371  0.0851  0.3396  0.1438
  155fsi     F1 1887   1.564   1.634   0.320 -0.0357  0.2881 -0.2129
  155fsi     S1 1888   1.538   1.547   0.447  0.0288  0.0730 -0.3572
  155fsi      N 1889   1.614   1.631   0.556 -0.1938 -0.0162 -0.4928
  155fsi     O1 1890   1.392   1.547   0.459 -0.6522  0.2713 -0.5799
  155fsi     O2 1891   1.594   1.416   0.420 -0.3086  0.0543 -0.4439
  155fsi     S2 1892   1.559   1.761   0.628  0.1528 -0.2643  0.3837
  155fsi     O3 1893   1.473   1.836   0.537 -0.1397 -0.1030  0.2683
  155fsi     O4 1894   1.658   1.838   0.699  0.2533  0.3237 -0.3212
  155fsi     F2 1895   1.467   1.712   0.746 -0.0874  0.4745 -0.3503
  156fsi     F1 1896   0.242   0.308   0.051 -0.2471  0.2919 -0.1656
  156fsi     S1 1897   0.175   0.290  -0.088  0.1371 -0.1680 -0.0750
  156fsi      N 1898   0.153   0.433  -0.143 -0.3603  0.9836 -0.4237
  156fsi     O1 1899   0.273   0.215  -0.164 -0.0918 -0.5833 -0.0853
  156fsi     O2 1900   0.053   0.227  -0.058 -0.1766 -0.1210  0.2805
  156fsi     S2 1901   0.248   0.528  -0.231 -0.1082  0.0570 -0.0490
  156fsi     O3 1902   0.306   0.464  -0.344 -0.1378  0.1102 -0.1800
  156fsi     O4 1903   0.343   0.597  -0.146  0.1697  0.5116 -0.3351
  156fsi     F2 1904   0.145   0.636  -0.278 -0.3535  0.1792  0.0578
  157fsi     F1 1905   0.992   1.425   1.583 -0.1891 -0.1843  0.5194
  157fsi     S1 1906   1.085   1.514   1.495  0.1238 -0.5110  0.1543
  157fsi      N 1907   0.995   1.613   1.422 -0.5620 -0.0596 -0.3592
  157fsi     O1 1908   1.181   1.580   1.582  0.4470 -0.0914 -0.0673
  157fsi     O2 1909   1.135   1.419   1.399  0.2239  0.1221 -0.0636
  157fsi     S2 1910   0.945   1.747   1.486  0.2003 -0.2064 -0.2170
  157fsi     O3 1911   1.050   1.833   1.529  0.6019  0.3082  0.0738
  157fsi     O4 1912   0.838   1.724   1.576  0.1249  0.5498  0.2999
  157fsi     F2 1913   0.885   1.813   1.363 -0.7725  0.3145  0.5717
  158fsi     F1 1914   2.108   2.497   1.965 -0.1438  0.4057  0.4833
  158fsi     S1 1915   1.956   2.534   1.957  0.4554  0.3497 -0.3458
  158fsi      N 1916   1.906   2.536   2.108 -0.4446 -0.4601 -0.4169
  158fsi     O1 1917   1.952   2.664   1.892  1.0383 -0.1190  0.2120
  158fsi     O2 1918   1.904   2.427   1.873  0.0075  0.7068 -0.3004
  158fsi     S2 1919   1.905   2.646   2.215  0.1024  0.3624  0.0540
  158fsi     O3 1920   1.802   2.625   2.309 -0.1772 -1.0577  0.0035
  158fsi     O4 1921   1.923   2.780   2.163  0.7908  0.1626 -0.4176
  158fsi     F2 1922   2.039   2.610   2.289 -0.4831  0.0188  0.2230
  159fsi     F1 1923   1.180   2.562   1.677  0.0586 -0.1531  0.4359
  159fsi     S1 1924   1.064   2.617   1.772 -0.0411 -0.0548 -0.0174
  159fsi      N 1925   1.090   2.772   1.770  0.3155 -0.5637 -0.4928
  159fsi     O1 1926   0.939   2.568   1.715  0.3688 -0.2849  0.3762
  159fsi     O2 1927   1.091   2.560   1.898  0.4328 -0.3090  0.1311
  159fsi     S2 1928   1.085   2.866   1.895 -0.1939  0.1178 -0.2739
  159fsi     O3 1929   0.998   2.821   2.001  0.3654 -0.1663 -0.2915
  159fsi     O4 1930   1.069   2.999   1.854  0.6109 -0.3807 -0.0769
  159fsi     F2 1931   1.230   2.863   1.969  0.4623  0.0855  0.1329
  160fsi     F1 1932   1.213   2.138   2.508  0.3498  0.0992  0.0439
  160fsi     S1 1933   1.324   2.024   2.550  0.0295 -0.5312  0.5910
  160fsi      N 1934   1.238   1.911   2.622  0.0669 -0.0842 -0.0091
  160fsi     O1 1935   1.384   1.988   2.421  0.4898  0.3340  0.4736
  160fsi     O2 1936   1.402   2.094   2.647 -0.3800 -0.2988 -0.1879
  160fsi     S2 1937   1.160   1.783   2.573 -0.2934  0.0308 -0.1515
  160fsi     O3 1938   1.223   1.662   2.616 -0.7272 -0.1254 -0.3896
  160fsi     O4 1939   1.107   1.784   2.438 -0.5214  0.0161  0.1221
  160fsi     F2 1940   1.029   1.782   2.658  0.0540  0.6245 -0.0464
  161fsi     F1 1941   1.377   2.288   1.711  0.1109 -0.6237  0.8731
  161fsi     S1 1942   1.464   2.191   1.619  0.0048 -0.4984 -0.0733
  161fsi      N 1943   1.505   2.082   1.721  0.4837  0.2013 -0.2740
  161fsi     O1 1944   1.366   2.149   1.519 -0.3927  0.0271 -0.5771
  161fsi     O2 1945   1.564   2.277   1.574 -0.7034 -0.1521  0.1000
  161fsi     S2 1946   1.649   2.061   1.786 -0.0473 -0.0844 -0.1914
  161fsi     O3 1947   1.639   1.971   1.900 -0.1560 -0.5390 -0.7888
  161fsi     O4 1948   1.721   2.185   1.809  0.2298 -0.3283 -0.0469
  161fsi     F2 1949   1.733   1.985   1.679 -0.1123  0.3862  0.5591
  162fsi     F1 1950   2.267   0.933   0.777 -0.2283  0.4990  0.0335
  162fsi     S1 1951   2.211   0.788   0.733 -0.2235 -0.2872 -0.1261
  162fsi      N 1952   2.347   0.723   0.685 -0.7415  0.2120  0.1811
  162fsi     O1 1953   2.166   0.736   0.853  0.2945 -0.4702  0.0202
  162fsi     O2 1954   2.115   0.819   0.626  0.9088 -0.6886 -0.5290
  162fsi     S2 1955   2.392   0.687   0.536  0.3422 -0.0964  0.0353
  162fsi     O3 1956   2.292   0.691   0.430 -0.2904 -0.3421 -0.3160
  162fsi     O4 1957   2.480   0.573   0.521 -0.2577 -0.8159 -0.0786
  162fsi     F2 1958   2.481   0.806   0.492  0.4651  0.5395  0.0144
  163fsi     F1 1959   1.241   1.529   0.983  0.1380  0.0919  0.2340
  163fsi     S1 1960   1.291   1.384   1.005  0.0201  0.4070 -0.1806
  163fsi      N 1961   1.170   1.302   0.946  0.4011 -0.1951 -0.7053
  163fsi     O1 1962   1.410   1.385   0.930  0.4689  0.2579  0.3661
  163fsi     O2 1963   1.303   1.372   1.148 -0.2101  0.2621 -0.4954
  163fsi     S2 1964   1.056   1.219   1.009  0.0596  0.4343  0.2031
  163fsi     O3 1965   1.058   1.226   1.153  0.4482 -0.0999  0.5512
  163fsi     O4 1966   1.026   1.092   0.943 -0.5280 -0.2935 -0.3770
  163fsi     F2 1967   0.930   1.298   0.967 -0.4680 -0.2381  0.0205
  164fsi     F1 1968   2.933   2.457   1.839  0.1282 -0.3860 -0.0429
  164fsi     S1 1969   3.002   2.516   1.955  0.4375 -0.1725 -0.0376
  164fsi      N 1970   2.909   2.459   2.070  0.2596  0.0054 -1.0267
  164fsi     O1 1971   3.134   2.468   1.960  0.1281 -0.4189  0.3238
  164fsi     O2 1972   2.979   2.658   1.925  0.1582  0.1430  0.5916
  164fsi     S2 1973   2.927   2.333   2.159  0.1809  0.1952  0.2732
  164fsi     O3 1974   3.005   2.222   2.099  0.3348 -0.3279 -0.8579
  164fsi     O4 1975   2.800   2.295   2.213  0.3760 -0.2398 -0.2486
  164fsi     F2 1976   3.014   2.385   2.281  0.2677 -0.3089  0.5717
  165fsi     F1 1977   2.247   1.295   0.881 -0.6808 -0.0622 -0.1983
  165fsi     S1 1978   2.186   1.240   1.011 -0.2614  0.0911  0.0066
  165fsi      N 1979   2.035   1.258   0.987  0.1467  0.5204  0.3098
  165fsi     O1 1980   2.239   1.108   1.016 -0.5522  0.2780 -0.2547
  165fsi     O2 1981   2.237   1.321   1.114 -0.1703 -0.2735  0.4232
  165fsi     S2 1982   1.930   1.145   0.976 -0.0957 -0.2153 -0.0441
  165fsi     O3 1983   1.983   1.015   0.943  0.1250  0.3065 -0.7161
  165fsi     O4 1984   1.817   1.190   0.897  0.5949 -0.3190 -0.3728
  165fsi     F2 1985   1.875   1.124   1.122  0.0714  0.0926 -0.2516
  166fsi     F1 1986   2.548   2.854   0.050  0.7667 -0.1557  0.3747
  166fsi     S1 1987   2.686   2.891  -0.024  0.0809 -0.0416  0.6859
  166fsi      N 1988   2.639   2.880  -0.169 -0.0222 -0.3149  0.0066
  166fsi     O1 1989   2.729   3.023   0.013 -0.0889  0.8387  0.3006
  166fsi     O2 1990   2.771   2.778   0.009 -0.2784  0.0793  0.5790
  166fsi     S2 1991   2.676   2.959  -0.295  0.0605  0.0811  0.1255
  166fsi     O3 1992   2.653   2.884  -0.413 -0.0380  0.6176 -0.4103
  166fsi     O4 1993   2.798   3.028  -0.280 -0.3626 -0.6379 -0.4382
  166fsi     F2 1994   2.563   3.066  -0.291 -0.0894 -0.1597  0.3505
  167fsi     F1 1995   1.494   0.916   1.218 -0.5848 -0.5386  0.2257
  167fsi     S1 1996   1.450   1.063   1.187  0.4447 -0.1192  0.2467
  167fsi      N 1997   1.542   1.151   1.279  0.2470 -0.0855  0.4518
  167fsi     O1 1998   1.472   1.074   1.047 -0.0212 -0.1868  0.5490
  167fsi     O2 1999   1.312   1.068   1.225 -0.1700  0.2201  0.3851
  167fsi     S2 2000   1.630   1.277   1.253 -0.4305  0.1245 -0.2595
  167fsi     O3 2001   1.628   1.317   1.112 -0.2117  0.1889 -0.1400
  167fsi     O4 2002   1.755   1.280   1.326  0.2975 -0.3547  0.2687
  167fsi     F2 2003   1.541   1.383   1.331  0.6950 -0.1838 -0.3477
  168fsi     F1 2004   2.533   0.926   1.190 -0.0432 -0.3908  0.3965
  168fsi     S1 2005   2.417   0.847   1.258 -0.1809 -0.1132 -0.1409
  168fsi      N 2006   2.493   0.724   1.324 -0.2782 -0.3730  0.3079
  168fsi     O1 2007   2.369   0.935   1.358  0.0655  0.1237 -0.6494
  168fsi     O2 2008   2.330   0.809   1.148  0.1787  0.0989 -0.4295
  168fsi     S2 2009   2.556   0.699   1.464  0.4923  0.6722 -0.3790
  168fsi     O3 2010   2.612   0.565   1.476 -0.0357 -0.1180 -0.1083
  168fsi     O4 2011   2.483   0.748   1.576  0.4649 -0.0569 -0.4645
  168fsi     F2 2012   2.679   0.792   1.451  0.6280 -0.1053  0.3837
  169fsi     F1 2013   2.928   2.614   0.691  0.1165  0.4149  0.1000
  169fsi     S1 2014   3.019   2.541   0.589  0.1656  0.0350 -0.3106
  169fsi      N 2015   2.931   2.512   0.463 -0.1908  0.1986 -0.0090
  169fsi     O1 2016   3.126   2.639   0.569  0.2671  0.7049  0.0973
  169fsi     O2 2017   3.054   2.421   0.655  1.0703 -0.2333 -0.3136
  169fsi     S2 2018   2.913   2.596   0.334  0.0270 -0.5552  0.1516
  169fsi     O3 2019   2.957   2.730   0.341 -0.3048  0.1219 -0.3727
  169fsi     O4 2020   2.783   2.569   0.275 -0.6124  0.0319  0.2194
  169fsi     F2 2021   3.005   2.537   0.233 -0.3192 -0.3531  0.2301
  170fsi     F1 2022   2.912   2.525   2.678 -0.4087  0.1052 -0.1403
  170fsi     S1 2023   2.780   2.476   2.747 -0.0122  0.4027 -0.2041
  170fsi      N 2024   2.829   2.338   2.811 -0.4482  0.0633 -0.0198
  170fsi     O1 2025   2.737   2.571   2.843 -0.3598 -0.4220  0.9220
  170fsi     O2 2026   2.687   2.456   2.637 -0.1168  0.6791 -0.0374
  170fsi     S2 2027   2.872   2.301   2.958 -0.0484 -0.3194  0.1042
  170fsi     O3 2028   2.865   2.410   3.050 -0.0341 -0.4037 -0.2992
  170fsi     O4 2029   2.987   2.223   2.966 -0.3414  0.0788  0.3505
  170fsi     F2 2030   2.753   2.205   3.006 -0.0168  0.2342  0.0915
  171fsi     F1 2031   1.423   0.169   1.791  0.2101  0.1420 -0.5651
  171fsi     S1 2032   1.466   0.318   1.781  0.2875 -0.3228 -0.1612
  171fsi      N 2033   1.615   0.333   1.849  0.0288  0.1332  0.0541
  171fsi     O1 2034   1.469   0.357   1.644 -0.1418  0.1096 -0.1947
  171fsi     O2 2035   1.365   0.383   1.860  0.1206  0.0579  0.3389
  171fsi     S2 2036   1.761   0.338   1.794 -0.3317  0.1357  0.3835
  171fsi     O3 2037   1.775   0.272   1.670  0.4842 -0.2690  0.3331
  171fsi     O4 2038   1.864   0.308   1.893 -0.1858  0.1372 -0.3115
  171fsi     F2 2039   1.767   0.494   1.758 -0.2147 -0.0923  1.2712
  172fsi     F1 2040   0.671   1.488   1.969  0.3118  0.0193  0.1800
  172fsi     S1 2041   0.575   1.600   1.925  0.3795 -0.0236  0.1750
  172fsi      N 2042   0.482   1.532   1.824 -0.4041  1.0615  0.2631
  172fsi     O1 2043   0.504   1.640   2.041 -0.2888 -0.1582 -0.2865
  172fsi     O2 2044   0.660   1.698   1.867  0.0100  0.5188  0.5022
  172fsi     S2 2045   0.359   1.439   1.843 -0.4472  0.1126 -0.2632
  172fsi     O3 2046   0.350   1.372   1.970  0.1477  0.1648 -0.2837
  172fsi     O4 2047   0.318   1.357   1.731 -0.2853 -0.3396 -0.0277
  172fsi     F2 2048   0.243   1.546   1.845 -0.3308  0.2241  0.3207
  173fsi     F1 2049   0.488   2.215   2.016  0.1352  0.3529  0.5903
  173fsi     S1 2050   0.358   2.248   2.096  0.0953  0.0586  0.0004
  173fsi      N 2051   0.314   2.122   2.182 -0.0249 -0.1796  0.8561
  173fsi     O1 2052   0.402   2.365   2.162 -0.7206  0.6069  0.1508
  173fsi     O2 2053   0.252   2.280   1.999 -0.0992  0.2068 -0.3819
  173fsi     S2 2054   0.347   2.075   2.323 -0.0125 -0.3950  0.0796
  173fsi     O3 2055   0.459   2.155   2.377  0.1943  0.0011 -0.0558
  173fsi     O4 2056   0.355   1.934   2.324  0.0956 -0.3854  0.3971
  173fsi     F2 2057   0.219   2.112   2.404 -0.1124 -0.3102 -0.2021
  174fsi     F1 2058   0.749   0.483   1.734  0.7202  0.5294 -0.0220
  174fsi     S1 2059   0.811   0.409   1.608  0.2235  0.3820  0.0880
  174fsi      N 2060   0.953   0.475   1.588 -0.8942 -0.8034  0.2582
  174fsi     O1 2061   0.815   0.274   1.651 -0.1118 -0.5119  0.0839
  174fsi     O2 2062   0.717   0.433   1.500  0.1634 -0.3718 -0.1547
  174fsi     S2 2063   1.086   0.435   1.670  0.0634  0.2162 -0.0425
  174fsi     O3 2064   1.092   0.299   1.710  0.1769 -0.0586  0.2668
  174fsi     O4 2065   1.128   0.534   1.763 -0.3301  0.0480 -0.1671
  174fsi     F2 2066   1.189   0.442   1.561  0.1372  0.3787  0.3286
  175fsi     F1 2067   0.639   1.759   0.859  0.0224 -0.7489 -0.3471
  175fsi     S1 2068   0.539   1.732   0.981  0.0204  0.1028 -0.0342
  175fsi      N 2069   0.423   1.836   0.956 -0.0226 -0.2916  0.1213
  175fsi     O1 2070   0.489   1.594   0.958 -0.6024  0.3587  0.5377
  175fsi     O2 2071   0.626   1.764   1.091 -0.6075 -0.4759 -0.3020
  175fsi     S2 2072   0.378   1.953   1.053  0.1110  0.1176 -0.0169
  175fsi     O3 2073   0.364   1.928   1.195 -0.0650  0.0600 -0.0350
  175fsi     O4 2074   0.271   2.026   0.993  0.5559  0.0522 -0.0678
  175fsi     F2 2075   0.497   2.065   1.039  0.5940  0.3411 -0.0545
  176fsi     F1 2076   0.610   0.989   0.325  0.1274 -0.8569 -0.2150
  176fsi     S1 2077   0.591   0.947   0.176  0.0778 -0.0920  0.1182
  176fsi      N 2078   0.741   0.930   0.125 -0.7654 -0.5641 -0.4308
  176fsi     O1 2079   0.509   0.827   0.171  0.1498  0.2380  0.4233
  176fsi     O2 2080   0.519   1.059   0.119 -0.1195 -0.0267  0.2847
  176fsi     S2 2081   0.841   0.813   0.159 -0.3819  0.0321  0.3430
  176fsi     O3 2082   0.934   0.789   0.055 -0.1525 -0.2453 -0.4483
  176fsi     O4 2083   0.793   0.692   0.205  0.1699 -0.4405 -0.3481
  176fsi     F2 2084   0.938   0.858   0.279  0.1819 -0.5418 -0.4118
  177fsi     F1 2085   2.196   2.976   0.255  0.1721 -0.0739  0.1231
  177fsi     S1 2086   2.177   2.908   0.118  0.0040  0.3760  0.0641
  177fsi      N 2087   2.028   2.950   0.085 -0.1436  0.1434 -0.3636
  177fsi     O1 2088   2.279   2.963   0.033 -0.4100 -0.1095 -0.2605
  177fsi     O2 2089   2.192   2.771   0.149  0.2898 -0.0469  0.0189
  177fsi     S2 2090   1.972   3.056  -0.013  0.1951  0.1233  0.3411
  177fsi     O3 2091   2.074   3.112  -0.099  0.7791  0.1342 -0.6731
  177fsi     O4 2092   1.874   3.142   0.047 -0.1113 -0.2070 -0.2409
  177fsi     F2 2093   1.888   2.964  -0.104  0.1694  0.5803  0.5597
  178fsi     F1 2094   2.138   0.883   2.291  0.4388  0.6154  0.2818
  178fsi     S1 2095   2.193   0.883   2.439 -0.7265 -0.3141 -0.0572
  178fsi      N 2096   2.330   0.953   2.421 -0.1538 -0.0956 -0.9098
  178fsi     O1 2097   2.095   0.960   2.511 -0.2231  0.1939 -0.3321
  178fsi     O2 2098   2.204   0.745   2.481 -0.1534 -0.4686 -0.0827
  178fsi     S2 2099   2.371   1.085   2.492  0.1924 -0.1425 -0.2548
  178fsi     O3 2100   2.312   1.099   2.627 -0.7305  0.1815  0.5840
  178fsi     O4 2101   2.370   1.199   2.406  0.1786  0.8796 -0.5779
  178fsi     F2 2102   2.518   1.066   2.541  0.1537 -0.3493  0.0670
  179fsi     F1 2103   1.494   1.628   1.429  0.4137 -0.5231  0.0850
  179fsi     S1 2104   1.484   1.782   1.423 -0.4124  0.0862  0.0422
  179fsi      N 2105   1.430   1.813   1.272  0.3203  0.1120 -0.6562
  179fsi     O1 2106   1.389   1.814   1.527 -0.1793 -0.6439 -0.4361
  179fsi     O2 2107   1.619   1.827   1.443  0.4441  0.3058  0.2609
  179fsi     S2 2108   1.285   1.843   1.222  0.0210 -0.3275 -0.2019
  179fsi     O3 2109   1.281   1.830   1.081  0.0189 -0.0954  0.1851
  179fsi     O4 2110   1.219   1.952   1.285  0.5372  0.1465 -0.1426
  179fsi     F2 2111   1.207   1.714   1.264 -0.4414  0.5957 -0.4381
  180fsi     F1 2112   1.584   2.660   0.199  0.1505 -0.4799  0.2486
  180fsi     S1 2113   1.639   2.776   0.102 -0.4081  0.0552  0.2671
  180fsi      N 2114   1.549   2.902   0.141  0.3328  0.7372  0.1167
  180fsi     O1 2115   1.780   2.788   0.144  0.5264  0.1636  0.1943
  180fsi     O2 2116   1.608   2.718  -0.028 -0.8848  0.1665  0.1676
  180fsi     S2 2117   1.567   3.006   0.262 -0.0189  0.2083 -0.1049
  180fsi     O3 2118   1.704   3.024   0.302 -0.3615 -0.2140 -0.1262
  180fsi     O4 2119   1.465   2.991   0.363  0.1370  0.1352 -0.1477
  180fsi     F2 2120   1.538   3.142   0.195 -0.1892 -0.2448  0.5083
  181fsi     F1 2121   0.546   1.550   0.390 -0.3500 -0.0632  0.0804
  181fsi     S1 2122   0.454   1.621   0.494  0.0530  0.2542 -0.0288
  181fsi      N 2123   0.311   1.603   0.426  0.5823  0.3378  1.0292
  181fsi     O1 2124   0.474   1.551   0.620  0.0138  0.0057  0.1586
  181fsi     O2 2125   0.500   1.757   0.491 -0.3545  0.1625 -0.6929
  181fsi     S2 2126   0.227   1.697   0.336  0.1068  0.1349  0.0630
  181fsi     O3 2127   0.219   1.635   0.205 -0.0479  0.3422  0.1686
  181fsi     O4 2128   0.251   1.840   0.340 -0.1162  0.2293 -0.6842
  181fsi     F2 2129   0.083   1.685   0.391  0.1515 -0.8609 -0.0260
  182fsi     F1 2130   0.732   3.031   1.449  0.4627 -0.2391  0.4271
  182fsi     S1 2131   0.845   2.958   1.533  0.1628  0.1775 -0.2900
  182fsi      N 2132   0.944   2.925   1.416 -0.2203 -0.0525 -0.0245
  182fsi     O1 2133   0.907   3.069   1.601  0.3159  0.1121 -0.1860
  182fsi     O2 2134   0.781   2.851   1.604  0.0178 -0.5767  0.1891
  182fsi     S2 2135   0.911   2.818   1.305 -0.0891 -0.0418  0.0721
  182fsi     O3 2136   0.773   2.821   1.261 -0.2591 -0.0946 -0.3835
  182fsi     O4 2137   0.964   2.689   1.338 -0.1652  0.4068 -0.2052
  182fsi     F2 2138   0.991   2.870   1.185 -0.6088 -0.2476  0.0406
  183fsi     F1 2139   1.072   0.065   2.130  0.3172  0.0338 -0.3815
  183fsi     S1 2140   0.954   0.171   2.108 -0.3046  0.3259 -0.3044
  183fsi      N 2141   0.833   0.088   2.159 -0.6750 -0.1801 -0.4464
  183fsi     O1 2142   1.000   0.277   2.198  0.9966  0.4496 -0.1919
  183fsi     O2 2143   0.957   0.194   1.965  0.2716  0.2961  0.2777
  183fsi     S2 2144   0.774   0.074   2.306  0.4592 -0.5082  0.0095
  183fsi     O3 2145   0.829   0.174   2.391  0.7750 -0.1253 -0.4052
  183fsi     O4 2146   0.768  -0.059   2.359  0.5057 -0.3329 -0.5886
  183fsi     F2 2147   0.630   0.113   2.296  0.8269  0.3365  0.0476
  184fsi     F1 2148   1.288   2.938   2.629  0.3123  0.5044 -0.1755
  184fsi     S1 2149   1.302   2.782   2.591  0.0164  0.2927 -0.4690
  184fsi      N 2150   1.200   2.714   2.690  0.4109  0.4098  0.0457
  184fsi     O1 2151   1.251   2.782   2.454 -0.4542  0.5518 -0.0442
  184fsi     O2 2152   1.441   2.752   2.609  0.4648 -0.1455 -0.2368
  184fsi     S2 2153   1.226   2.607   2.806 -0.1230  0.0043 -0.2995
  184fsi     O3 2154   1.122   2.591   2.905 -0.4058  0.5524 -0.4247
  184fsi     O4 2155   1.363   2.616   2.862 -0.0251  0.2791  0.3160
  184fsi     F2 2156   1.218   2.469   2.723 -0.0041 -0.1578  0.0022
  185fsi     F1 2157   0.936   2.627   0.655  0.1020 -0.5531  0.3250
  185fsi     S1 2158   0.788   2.687   0.664 -0.3941  0.3179  0.1392
  185fsi      N 2159   0.746   2.634   0.801 -0.1708 -0.0977 -0.5613
  185fsi     O1 2160   0.805   2.828   0.657 -0.0907  0.0299  0.8277
  185fsi     O2 2161   0.717   2.619   0.554 -0.0400  0.1386 -0.1074
  185fsi     S2 2162   0.747   2.698   0.938  0.0619  0.3477  0.7103
  185fsi     O3 2163   0.701   2.611   1.038 -0.1429  0.4139 -0.3546
  185fsi     O4 2164   0.690   2.832   0.943  0.1204 -0.6440 -0.6805
  185fsi     F2 2165   0.896   2.705   0.967  0.0004 -0.7517 -0.2502
  186fsi     F1 2166   1.081   0.733   2.586  0.4282 -0.0332  0.3139
  186fsi     S1 2167   1.144   0.641   2.701 -0.0460 -0.1560 -0.0518
  186fsi      N 2168   1.095   0.492   2.662 -0.0135 -0.5423 -0.1853
  186fsi     O1 2169   1.280   0.670   2.687 -0.4088  0.2312  0.3780
  186fsi     O2 2170   1.076   0.695   2.815 -0.1392  0.3812  0.3838
  186fsi     S2 2171   1.174   0.354   2.652  0.1107 -0.3210 -0.3164
  186fsi     O3 2172   1.320   0.363   2.652 -0.2413  0.6451 -0.0497
  186fsi     O4 2173   1.117   0.266   2.555 -0.4631  0.7792 -1.5878
  186fsi     F2 2174   1.141   0.274   2.786 -0.0280 -0.0781 -0.2610
  187fsi     F1 2175   1.213   0.890   3.039  0.0532 -0.3934 -0.3516
  187fsi     S1 2176   1.360   0.897   3.107  0.4738  0.4676  0.5122
  187fsi      N 2177   1.418   1.033   3.050  0.2802  0.2625 -0.0192
  187fsi     O1 2178   1.336   0.900   3.250  0.0246 -0.2831 -0.0140
  187fsi     O2 2179   1.425   0.780   3.049 -0.4401  0.2632  0.1201
  187fsi     S2 2180   1.479   1.159   3.126  0.1448 -0.2645  0.2319
  187fsi     O3 2181   1.507   1.139   3.261  0.1645 -0.1718  0.2916
  187fsi     O4 2182   1.413   1.280   3.090  0.7989  0.2232  0.2777
  187fsi     F2 2183   1.624   1.176   3.062  0.5837 -0.4948 -0.4869
  188fsi     F1 2184   0.705   1.871   0.142  0.3290 -0.3398  0.3894
  188fsi     S1 2185   0.621   1.756   0.068  0.0436 -0.2414 -0.1779
  188fsi      N 2186   0.621   1.801  -0.087  0.2286 -0.5308 -0.0074
  188fsi     O1 2187   0.687   1.636   0.101 -0.0881 -0.3727 -0.2819
  188fsi     O2 2188   0.492   1.774   0.128  0.2551 -0.2635 -0.4904
  188fsi     S2 2189   0.750   1.789  -0.177  0.3291  0.0775 -0.4084
  188fsi     O3 2190   0.878   1.803  -0.112  0.0687 -0.3125  0.4656
  188fsi     O4 2191   0.735   1.860  -0.303  0.0964 -0.3072  0.3570
  188fsi     F2 2192   0.731   1.636  -0.218 -0.0773 -0.2797 -0.1603
  189fsi     F1 2193   1.616   1.483   2.433  0.3326 -0.1019  0.0336
  189fsi     S1 2194   1.630   1.598   2.316 -0.3449  0.0291  0.3281
  189fsi      N 2195   1.563   1.535   2.189  0.0111 -0.5500  0.1716
  189fsi     O1 2196   1.556   1.710   2.375  0.4846 -0.1912  0.0658
  189fsi     O2 2197   1.773   1.614   2.293  0.1985  0.4792  0.8929
  189fsi     S2 2198   1.414   1.547   2.147  0.1432  0.0611  0.4177
  189fsi     O3 2199   1.322   1.539   2.253  0.5217 -0.2710 -0.2295
  189fsi     O4 2200   1.385   1.468   2.030 -0.0568  0.3560 -0.0608
  189fsi     F2 2201   1.408   1.693   2.102 -0.6422 -0.4707  0.0939
  190fsi     F1 2202   2.522   2.304   0.330 -0.1773  0.2063 -0.4603
  190fsi     S1 2203   2.421   2.386   0.425  0.4143 -0.3313  0.1978
  190fsi      N 2204   2.513   2.432   0.541 -0.4870  0.2999  0.0084
  190fsi     O1 2205   2.378   2.503   0.346 -0.2688  0.1047 -0.6054
  190fsi     O2 2206   2.311   2.298   0.469  0.2036 -0.0416 -0.3073
  190fsi     S2 2207   2.525   2.389   0.687 -0.0780  0.1823 -0.2511
  190fsi     O3 2208   2.471   2.258   0.718  0.4845  0.1949 -0.5322
  190fsi     O4 2209   2.489   2.502   0.767 -0.2459  0.0590 -0.6241
  190fsi     F2 2210   2.681   2.370   0.708  0.4359  0.0132 -0.3672
  191fsi     F1 2211   2.503   0.297   2.656  0.1923 -0.0539 -0.3796
  191fsi     S1 2212   2.493   0.375   2.516  0.5267  0.4061 -0.0084
  191fsi      N 2213   2.582   0.503   2.538  0.3039 -0.1413 -0.1689
  191fsi     O1 2214   2.552   0.283   2.425  0.1280 -0.0747 -0.0378
  191fsi     O2 2215   2.352   0.403   2.501  0.5906 -0.0349  0.3767
  191fsi     S2 2216   2.571   0.615   2.645  0.2980 -0.7480 -0.2248
  191fsi     O3 2217   2.521   0.561   2.770  0.1132 -0.3799  0.4787
  191fsi     O4 2218   2.512   0.738   2.594  0.0275  0.2921 -0.1488
  191fsi     F2 2219   2.718   0.644   2.674 -0.7563 -0.2159  0.6616
  192fsi     F1 2220   0.645   0.352   2.951 -0.7768 -0.4204 -0.3655
  192fsi     S1 2221   0.791   0.395   2.910 -0.1079 -0.8820  0.5306
  192fsi      N 2222   0.796   0.377   2.752  0.2545  0.0179  0.7965
  192fsi     O1 2223   0.808   0.524   2.966 -0.2371 -0.0669 -0.6237
  192fsi     O2 2224   0.869   0.293   2.970 -0.7488 -0.0949 -0.0261
  192fsi     S2 2225   0.763   0.488   2.640  0.5258  0.1837  0.0369
  192fsi     O3 2226   0.800   0.453   2.508 -0.2504  0.2525 -0.3370
  192fsi     O4 2227   0.785   0.621   2.686  1.1366  0.6292 -0.2976
  192fsi     F2 2228   0.614   0.489   2.624  0.0802  0.0009  0.4998
  193fsi     F1 2229   2.142   2.066   1.548 -0.6567  0.5788  0.5490
  193fsi     S1 2230   2.120   2.146   1.416 -0.2653  0.1698 -0.0076
  193fsi      N 2231   2.113   2.299   1.444 -0.2529  0.6228  0.6242
  193fsi     O1 2232   2.242   2.107   1.342 -0.4493 -0.5735 -0.2340
  193fsi     O2 2233   1.999   2.089   1.354 -0.6607  0.2957 -0.2786
  193fsi     S2 2234   1.988   2.394   1.477  0.0540  0.1746  0.2190
  193fsi     O3 2235   2.022   2.516   1.548  0.1978 -0.3173 -0.0591
  193fsi     O4 2236   1.863   2.334   1.512 -0.0387 -0.1142  0.3547
  193fsi     F2 2237   1.966   2.447   1.333 -0.0403  0.3009 -0.3437
  194fsi     F1 2238   0.209   1.162   1.401  0.3406  0.4659  0.9025
  194fsi     S1 2239   0.138   1.153   1.253  0.0259 -0.3895 -0.1547
  194fsi      N 2240  -0.012   1.133   1.292 -0.0840  0.3406 -0.4043
  194fsi     O1 2241   0.162   1.285   1.202 -0.0172  0.2573  0.1256
  194fsi     O2 2242   0.200   1.044   1.185  0.2499 -0.5629 -0.1368
  194fsi     S2 2243  -0.115   1.011   1.275  0.0190  0.2062  0.3078
  194fsi     O3 2244  -0.072   0.900   1.190 -0.5482  0.2368 -0.5482
  194fsi     O4 2245  -0.248   1.059   1.254  0.0366  0.2193  0.0558
  194fsi     F2 2246  -0.123   0.951   1.418 -0.6541  0.3976 -0.0699
  195fsi     F1 2247   1.896   1.234   3.028  0.0882 -0.3894 -0.1714
  195fsi     S1 2248   1.942   1.303   2.900 -0.0792  0.2437 -0.0434
  195fsi      N 2249   1.818   1.290   2.809  0.1623 -0.1937  0.6770
  195fsi     O1 2250   1.958   1.440   2.946  0.6744  0.0215  0.2182
  195fsi     O2 2251   2.057   1.234   2.857  0.1845  0.5203  0.4293
  195fsi     S2 2252   1.771   1.170   2.715 -0.2756  0.6808 -0.1550
  195fsi     O3 2253   1.634   1.124   2.743 -0.1526 -0.1763  0.4599
  195fsi     O4 2254   1.870   1.066   2.694 -0.1440  0.1659  0.8510
  195fsi     F2 2255   1.755   1.239   2.568 -0.0826 -0.2292  0.0290
  196fsi     F1 2256   0.475   0.805   2.738 -0.0870 -0.1911 -0.0543
  196fsi     S1 2257   0.548   0.875   2.853 -0.2136 -0.1739 -0.0842
  196fsi      N 2258   0.607   1.005   2.787 -0.7101 -0.5132  0.4948
  196fsi     O1 2259   0.440   0.899   2.946 -0.6450  0.5824 -0.4964
  196fsi     O2 2260   0.647   0.784   2.901  0.1860 -0.1571 -0.0801
  196fsi     S2 2261   0.753   1.059   2.795  0.2473 -0.4850  0.3448
  196fsi     O3 2262   0.857   0.964   2.835 -0.8543  0.1113  0.3096
  196fsi     O4 2263   0.754   1.192   2.855 -0.1975  0.0952 -0.0863
  196fsi     F2 2264   0.779   1.081   2.639  0.0607  0.1805  0.1038
  197fsi     F1 2265   0.610   1.025   0.625 -0.3913  0.8137  0.0748
  197fsi     S1 2266   0.657   1.168   0.679  0.3146 -0.1600 -0.5203
  197fsi      N 2267   0.555   1.183   0.797 -0.0909  0.2471 -0.3383
  197fsi     O1 2268   0.795   1.155   0.712 -0.6684 -0.3512 -0.6543
  197fsi     O2 2269   0.622   1.242   0.565 -0.1225 -0.5980  0.4737
  197fsi     S2 2270   0.569   1.134   0.947 -0.3961 -0.5576  0.0018
  197fsi     O3 2271   0.696   1.068   0.978  0.2245  0.1849 -0.3692
  197fsi     O4 2272   0.449   1.089   1.010 -0.5872  0.5456  0.5427
  197fsi     F2 2273   0.576   1.272   1.025  0.1653  0.1597 -0.3224
  198fsi     F1 2274   2.339   0.192   1.695  0.0097 -0.4568 -0.2103
  198fsi     S1 2275   2.390   0.318   1.766 -0.1033  0.2252 -0.0500
  198fsi      N 2276   2.334   0.439   1.683  0.3583  0.0553 -0.1382
  198fsi     O1 2277   2.343   0.299   1.901 -0.3524 -0.1966  0.0349
  198fsi     O2 2278   2.530   0.297   1.751  0.3915  0.4262 -0.6326
  198fsi     S2 2279   2.197   0.514   1.696  0.0001 -0.1253  0.2361
  198fsi     O3 2280   2.207   0.652   1.652  0.2047 -0.6683  0.5532
  198fsi     O4 2281   2.132   0.493   1.822  1.1018  0.5253  0.2843
  198fsi     F2 2282   2.104   0.447   1.582 -0.2040 -0.1853 -0.4464
  199fsi     F1 2283   2.936   0.684   1.438  0.3837  0.3428  0.2601
  199fsi     S1 2284   3.035   0.639   1.564 -0.4288 -0.0040  0.2557
  199fsi      N 2285   2.972   0.730   1.678 -0.3947 -0.4814  0.5221
  199fsi     O1 2286   3.023   0.494   1.583 -0.3786 -0.2798  0.3156
  199fsi     O2 2287   3.165   0.686   1.528 -0.5986 -0.5335  0.3914
  199fsi     S2 2288   2.845   0.709   1.769  0.2967 -0.3042  0.2247
  199fsi     O3 2289   2.770   0.586   1.735  0.6324 -1.0413  0.2228
  199fsi     O4 2290   2.768   0.829   1.792 -0.1672  0.0603  0.0323
  199fsi     F2 2291   2.904   0.677   1.910 -0.1463 -0.4123 -0.3165
  200fsi     F1 2292   1.286   3.045   0.067 -0.3394  0.1791 -0.0387
  200fsi     S1 2293   1.222   3.034  -0.073  0.1070 -0.0290 -0.2701
  200fsi      N 2294   1.302   3.138  -0.155 -0.7523 -0.8486  0.1535
  200fsi     O1 2295   1.243   2.898  -0.112 -0.3011 -0.4193 -0.3490
  200fsi     O2 2296   1.087   3.078  -0.053 -0.2153  0.1558  0.4519
  200fsi     S2 2297   1.447   3.118  -0.217  0.2477  0.0540  0.3200
  200fsi     O3 2298   1.470   3.206  -0.327 -0.2943 -0.6081 -0.4182
  200fsi     O4 2299   1.496   2.986  -0.229 -0.2840  0.4099  0.3516
  200fsi     F2 2300   1.539   3.173  -0.102  0.0201 -0.5474 -0.6174
   3.08570   3.08570   3.08570
