created by fftool
 2300
    1Li      Li    1   2.200   2.205   2.534
    2Li      Li    2   0.522   2.700   2.741
    3Li      Li    3   1.998   0.665   1.073
    4Li      Li    4   1.793   0.652   0.411
    5Li      Li    5   1.946   0.346   2.738
    6Li      Li    6   1.131   0.739   1.289
    7Li      Li    7   1.529   2.743   2.930
    8Li      Li    8   1.645   2.936   0.586
    9Li      Li    9   1.011   2.036   2.090
   10Li      Li   10   2.935   2.247   2.396
   11Li      Li   11   2.681   1.414   2.143
   12Li      Li   12   2.613   1.031   2.698
   13Li      Li   13   0.885   2.838   1.741
   14Li      Li   14   1.864   0.655   1.260
   15Li      Li   15   0.797   2.834   2.133
   16Li      Li   16   1.731   2.600   2.093
   17Li      Li   17   0.373   0.956   2.060
   18Li      Li   18   2.298   2.548   2.325
   19Li      Li   19   0.350   1.777   0.833
   20Li      Li   20   2.643   0.980   0.520
   21Li      Li   21   0.696   0.695   0.532
   22Li      Li   22   2.795   2.813   2.300
   23Li      Li   23   1.743   0.853   1.322
   24Li      Li   24   2.215   2.611   2.518
   25Li      Li   25   1.175   2.173   2.036
   26Li      Li   26   2.220   0.321   0.730
   27Li      Li   27   2.078   2.802   1.290
   28Li      Li   28   0.564   1.489   0.183
   29Li      Li   29   0.969   0.779   2.160
   30Li      Li   30   2.936   1.488   0.590
   31Li      Li   31   2.563   1.330   2.309
   32Li      Li   32   0.741   1.269   0.516
   33Li      Li   33   0.446   1.170   1.778
   34Li      Li   34   0.767   2.831   2.642
   35Li      Li   35   2.780   1.990   0.775
   36Li      Li   36   2.589   0.980   2.451
   37Li      Li   37   0.994   2.929   1.105
   38Li      Li   38   0.513   2.434   0.759
   39Li      Li   39   0.950   1.294   2.936
   40Li      Li   40   0.241   0.641   0.369
   41Li      Li   41   1.542   2.781   2.385
   42Li      Li   42   2.550   1.196   2.504
   43Li      Li   43   0.436   0.776   1.426
   44Li      Li   44   1.426   2.562   1.031
   45Li      Li   45   1.904   1.946   2.044
   46Li      Li   46   2.293   2.906   0.472
   47Li      Li   47   0.582   0.607   1.463
   48Li      Li   48   0.851   0.866   1.464
   49Li      Li   49   2.076   2.606   2.239
   50Li      Li   50   2.177   2.649   1.526
   51c3c      N   51   2.550   2.792   2.648
   51c3c     C1   52   2.570   2.649   2.674
   51c3c     C2   53   2.632   2.872   2.740
   51c3c     C3   54   2.671   2.632   2.789
   51c3c     C4   55   2.711   2.778   2.831
   51c3c     C5   56   2.588   2.823   2.509
   51c3c     C6   57   2.408   2.826   2.668
   51c3c     H1   58   2.609   2.601   2.585
   51c3c     H2   59   2.476   2.603   2.702
   51c3c     H3   60   2.702   2.934   2.683
   51c3c     H4   61   2.568   2.936   2.800
   51c3c     H5   62   2.758   2.576   2.755
   51c3c     H6   63   2.626   2.579   2.872
   51c3c     H7   64   2.819   2.794   2.819
   51c3c     H8   65   2.686   2.796   2.936
   51c3c     H9   66   2.527   2.764   2.441
   51c3c    H10   67   2.573   2.929   2.489
   51c3c    H11   68   2.693   2.798   2.494
   51c3c    H12   69   2.393   2.932   2.648
   51c3c    H13   70   2.347   2.767   2.600
   51c3c     C7   71   2.368   2.795   2.812
   51c3c    H14   72   2.429   2.854   2.880
   51c3c    H15   73   2.383   2.689   2.832
   51c3c     C8   74   2.221   2.830   2.833
   51c3c    H16   75   2.159   2.771   2.765
   51c3c    H17   76   2.205   2.936   2.813
   51c3c    H18   77   2.192   2.807   2.936
   52c3c      N   78   1.695   0.348   1.066
   52c3c     C1   79   1.775   0.453   1.129
   52c3c     C2   80   1.697   0.227   1.150
   52c3c     C3   81   1.834   0.401   1.260
   52c3c     C4   82   1.783   0.253   1.274
   52c3c     C5   83   1.556   0.394   1.051
   52c3c     C6   84   1.750   0.316   0.933
   52c3c     H1   85   1.712   0.540   1.149
   52c3c     H2   86   1.856   0.482   1.062
   52c3c     H3   87   1.596   0.202   1.181
   52c3c     H4   88   1.740   0.144   1.094
   52c3c     H5   89   1.800   0.462   1.344
   52c3c     H6   90   1.943   0.405   1.258
   52c3c     H7   91   1.724   0.241   1.365
   52c3c     H8   92   1.867   0.184   1.279
   52c3c     H9   93   1.554   0.483   0.988
   52c3c    H10   94   1.496   0.315   1.004
   52c3c    H11   95   1.515   0.417   1.149
   52c3c    H12   96   1.691   0.238   0.887
   52c3c    H13   97   1.748   0.405   0.871
   52c3c     C7   98   1.895   0.268   0.949
   52c3c    H14   99   1.897   0.178   1.011
   52c3c    H15  100   1.954   0.346   0.996
   52c3c     C8  101   1.952   0.235   0.811
   52c3c    H16  102   1.950   0.324   0.749
   52c3c    H17  103   1.893   0.156   0.764
   52c3c    H18  104   2.055   0.200   0.822
   53c3c      N  105   2.764   1.284   1.073
   53c3c     C1  106   2.751   1.422   1.121
   53c3c     C2  107   2.631   1.225   1.054
   53c3c     C3  108   2.603   1.457   1.135
   53c3c     C4  109   2.524   1.328   1.091
   53c3c     C5  110   2.837   1.283   0.945
   53c3c     C6  111   2.839   1.205   1.172
   53c3c     H1  112   2.798   1.490   1.050
   53c3c     H2  113   2.800   1.432   1.218
   53c3c     H3  114   2.618   1.196   0.950
   53c3c     H4  115   2.621   1.137   1.118
   53c3c     H5  116   2.577   1.542   1.071
   53c3c     H6  117   2.579   1.484   1.238
   53c3c     H7  118   2.460   1.349   1.006
   53c3c     H8  119   2.462   1.291   1.173
   53c3c     H9  120   2.936   1.327   0.959
   53c3c    H10  121   2.847   1.181   0.909
   53c3c    H11  122   2.781   1.342   0.872
   53c3c    H12  123   2.850   1.102   1.136
   53c3c    H13  124   2.938   1.248   1.186
   53c3c     C7  125   2.764   1.205   1.305
   53c3c    H14  126   2.665   1.161   1.291
   53c3c    H15  127   2.754   1.307   1.341
   53c3c     C8  128   2.842   1.122   1.408
   53c3c    H16  129   2.941   1.166   1.421
   53c3c    H17  130   2.852   1.020   1.372
   53c3c    H18  131   2.789   1.123   1.503
   54c3c      N  132   0.358   1.295   0.546
   54c3c     C1  133   0.442   1.194   0.479
   54c3c     C2  134   0.235   1.232   0.595
   54c3c     C3  135   0.371   1.058   0.484
   54c3c     C4  136   0.236   1.083   0.560
   54c3c     C5  137   0.432   1.352   0.659
   54c3c     C6  138   0.324   1.401   0.450
   54c3c     H1  139   0.538   1.186   0.530
   54c3c     H2  140   0.458   1.222   0.375
   54c3c     H3  141   0.229   1.243   0.703
   54c3c     H4  142   0.149   1.279   0.549
   54c3c     H5  143   0.432   0.985   0.537
   54c3c     H6  144   0.353   1.021   0.383
   54c3c     H7  145   0.230   1.022   0.650
   54c3c     H8  146   0.151   1.058   0.496
   54c3c     H9  147   0.524   1.399   0.623
   54c3c    H10  148   0.371   1.427   0.709
   54c3c    H11  149   0.458   1.274   0.730
   54c3c    H12  150   0.262   1.476   0.500
   54c3c    H13  151   0.416   1.448   0.414
   54c3c     C7  152   0.247   1.341   0.333
   54c3c    H14  153   0.156   1.295   0.369
   54c3c    H15  154   0.309   1.266   0.283
   54c3c     C8  155   0.212   1.452   0.233
   54c3c    H16  156   0.303   1.499   0.197
   54c3c    H17  157   0.150   1.527   0.283
   54c3c    H18  158   0.157   1.409   0.149
   55c3c      N  159   0.835   2.471   0.665
   55c3c     C1  160   0.771   2.440   0.794
   55c3c     C2  161   0.981   2.475   0.682
   55c3c     C3  162   0.878   2.423   0.901
   55c3c     C4  163   1.016   2.446   0.828
   55c3c     C5  164   0.800   2.367   0.567
   55c3c     C6  165   0.788   2.602   0.617
   55c3c     H1  166   0.714   2.348   0.785
   55c3c     H2  167   0.704   2.522   0.822
   55c3c     H3  168   1.027   2.400   0.618
   55c3c     H4  169   1.018   2.574   0.655
   55c3c     H5  170   0.874   2.323   0.945
   55c3c     H6  171   0.865   2.496   0.981
   55c3c     H7  172   1.079   2.357   0.836
   55c3c     H8  173   1.070   2.530   0.873
   55c3c     H9  174   0.692   2.364   0.553
   55c3c    H10  175   0.848   2.390   0.471
   55c3c    H11  176   0.835   2.270   0.602
   55c3c    H12  177   0.835   2.625   0.521
   55c3c    H13  178   0.680   2.599   0.604
   55c3c     C7  179   0.824   2.710   0.718
   55c3c    H14  180   0.932   2.713   0.731
   55c3c    H15  181   0.777   2.687   0.814
   55c3c     C8  182   0.775   2.846   0.668
   55c3c    H16  183   0.667   2.843   0.655
   55c3c    H17  184   0.822   2.869   0.573
   55c3c    H18  185   0.801   2.923   0.741
   56c3c      N  186   1.786   1.976   0.945
   56c3c     C1  187   1.645   1.943   0.922
   56c3c     C2  188   1.804   2.122   0.944
   56c3c     C3  189   1.564   2.072   0.905
   56c3c     C4  190   1.669   2.189   0.920
   56c3c     C5  191   1.829   1.921   1.075
   56c3c     C6  192   1.868   1.916   0.838
   56c3c     H1  193   1.606   1.887   1.007
   56c3c     H2  194   1.635   1.883   0.831
   56c3c     H3  195   1.844   2.154   1.041
   56c3c     H4  196   1.873   2.150   0.865
   56c3c     H5  197   1.487   2.079   0.982
   56c3c     H6  198   1.516   2.076   0.808
   56c3c     H7  199   1.642   2.254   1.004
   56c3c     H8  200   1.672   2.250   0.830
   56c3c     H9  201   1.816   1.813   1.075
   56c3c    H10  202   1.933   1.946   1.092
   56c3c    H11  203   1.768   1.965   1.154
   56c3c    H12  204   1.973   1.941   0.855
   56c3c    H13  205   1.855   1.808   0.838
   56c3c     C7  206   1.825   1.973   0.703
   56c3c    H14  207   1.837   2.081   0.702
   56c3c    H15  208   1.720   1.949   0.685
   56c3c     C8  209   1.910   1.911   0.592
   56c3c    H16  210   1.897   1.803   0.592
   56c3c    H17  211   2.015   1.935   0.609
   56c3c    H18  212   1.879   1.951   0.495
   57c3c      N  213   0.429   0.321   1.687
   57c3c     C1  214   0.466   0.463   1.700
   57c3c     C2  215   0.295   0.311   1.628
   57c3c     C3  216   0.352   0.551   1.647
   57c3c     C4  217   0.240   0.451   1.600
   57c3c     C5  218   0.526   0.253   1.600
   57c3c     C6  219   0.429   0.258   1.820
   57c3c     H1  220   0.556   0.483   1.642
   57c3c     H2  221   0.484   0.487   1.805
   57c3c     H3  222   0.300   0.255   1.534
   57c3c     H4  223   0.228   0.259   1.697
   57c3c     H5  224   0.386   0.613   1.564
   57c3c     H6  225   0.314   0.616   1.726
   57c3c     H7  226   0.219   0.464   1.494
   57c3c     H8  227   0.147   0.468   1.655
   57c3c     H9  228   0.626   0.261   1.644
   57c3c    H10  229   0.499   0.148   1.591
   57c3c    H11  230   0.526   0.300   1.502
   57c3c    H12  231   0.401   0.153   1.810
   57c3c    H13  232   0.528   0.266   1.864
   57c3c     C7  233   0.327   0.329   1.910
   57c3c    H14  234   0.228   0.321   1.866
   57c3c    H15  235   0.355   0.434   1.920
   57c3c     C8  236   0.327   0.263   2.048
   57c3c    H16  237   0.427   0.271   2.092
   57c3c    H17  238   0.300   0.158   2.038
   57c3c    H18  239   0.255   0.314   2.112
   58c3c      N  240   2.743   1.762   0.321
   58c3c     C1  241   2.879   1.775   0.377
   58c3c     C2  242   2.645   1.766   0.430
   58c3c     C3  243   2.870   1.789   0.529
   58c3c     C4  244   2.717   1.783   0.564
   58c3c     C5  245   2.718   1.873   0.227
   58c3c     C6  246   2.732   1.634   0.250
   58c3c     H1  247   2.927   1.863   0.335
   58c3c     H2  248   2.937   1.687   0.352
   58c3c     H3  249   2.577   1.851   0.414
   58c3c     H4  250   2.587   1.674   0.431
   58c3c     H5  251   2.914   1.883   0.562
   58c3c     H6  252   2.924   1.708   0.578
   58c3c     H7  253   2.685   1.875   0.613
   58c3c     H8  254   2.695   1.699   0.630
   58c3c     H9  255   2.791   1.869   0.147
   58c3c    H10  256   2.618   1.863   0.186
   58c3c    H11  257   2.727   1.968   0.280
   58c3c    H12  258   2.632   1.624   0.208
   58c3c    H13  259   2.805   1.630   0.169
   58c3c     C7  260   2.758   1.519   0.347
   58c3c    H14  261   2.685   1.522   0.428
   58c3c    H15  262   2.858   1.528   0.389
   58c3c     C8  263   2.746   1.386   0.273
   58c3c    H16  264   2.819   1.382   0.192
   58c3c    H17  265   2.646   1.376   0.231
   58c3c    H18  266   2.765   1.304   0.342
   59c3c      N  267   1.003   2.487   2.193
   59c3c     C1  268   0.863   2.492   2.238
   59c3c     C2  269   1.089   2.447   2.305
   59c3c     C3  270   0.855   2.454   2.386
   59c3c     C4  271   1.003   2.425   2.430
   59c3c     C5  272   1.016   2.389   2.084
   59c3c     C6  273   1.044   2.620   2.145
   59c3c     H1  274   0.804   2.422   2.179
   59c3c     H2  275   0.824   2.593   2.224
   59c3c     H3  276   1.141   2.355   2.280
   59c3c     H4  277   1.162   2.526   2.325
   59c3c     H5  278   0.793   2.366   2.399
   59c3c     H6  279   0.813   2.536   2.444
   59c3c     H7  280   1.013   2.322   2.466
   59c3c     H8  281   1.034   2.492   2.510
   59c3c     H9  282   0.953   2.419   2.001
   59c3c    H10  283   1.120   2.385   2.051
   59c3c    H11  284   0.986   2.291   2.119
   59c3c    H12  285   1.148   2.616   2.112
   59c3c    H13  286   0.981   2.650   2.062
   59c3c     C7  287   1.031   2.722   2.258
   59c3c    H14  288   1.095   2.692   2.341
   59c3c    H15  289   0.927   2.726   2.291
   59c3c     C8  290   1.074   2.860   2.208
   59c3c    H16  291   1.010   2.890   2.125
   59c3c    H17  292   1.177   2.856   2.175
   59c3c    H18  293   1.064   2.932   2.289
   60c3c      N  294   2.289   0.367   1.096
   60c3c     C1  295   2.336   0.442   1.214
   60c3c     C2  296   2.221   0.244   1.140
   60c3c     C3  297   2.298   0.366   1.341
   60c3c     C4  298   2.223   0.236   1.293
   60c3c     C5  299   2.194   0.450   1.020
   60c3c     C6  300   2.404   0.332   1.011
   60c3c     H1  301   2.289   0.540   1.216
   60c3c     H2  302   2.444   0.453   1.209
   60c3c     H3  303   2.118   0.244   1.105
   60c3c     H4  304   2.273   0.157   1.099
   60c3c     H5  305   2.234   0.426   1.405
   60c3c     H6  306   2.387   0.340   1.398
   60c3c     H7  307   2.122   0.233   1.333
   60c3c     H8  308   2.276   0.146   1.326
   60c3c     H9  309   2.244   0.541   0.987
   60c3c    H10  310   2.160   0.394   0.933
   60c3c    H11  311   2.109   0.475   1.083
   60c3c    H12  312   2.369   0.277   0.924
   60c3c    H13  313   2.454   0.423   0.979
   60c3c     C7  314   2.502   0.246   1.091
   60c3c    H14  315   2.452   0.154   1.123
   60c3c    H15  316   2.537   0.301   1.178
   60c3c     C8  317   2.621   0.210   1.002
   60c3c    H16  318   2.671   0.301   0.970
   60c3c    H17  319   2.586   0.154   0.915
   60c3c    H18  320   2.691   0.148   1.059
   61c3c      N  321   2.123   1.066   1.453
   61c3c     C1  322   1.987   1.018   1.425
   61c3c     C2  323   2.221   0.974   1.393
   61c3c     C3  324   1.994   0.890   1.343
   61c3c     C4  325   2.147   0.860   1.322
   61c3c     C5  326   2.141   1.200   1.396
   61c3c     C6  327   2.144   1.071   1.599
   61c3c     H1  328   1.933   1.094   1.368
   61c3c     H2  329   1.935   0.999   1.518
   61c3c     H3  330   2.282   1.028   1.321
   61c3c     H4  331   2.284   0.932   1.471
   61c3c     H5  332   1.943   0.902   1.247
   61c3c     H6  333   1.945   0.807   1.396
   61c3c     H7  334   2.172   0.859   1.216
   61c3c     H8  335   2.174   0.764   1.365
   61c3c     H9  336   2.069   1.269   1.440
   61c3c    H10  337   2.242   1.236   1.417
   61c3c    H11  338   2.126   1.196   1.288
   61c3c    H12  339   2.245   1.107   1.620
   61c3c    H13  340   2.071   1.140   1.643
   61c3c     C7  341   2.125   0.932   1.658
   61c3c    H14  342   2.197   0.863   1.614
   61c3c    H15  343   2.024   0.896   1.637
   61c3c     C8  344   2.147   0.938   1.809
   61c3c    H16  345   2.074   1.006   1.854
   61c3c    H17  346   2.248   0.973   1.831
   61c3c    H18  347   2.134   0.838   1.852
   62c3c      N  348   2.566   1.258   1.704
   62c3c     C1  349   2.530   1.401   1.701
   62c3c     C2  350   2.479   1.188   1.800
   62c3c     C3  351   2.415   1.427   1.799
   62c3c     C4  352   2.382   1.287   1.864
   62c3c     C5  353   2.547   1.200   1.570
   62c3c     C6  354   2.706   1.244   1.745
   62c3c     H1  355   2.499   1.429   1.601
   62c3c     H2  356   2.616   1.461   1.730
   62c3c     H3  357   2.423   1.110   1.748
   62c3c     H4  358   2.541   1.142   1.878
   62c3c     H5  359   2.328   1.467   1.747
   62c3c     H6  360   2.445   1.498   1.875
   62c3c     H7  361   2.279   1.259   1.843
   62c3c     H8  362   2.396   1.290   1.972
   62c3c     H9  363   2.612   1.253   1.499
   62c3c    H10  364   2.574   1.095   1.572
   62c3c    H11  365   2.443   1.211   1.540
   62c3c    H12  366   2.733   1.138   1.747
   62c3c    H13  367   2.770   1.296   1.674
   62c3c     C7  368   2.725   1.304   1.884
   62c3c    H14  369   2.661   1.251   1.956
   62c3c    H15  370   2.699   1.409   1.883
   62c3c     C8  371   2.872   1.288   1.927
   62c3c    H16  372   2.936   1.340   1.856
   62c3c    H17  373   2.898   1.183   1.929
   62c3c    H18  374   2.885   1.331   2.026
   63c3c      N  375   1.981   2.296   2.185
   63c3c     C1  376   1.951   2.161   2.133
   63c3c     C2  377   1.983   2.392   2.073
   63c3c     C3  378   1.933   2.168   1.981
   63c3c     C4  379   1.954   2.319   1.942
   63c3c     C5  380   1.877   2.335   2.281
   63c3c     C6  381   2.112   2.295   2.252
   63c3c     H1  382   1.860   2.124   2.179
   63c3c     H2  383   2.034   2.094   2.157
   63c3c     H3  384   1.907   2.468   2.090
   63c3c     H4  385   2.081   2.439   2.068
   63c3c     H5  386   1.834   2.134   1.953
   63c3c     H6  387   2.007   2.104   1.931
   63c3c     H7  388   1.865   2.359   1.895
   63c3c     H8  389   2.037   2.330   1.873
   63c3c     H9  390   1.875   2.264   2.364
   63c3c    H10  391   1.898   2.435   2.319
   63c3c    H11  392   1.780   2.336   2.232
   63c3c    H12  393   2.133   2.395   2.290
   63c3c    H13  394   2.110   2.224   2.334
   63c3c     C7  395   2.220   2.254   2.151
   63c3c    H14  396   2.222   2.326   2.069
   63c3c    H15  397   2.198   2.155   2.113
   63c3c     C8  398   2.356   2.254   2.221
   63c3c    H16  399   2.354   2.182   2.303
   63c3c    H17  400   2.378   2.353   2.260
   63c3c    H18  401   2.433   2.225   2.150
   64c3c      N  402   2.537   2.401   1.462
   64c3c     C1  403   2.538   2.254   1.465
   64c3c     C2  404   2.412   2.451   1.523
   64c3c     C3  405   2.409   2.204   1.530
   64c3c     C4  406   2.326   2.332   1.567
   64c3c     C5  407   2.652   2.453   1.539
   64c3c     C6  408   2.546   2.448   1.323
   64c3c     H1  409   2.623   2.219   1.523
   64c3c     H2  410   2.545   2.216   1.363
   64c3c     H3  411   2.436   2.513   1.609
   64c3c     H4  412   2.358   2.510   1.449
   64c3c     H5  413   2.431   2.145   1.618
   64c3c     H6  414   2.353   2.141   1.460
   64c3c     H7  415   2.308   2.336   1.674
   64c3c     H8  416   2.230   2.333   1.516
   64c3c     H9  417   2.744   2.416   1.495
   64c3c    H10  418   2.651   2.561   1.537
   64c3c    H11  419   2.645   2.418   1.642
   64c3c    H12  420   2.546   2.557   1.321
   64c3c    H13  421   2.639   2.411   1.279
   64c3c     C7  422   2.427   2.395   1.244
   64c3c    H14  423   2.335   2.432   1.288
   64c3c    H15  424   2.428   2.286   1.246
   64c3c     C8  425   2.437   2.443   1.099
   64c3c    H16  426   2.529   2.407   1.054
   64c3c    H17  427   2.436   2.552   1.097
   64c3c    H18  428   2.352   2.406   1.042
   65c3c      N  429   2.796   1.782   1.462
   65c3c     C1  430   2.875   1.906   1.462
   65c3c     C2  431   2.653   1.815   1.462
   65c3c     C3  432   2.781   2.026   1.462
   65c3c     C4  433   2.636   1.967   1.462
   65c3c     C5  434   2.828   1.703   1.341
   65c3c     C6  435   2.829   1.703   1.582
   65c3c     H1  436   2.938   1.909   1.372
   65c3c     H2  437   2.938   1.909   1.551
   65c3c     H3  438   2.606   1.773   1.373
   65c3c     H4  439   2.606   1.773   1.551
   65c3c     H5  440   2.797   2.088   1.374
   65c3c     H6  441   2.798   2.088   1.550
   65c3c     H7  442   2.580   1.999   1.374
   65c3c     H8  443   2.581   1.999   1.551
   65c3c     H9  444   2.935   1.679   1.341
   65c3c    H10  445   2.770   1.611   1.342
   65c3c    H11  446   2.804   1.762   1.253
   65c3c    H12  447   2.771   1.611   1.582
   65c3c    H13  448   2.935   1.679   1.581
   65c3c     C7  449   2.796   1.785   1.707
   65c3c    H14  450   2.690   1.809   1.707
   65c3c    H15  451   2.854   1.877   1.707
   65c3c     C8  452   2.830   1.703   1.831
   65c3c    H16  453   2.936   1.678   1.831
   65c3c    H17  454   2.771   1.610   1.831
   65c3c    H18  455   2.806   1.761   1.921
   66c3c      N  456   1.423   2.573   0.604
   66c3c     C1  457   1.520   2.463   0.604
   66c3c     C2  458   1.286   2.519   0.604
   66c3c     C3  459   1.445   2.329   0.604
   66c3c     C4  460   1.292   2.366   0.604
   66c3c     C5  461   1.443   2.656   0.724
   66c3c     C6  462   1.443   2.656   0.484
   66c3c     H1  463   1.583   2.469   0.693
   66c3c     H2  464   1.582   2.469   0.515
   66c3c     H3  465   1.234   2.553   0.693
   66c3c     H4  466   1.233   2.554   0.516
   66c3c     H5  467   1.471   2.271   0.692
   66c3c     H6  468   1.470   2.271   0.515
   66c3c     H7  469   1.243   2.326   0.692
   66c3c     H8  470   1.242   2.326   0.516
   66c3c     H9  471   1.545   2.696   0.724
   66c3c    H10  472   1.372   2.738   0.725
   66c3c    H11  473   1.429   2.595   0.813
   66c3c    H12  474   1.371   2.739   0.485
   66c3c    H13  475   1.544   2.697   0.484
   66c3c     C7  476   1.422   2.571   0.359
   66c3c    H14  477   1.320   2.531   0.359
   66c3c    H15  478   1.493   2.489   0.359
   66c3c     C8  479   1.442   2.657   0.235
   66c3c    H16  480   1.543   2.697   0.234
   66c3c    H17  481   1.370   2.739   0.235
   66c3c    H18  482   1.427   2.596   0.145
   67c3c      N  483   0.436   0.458   2.398
   67c3c     C1  484   0.333   0.354   2.411
   67c3c     C2  485   0.431   0.548   2.514
   67c3c     C3  486   0.256   0.375   2.542
   67c3c     C4  487   0.320   0.502   2.609
   67c3c     C5  488   0.569   0.395   2.390
   67c3c     C6  489   0.412   0.535   2.275
   67c3c     H1  490   0.381   0.256   2.413
   67c3c     H2  491   0.264   0.359   2.327
   67c3c     H3  492   0.527   0.546   2.566
   67c3c     H4  493   0.410   0.650   2.480
   67c3c     H5  494   0.266   0.288   2.607
   67c3c     H6  495   0.150   0.391   2.522
   67c3c     H7  496   0.361   0.477   2.707
   67c3c     H8  497   0.246   0.580   2.622
   67c3c     H9  498   0.573   0.329   2.304
   67c3c    H10  499   0.645   0.472   2.380
   67c3c    H11  500   0.587   0.338   2.481
   67c3c    H12  501   0.488   0.612   2.264
   67c3c    H13  502   0.416   0.469   2.188
   67c3c     C7  503   0.274   0.601   2.282
   67c3c    H14  504   0.270   0.667   2.368
   67c3c    H15  505   0.197   0.524   2.293
   67c3c     C8  506   0.248   0.681   2.155
   67c3c    H16  507   0.252   0.614   2.068
   67c3c    H17  508   0.325   0.758   2.144
   67c3c    H18  509   0.150   0.728   2.160
   68c3c      N  510   0.351   2.721   1.625
   68c3c     C1  511   0.458   2.643   1.561
   68c3c     C2  512   0.327   2.844   1.547
   68c3c     C3  513   0.507   2.716   1.436
   68c3c     C4  514   0.421   2.848   1.427
   68c3c     C5  515   0.228   2.641   1.630
   68c3c     C6  516   0.392   2.757   1.762
   68c3c     H1  517   0.419   2.545   1.533
   68c3c     H2  518   0.541   2.631   1.631
   68c3c     H3  519   0.223   2.845   1.513
   68c3c     H4  520   0.345   2.931   1.610
   68c3c     H5  521   0.492   2.655   1.347
   68c3c     H6  522   0.613   2.740   1.444
   68c3c     H7  523   0.364   2.851   1.334
   68c3c     H8  524   0.485   2.936   1.431
   68c3c     H9  525   0.246   2.550   1.688
   68c3c    H10  526   0.148   2.699   1.678
   68c3c    H11  527   0.198   2.615   1.529
   68c3c    H12  528   0.312   2.815   1.809
   68c3c    H13  529   0.410   2.667   1.819
   68c3c     C7  530   0.520   2.841   1.757
   68c3c    H14  531   0.502   2.931   1.699
   68c3c    H15  532   0.599   2.783   1.709
   68c3c     C8  533   0.562   2.878   1.899
   68c3c    H16  534   0.580   2.787   1.957
   68c3c    H17  535   0.483   2.936   1.946
   68c3c    H18  536   0.653   2.938   1.895
   69c3c      N  537   2.408   2.266   0.522
   69c3c     C1  538   2.547   2.254   0.473
   69c3c     C2  539   2.380   2.157   0.616
   69c3c     C3  540   2.613   2.132   0.538
   69c3c     C4  541   2.503   2.069   0.632
   69c3c     C5  542   2.392   2.396   0.589
   69c3c     C6  543   2.315   2.258   0.408
   69c3c     H1  544   2.603   2.343   0.499
   69c3c     H2  545   2.546   2.241   0.365
   69c3c     H3  546   2.353   2.199   0.713
   69c3c     H4  547   2.296   2.098   0.579
   69c3c     H5  548   2.700   2.161   0.595
   69c3c     H6  549   2.644   2.060   0.462
   69c3c     H7  550   2.537   2.067   0.735
   69c3c     H8  551   2.481   1.966   0.602
   69c3c     H9  552   2.413   2.476   0.519
   69c3c    H10  553   2.289   2.405   0.625
   69c3c    H11  554   2.461   2.402   0.674
   69c3c    H12  555   2.213   2.267   0.444
   69c3c    H13  556   2.337   2.339   0.338
   69c3c     C7  557   2.332   2.123   0.338
   69c3c    H14  558   2.311   2.043   0.408
   69c3c    H15  559   2.435   2.114   0.301
   69c3c     C8  560   2.236   2.115   0.219
   69c3c    H16  561   2.257   2.195   0.149
   69c3c    H17  562   2.134   2.124   0.255
   69c3c    H18  563   2.248   2.019   0.169
   70c3c      N  564   0.527   2.262   1.864
   70c3c     C1  565   0.491   2.280   2.005
   70c3c     C2  566   0.628   2.155   1.852
   70c3c     C3  567   0.571   2.182   2.092
   70c3c     C4  568   0.660   2.100   1.992
   70c3c     C5  569   0.408   2.225   1.787
   70c3c     C6  570   0.583   2.387   1.811
   70c3c     H1  571   0.385   2.262   2.018
   70c3c     H2  572   0.515   2.382   2.036
   70c3c     H3  573   0.589   2.075   1.790
   70c3c     H4  574   0.719   2.195   1.808
   70c3c     H5  575   0.503   2.116   2.146
   70c3c     H6  576   0.632   2.235   2.164
   70c3c     H7  577   0.637   1.993   1.997
   70c3c     H8  578   0.766   2.113   2.015
   70c3c     H9  579   0.333   2.304   1.795
   70c3c    H10  580   0.435   2.211   1.682
   70c3c    H11  581   0.366   2.132   1.826
   70c3c    H12  582   0.610   2.373   1.706
   70c3c    H13  583   0.509   2.466   1.819
   70c3c     C7  584   0.708   2.425   1.890
   70c3c    H14  585   0.782   2.346   1.882
   70c3c    H15  586   0.681   2.439   1.995
   70c3c     C8  587   0.766   2.556   1.835
   70c3c    H16  588   0.691   2.635   1.843
   70c3c    H17  589   0.792   2.542   1.730
   70c3c    H18  590   0.854   2.583   1.892
   71c3c      N  591   1.100   0.339   1.271
   71c3c     C1  592   1.147   0.214   1.334
   71c3c     C2  593   1.184   0.451   1.317
   71c3c     C3  594   1.266   0.244   1.425
   71c3c     C4  595   1.290   0.399   1.414
   71c3c     C5  596   1.110   0.327   1.125
   71c3c     C6  597   0.960   0.363   1.309
   71c3c     H1  598   1.177   0.144   1.257
   71c3c     H2  599   1.066   0.171   1.393
   71c3c     H3  600   1.232   0.498   1.231
   71c3c     H4  601   1.121   0.525   1.368
   71c3c     H5  602   1.354   0.189   1.392
   71c3c     H6  603   1.244   0.216   1.528
   71c3c     H7  604   1.390   0.420   1.376
   71c3c     H8  605   1.280   0.447   1.511
   71c3c     H9  606   1.048   0.244   1.091
   71c3c    H10  607   1.075   0.419   1.079
   71c3c    H11  608   1.214   0.309   1.097
   71c3c    H12  609   0.926   0.456   1.263
   71c3c    H13  610   0.898   0.280   1.276
   71c3c     C7  611   0.950   0.376   1.461
   71c3c    H14  612   1.012   0.459   1.495
   71c3c    H15  613   0.985   0.284   1.508
   71c3c     C8  614   0.804   0.401   1.501
   71c3c    H16  615   0.743   0.318   1.467
   71c3c    H17  616   0.770   0.494   1.454
   71c3c    H18  617   0.797   0.410   1.609
   72c3c      N  618   1.430   0.725   0.335
   72c3c     C1  619   1.419   0.867   0.298
   72c3c     C2  620   1.302   0.658   0.308
   72c3c     C3  621   1.279   0.895   0.244
   72c3c     C4  622   1.202   0.758   0.251
   72c3c     C5  623   1.536   0.662   0.255
   72c3c     C6  624   1.463   0.714   0.478
   72c3c     H1  625   1.493   0.890   0.221
   72c3c     H2  626   1.438   0.929   0.385
   72c3c     H3  627   1.318   0.577   0.236
   72c3c     H4  628   1.263   0.616   0.401
   72c3c     H5  629   1.283   0.932   0.142
   72c3c     H6  630   1.229   0.971   0.305
   72c3c     H7  631   1.169   0.727   0.152
   72c3c     H8  632   1.115   0.766   0.316
   72c3c     H9  633   1.631   0.712   0.275
   72c3c    H10  634   1.545   0.557   0.283
   72c3c    H11  635   1.513   0.670   0.149
   72c3c    H12  636   1.471   0.609   0.505
   72c3c    H13  637   1.557   0.765   0.498
   72c3c     C7  638   1.352   0.780   0.561
   72c3c    H14  639   1.257   0.730   0.541
   72c3c    H15  640   1.344   0.885   0.533
   72c3c     C8  641   1.386   0.769   0.709
   72c3c    H16  642   1.481   0.819   0.729
   72c3c    H17  643   1.394   0.664   0.737
   72c3c    H18  644   1.307   0.816   0.768
   73c3c      N  645   2.716   2.049   2.757
   73c3c     C1  646   2.641   2.168   2.716
   73c3c     C2  647   2.839   2.090   2.827
   73c3c     C3  648   2.717   2.294   2.760
   73c3c     C4  649   2.846   2.243   2.833
   73c3c     C5  650   2.634   1.968   2.848
   73c3c     C6  651   2.751   1.969   2.639
   73c3c     H1  652   2.543   2.167   2.763
   73c3c     H2  653   2.630   2.169   2.608
   73c3c     H3  654   2.839   2.050   2.929
   73c3c     H4  655   2.926   2.051   2.774
   73c3c     H5  656   2.656   2.354   2.828
   73c3c     H6  657   2.743   2.355   2.674
   73c3c     H7  658   2.849   2.277   2.936
   73c3c     H8  659   2.936   2.279   2.782
   73c3c     H9  660   2.542   1.937   2.796
   73c3c    H10  661   2.689   1.879   2.878
   73c3c    H11  662   2.607   2.026   2.936
   73c3c    H12  663   2.807   1.881   2.669
   73c3c    H13  664   2.661   1.939   2.587
   73c3c     C7  665   2.838   2.054   2.545
   73c3c    H14  666   2.929   2.084   2.596
   73c3c    H15  667   2.782   2.142   2.514
   73c3c     C8  668   2.874   1.971   2.421
   73c3c    H16  669   2.783   1.941   2.370
   73c3c    H17  670   2.930   1.883   2.452
   73c3c    H18  671   2.936   2.031   2.354
   74c3c      N  672   0.708   1.186   2.178
   74c3c     C1  673   0.573   1.129   2.178
   74c3c     C2  674   0.700   1.333   2.184
   74c3c     C3  675   0.470   1.242   2.184
   74c3c     C4  676   0.553   1.375   2.188
   74c3c     C5  677   0.782   1.137   2.295
   74c3c     C6  678   0.779   1.146   2.055
   74c3c     H1  679   0.561   1.064   2.264
   74c3c     H2  680   0.558   1.071   2.086
   74c3c     H3  681   0.750   1.369   2.274
   74c3c     H4  682   0.747   1.376   2.096
   74c3c     H5  683   0.407   1.232   2.272
   74c3c     H6  684   0.405   1.239   2.096
   74c3c     H7  685   0.531   1.431   2.279
   74c3c     H8  686   0.528   1.438   2.102
   74c3c     H9  687   0.789   1.028   2.291
   74c3c    H10  688   0.883   1.179   2.295
   74c3c    H11  689   0.730   1.166   2.386
   74c3c    H12  690   0.879   1.189   2.055
   74c3c    H13  691   0.785   1.038   2.051
   74c3c     C7  692   0.702   1.198   1.933
   74c3c    H14  693   0.696   1.307   1.938
   74c3c    H15  694   0.602   1.155   1.933
   74c3c     C8  695   0.775   1.156   1.806
   74c3c    H16  696   0.782   1.048   1.801
   74c3c    H17  697   0.876   1.199   1.806
   74c3c    H18  698   0.721   1.193   1.719
   75c3c      N  699   2.021   0.723   2.366
   75c3c     C1  700   2.104   0.845   2.365
   75c3c     C2  701   2.106   0.606   2.342
   75c3c     C3  702   2.250   0.807   2.339
   75c3c     C4  703   2.251   0.651   2.324
   75c3c     C5  704   1.955   0.710   2.497
   75c3c     C6  705   1.919   0.732   2.261
   75c3c     H1  706   2.096   0.895   2.462
   75c3c     H2  707   2.069   0.912   2.287
   75c3c     H3  708   2.100   0.538   2.427
   75c3c     H4  709   2.072   0.554   2.252
   75c3c     H5  710   2.313   0.839   2.422
   75c3c     H6  711   2.286   0.855   2.248
   75c3c     H7  712   2.315   0.605   2.399
   75c3c     H8  713   2.288   0.622   2.226
   75c3c     H9  714   1.892   0.797   2.516
   75c3c    H10  715   1.894   0.619   2.498
   75c3c    H11  716   2.031   0.703   2.576
   75c3c    H12  717   1.857   0.642   2.262
   75c3c    H13  718   1.856   0.819   2.279
   75c3c     C7  719   1.987   0.746   2.125
   75c3c    H14  720   2.050   0.659   2.107
   75c3c    H15  721   2.048   0.836   2.124
   75c3c     C8  722   1.880   0.756   2.015
   75c3c    H16  723   1.817   0.843   2.033
   75c3c    H17  724   1.819   0.666   2.016
   75c3c    H18  725   1.929   0.766   1.918
   76c3c      N  726   2.248   2.665   1.878
   76c3c     C1  727   2.394   2.650   1.865
   76c3c     C2  728   2.203   2.779   1.796
   76c3c     C3  729   2.448   2.757   1.770
   76c3c     C4  730   2.323   2.841   1.725
   76c3c     C5  731   2.181   2.543   1.833
   76c3c     C6  732   2.214   2.691   2.019
   76c3c     H1  733   2.416   2.551   1.825
   76c3c     H2  734   2.441   2.661   1.962
   76c3c     H3  735   2.131   2.744   1.722
   76c3c     H4  736   2.156   2.853   1.860
   76c3c     H5  737   2.497   2.711   1.684
   76c3c     H6  738   2.521   2.820   1.821
   76c3c     H7  739   2.311   2.837   1.617
   76c3c     H8  740   2.335   2.946   1.753
   76c3c     H9  741   2.214   2.458   1.894
   76c3c    H10  742   2.073   2.554   1.843
   76c3c    H11  743   2.206   2.524   1.729
   76c3c    H12  744   2.106   2.702   2.029
   76c3c    H13  745   2.248   2.607   2.080
   76c3c     C7  746   2.284   2.819   2.066
   76c3c    H14  747   2.251   2.903   2.005
   76c3c    H15  748   2.392   2.807   2.056
   76c3c     C8  749   2.249   2.845   2.213
   76c3c    H16  750   2.282   2.761   2.273
   76c3c    H17  751   2.141   2.856   2.222
   76c3c    H18  752   2.298   2.936   2.246
   77c3c      N  753   0.424   2.305   2.755
   77c3c     C1  754   0.359   2.259   2.632
   77c3c     C2  755   0.359   2.243   2.871
   77c3c     C3  756   0.245   2.163   2.666
   77c3c     C4  757   0.245   2.152   2.823
   77c3c     C5  758   0.566   2.266   2.753
   77c3c     C6  759   0.414   2.451   2.765
   77c3c     H1  760   0.432   2.208   2.569
   77c3c     H2  761   0.319   2.345   2.578
   77c3c     H3  762   0.432   2.184   2.927
   77c3c     H4  763   0.319   2.321   2.936
   77c3c     H5  764   0.262   2.065   2.621
   77c3c     H6  765   0.150   2.201   2.630
   77c3c     H7  766   0.262   2.049   2.855
   77c3c     H8  767   0.150   2.185   2.864
   77c3c     H9  768   0.615   2.312   2.667
   77c3c    H10  769   0.615   2.300   2.844
   77c3c    H11  770   0.575   2.158   2.745
   77c3c    H12  771   0.462   2.485   2.857
   77c3c    H13  772   0.462   2.497   2.679
   77c3c     C7  773   0.266   2.491   2.768
   77c3c    H14  774   0.218   2.446   2.854
   77c3c    H15  775   0.218   2.458   2.676
   77c3c     C8  776   0.255   2.644   2.778
   77c3c    H16  777   0.304   2.690   2.692
   77c3c    H17  778   0.304   2.678   2.870
   77c3c    H18  779   0.150   2.672   2.780
   78c3c      N  780   2.216   1.881   2.550
   78c3c     C1  781   2.198   1.735   2.560
   78c3c     C2  782   2.092   1.942   2.500
   78c3c     C3  783   2.056   1.698   2.515
   78c3c     C4  784   1.987   1.834   2.476
   78c3c     C5  785   2.248   1.936   2.682
   78c3c     C6  786   2.326   1.911   2.457
   78c3c     H1  787   2.213   1.704   2.663
   78c3c     H2  788   2.270   1.685   2.496
   78c3c     H3  789   2.054   2.013   2.573
   78c3c     H4  790   2.112   1.995   2.406
   78c3c     H5  791   2.002   1.649   2.595
   78c3c     H6  792   2.060   1.630   2.430
   78c3c     H7  793   1.899   1.851   2.537
   78c3c     H8  794   1.956   1.833   2.371
   78c3c     H9  795   2.340   1.890   2.719
   78c3c    H10  796   2.261   2.044   2.675
   78c3c    H11  797   2.166   1.914   2.751
   78c3c    H12  798   2.339   2.019   2.449
   78c3c    H13  799   2.418   1.865   2.494
   78c3c     C7  800   2.293   1.854   2.319
   78c3c    H14  801   2.201   1.899   2.282
   78c3c    H15  802   2.280   1.746   2.326
   78c3c     C8  803   2.407   1.885   2.222
   78c3c    H16  804   2.499   1.839   2.259
   78c3c    H17  805   2.421   1.992   2.215
   78c3c    H18  806   2.384   1.844   2.124
   79c3c      N  807   2.301   1.132   0.359
   79c3c     C1  808   2.244   1.189   0.236
   79c3c     C2  809   2.356   1.239   0.442
   79c3c     C3  810   2.263   1.341   0.237
   79c3c     C4  811   2.336   1.374   0.373
   79c3c     C5  812   2.195   1.061   0.433
   79c3c     C6  813   2.408   1.037   0.324
   79c3c     H1  814   2.138   1.165   0.230
   79c3c     H2  815   2.296   1.147   0.149
   79c3c     H3  816   2.306   1.240   0.539
   79c3c     H4  817   2.463   1.222   0.458
   79c3c     H5  818   2.167   1.391   0.232
   79c3c     H6  819   2.323   1.373   0.152
   79c3c     H7  820   2.276   1.440   0.434
   79c3c     H8  821   2.432   1.422   0.354
   79c3c     H9  822   2.154   0.982   0.372
   79c3c    H10  823   2.237   1.019   0.525
   79c3c    H11  824   2.116   1.132   0.459
   79c3c    H12  825   2.450   0.994   0.415
   79c3c    H13  826   2.367   0.957   0.262
   79c3c     C7  827   2.518   1.110   0.247
   79c3c    H14  828   2.559   1.189   0.309
   79c3c    H15  829   2.476   1.152   0.156
   79c3c     C8  830   2.629   1.011   0.211
   79c3c    H16  831   2.588   0.931   0.149
   79c3c    H17  832   2.671   0.968   0.302
   79c3c    H18  833   2.707   1.063   0.156
   80c3c      N  834   1.648   1.072   1.870
   80c3c     C1  835   1.502   1.073   1.852
   80c3c     C2  836   1.707   1.181   1.791
   80c3c     C3  837   1.462   1.186   1.758
   80c3c     C4  838   1.597   1.257   1.718
   80c3c     C5  839   1.680   1.091   2.012
   80c3c     C6  840   1.702   0.943   1.824
   80c3c     H1  841   1.453   1.087   1.949
   80c3c     H2  842   1.469   0.978   1.810
   80c3c     H3  843   1.761   1.248   1.857
   80c3c     H4  844   1.777   1.139   1.718
   80c3c     H5  845   1.395   1.257   1.808
   80c3c     H6  846   1.411   1.148   1.670
   80c3c     H7  847   1.596   1.362   1.748
   80c3c     H8  848   1.612   1.253   1.610
   80c3c     H9  849   1.636   1.010   2.071
   80c3c    H10  850   1.788   1.090   2.025
   80c3c    H11  851   1.640   1.187   2.046
   80c3c    H12  852   1.810   0.942   1.837
   80c3c    H13  853   1.657   0.862   1.883
   80c3c     C7  854   1.668   0.923   1.676
   80c3c    H14  855   1.712   1.003   1.618
   80c3c    H15  856   1.560   0.923   1.663
   80c3c     C8  857   1.724   0.789   1.629
   80c3c    H16  858   1.680   0.708   1.688
   80c3c    H17  859   1.833   0.788   1.642
   80c3c    H18  860   1.701   0.774   1.524
   81c3c      N  861   0.987   0.838   0.840
   81c3c     C1  862   1.068   0.720   0.804
   81c3c     C2  863   0.847   0.796   0.861
   81c3c     C3  864   0.979   0.596   0.802
   81c3c     C4  865   0.834   0.646   0.839
   81c3c     C5  866   1.039   0.898   0.963
   81c3c     C6  867   0.992   0.936   0.731
   81c3c     H1  868   1.147   0.707   0.878
   81c3c     H2  869   1.112   0.735   0.706
   81c3c     H3  870   0.817   0.821   0.963
   81c3c     H4  871   0.782   0.849   0.791
   81c3c     H5  872   1.014   0.522   0.874
   81c3c     H6  873   0.980   0.550   0.703
   81c3c     H7  874   0.798   0.596   0.929
   81c3c     H8  875   0.764   0.624   0.758
   81c3c     H9  876   1.142   0.929   0.948
   81c3c    H10  877   0.979   0.985   0.990
   81c3c    H11  878   1.035   0.825   1.044
   81c3c    H12  879   0.932   1.023   0.757
   81c3c    H13  880   1.096   0.967   0.715
   81c3c     C7  881   0.938   0.874   0.603
   81c3c    H14  882   0.834   0.843   0.618
   81c3c    H15  883   0.998   0.787   0.576
   81c3c     C8  884   0.944   0.976   0.489
   81c3c    H16  885   1.047   1.007   0.473
   81c3c    H17  886   0.884   1.063   0.515
   81c3c    H18  887   0.905   0.931   0.398
   82c3c      N  888   1.234   0.914   2.362
   82c3c     C1  889   1.372   0.931   2.407
   82c3c     C2  890   1.144   0.995   2.445
   82c3c     C3  891   1.375   1.029   2.525
   82c3c     C4  892   1.226   1.071   2.550
   82c3c     C5  893   1.222   0.956   2.221
   82c3c     C6  894   1.196   0.772   2.374
   82c3c     H1  895   1.433   0.971   2.326
   82c3c     H2  896   1.413   0.835   2.439
   82c3c     H3  897   1.091   1.067   2.382
   82c3c     H4  898   1.072   0.931   2.495
   82c3c     H5  899   1.437   1.116   2.502
   82c3c     H6  900   1.417   0.981   2.614
   82c3c     H7  901   1.214   1.178   2.538
   82c3c     H8  902   1.194   1.043   2.650
   82c3c     H9  903   1.289   0.895   2.160
   82c3c    H10  904   1.120   0.942   2.188
   82c3c    H11  905   1.250   1.061   2.212
   82c3c    H12  906   1.093   0.759   2.340
   82c3c    H13  907   1.263   0.711   2.312
   82c3c     C7  908   1.208   0.728   2.520
   82c3c    H14  909   1.141   0.789   2.582
   82c3c    H15  910   1.310   0.741   2.554
   82c3c     C8  911   1.168   0.581   2.532
   82c3c    H16  912   1.235   0.520   2.471
   82c3c    H17  913   1.066   0.568   2.499
   82c3c    H18  914   1.177   0.550   2.637
   83c3c      N  915   0.432   0.704   1.006
   83c3c     C1  916   0.436   0.785   0.884
   83c3c     C2  917   0.325   0.604   0.995
   83c3c     C3  918   0.328   0.737   0.787
   83c3c     C4  919   0.255   0.619   0.860
   83c3c     C5  920   0.561   0.635   1.024
   83c3c     C6  921   0.406   0.791   1.122
   83c3c     H1  922   0.534   0.774   0.837
   83c3c     H2  923   0.419   0.890   0.909
   83c3c     H3  924   0.367   0.504   1.003
   83c3c     H4  925   0.252   0.619   1.076
   83c3c     H5  926   0.372   0.704   0.693
   83c3c     H6  927   0.258   0.818   0.765
   83c3c     H7  928   0.263   0.527   0.802
   83c3c     H8  929   0.149   0.641   0.874
   83c3c     H9  930   0.641   0.709   1.033
   83c3c    H10  931   0.558   0.575   1.115
   83c3c    H11  932   0.580   0.571   0.939
   83c3c    H12  933   0.403   0.730   1.213
   83c3c    H13  934   0.486   0.865   1.130
   83c3c     C7  935   0.272   0.862   1.104
   83c3c    H14  936   0.192   0.788   1.095
   83c3c    H15  937   0.275   0.922   1.013
   83c3c     C8  938   0.245   0.952   1.224
   83c3c    H16  939   0.325   1.026   1.232
   83c3c    H17  940   0.242   0.892   1.315
   83c3c    H18  941   0.150   1.003   1.211
   84c3c      N  942   1.161   2.240   2.733
   84c3c     C1  943   1.243   2.211   2.852
   84c3c     C2  944   1.246   2.298   2.628
   84c3c     C3  945   1.388   2.250   2.824
   84c3c     C4  946   1.390   2.307   2.678
   84c3c     C5  947   1.099   2.116   2.684
   84c3c     C6  948   1.056   2.337   2.769
   84c3c     H1  949   1.238   2.104   2.874
   84c3c     H2  950   1.206   2.268   2.937
   84c3c     H3  951   1.242   2.234   2.539
   84c3c     H4  952   1.210   2.398   2.602
   84c3c     H5  953   1.454   2.163   2.833
   84c3c     H6  954   1.422   2.325   2.895
   84c3c     H7  955   1.457   2.248   2.614
   84c3c     H8  956   1.425   2.410   2.677
   84c3c     H9  957   1.036   2.074   2.762
   84c3c    H10  958   1.038   2.138   2.597
   84c3c    H11  959   1.177   2.045   2.658
   84c3c    H12  960   0.995   2.359   2.682
   84c3c    H13  961   0.993   2.295   2.848
   84c3c     C7  962   1.120   2.466   2.820
   84c3c    H14  963   1.183   2.509   2.742
   84c3c    H15  964   1.181   2.444   2.908
   84c3c     C8  965   1.011   2.566   2.858
   84c3c    H16  966   0.948   2.524   2.936
   84c3c    H17  967   0.950   2.588   2.770
   84c3c    H18  968   1.057   2.658   2.894
   85c3c      N  969   2.743   0.332   2.029
   85c3c     C1  970   2.860   0.415   1.998
   85c3c     C2  971   2.627   0.419   2.055
   85c3c     C3  972   2.821   0.562   2.003
   85c3c     C4  973   2.668   0.565   2.040
   85c3c     C5  974   2.713   0.243   1.916
   85c3c     C6  975   2.770   0.250   2.149
   85c3c     H1  976   2.896   0.390   1.898
   85c3c     H2  977   2.939   0.395   2.071
   85c3c     H3  978   2.548   0.396   1.984
   85c3c     H4  979   2.590   0.401   2.156
   85c3c     H5  980   2.838   0.610   1.906
   85c3c     H6  981   2.880   0.615   2.078
   85c3c     H7  982   2.610   0.614   1.962
   85c3c     H8  983   2.652   0.619   2.134
   85c3c     H9  984   2.799   0.179   1.896
   85c3c    H10  985   2.626   0.182   1.939
   85c3c    H11  986   2.693   0.303   1.827
   85c3c    H12  987   2.684   0.189   2.172
   85c3c    H13  988   2.856   0.186   2.130
   85c3c     C7  989   2.801   0.342   2.267
   85c3c    H14  990   2.715   0.407   2.286
   85c3c    H15  991   2.888   0.404   2.244
   85c3c     C8  992   2.830   0.258   2.391
   85c3c    H16  993   2.916   0.193   2.372
   85c3c    H17  994   2.743   0.196   2.414
   85c3c    H18  995   2.851   0.323   2.476
   86c3c      N  996   0.837   1.473   2.618
   86c3c     C1  997   0.735   1.472   2.725
   86c3c     C2  998   0.885   1.336   2.595
   86c3c     C3  999   0.715   1.329   2.775
   86c3c     C4 1000   0.813   1.240   2.690
   86c3c     C5 1001   0.777   1.526   2.495
   86c3c     C6 1002   0.950   1.558   2.659
   86c3c     H1 1003   0.641   1.511   2.686
   86c3c     H2 1004   0.769   1.535   2.808
   86c3c     H3 1005   0.865   1.307   2.492
   86c3c     H4 1006   0.992   1.331   2.614
   86c3c     H5 1007   0.612   1.298   2.760
   86c3c     H6 1008   0.738   1.321   2.881
   86c3c     H7 1009   0.758   1.164   2.634
   86c3c     H8 1010   0.884   1.189   2.754
   86c3c     H9 1011   0.742   1.627   2.512
   86c3c    H10 1012   0.853   1.526   2.416
   86c3c    H11 1013   0.694   1.462   2.465
   86c3c    H12 1014   1.025   1.559   2.580
   86c3c    H13 1015   0.914   1.660   2.676
   86c3c     C7 1016   1.012   1.503   2.787
   86c3c    H14 1017   1.047   1.402   2.770
   86c3c    H15 1018   0.937   1.503   2.866
   86c3c     C8 1019   1.129   1.592   2.829
   86c3c    H16 1020   1.093   1.694   2.846
   86c3c    H17 1021   1.204   1.593   2.750
   86c3c    H18 1022   1.173   1.553   2.921
   87c3c      N 1023   0.868   0.317   1.995
   87c3c     C1 1024   1.007   0.364   1.995
   87c3c     C2 1025   0.777   0.432   1.995
   87c3c     C3 1026   1.009   0.517   1.995
   87c3c     C4 1027   0.858   0.562   1.995
   87c3c     C5 1028   0.844   0.235   1.875
   87c3c     C6 1029   0.844   0.235   2.115
   87c3c     H1 1030   1.058   0.327   1.906
   87c3c     H2 1031   1.058   0.327   2.084
   87c3c     H3 1032   0.714   0.429   1.906
   87c3c     H4 1033   0.714   0.429   2.084
   87c3c     H5 1034   1.061   0.555   1.907
   87c3c     H6 1035   1.061   0.555   2.083
   87c3c     H7 1036   0.835   0.621   1.907
   87c3c     H8 1037   0.835   0.621   2.083
   87c3c     H9 1038   0.912   0.150   1.875
   87c3c    H10 1039   0.741   0.200   1.875
   87c3c    H11 1040   0.862   0.296   1.786
   87c3c    H12 1041   0.741   0.200   2.115
   87c3c    H13 1042   0.912   0.150   2.115
   87c3c     C7 1043   0.869   0.320   2.240
   87c3c    H14 1044   0.801   0.405   2.240
   87c3c    H15 1045   0.972   0.355   2.240
   87c3c     C8 1046   0.844   0.235   2.365
   87c3c    H16 1047   0.912   0.150   2.365
   87c3c    H17 1048   0.741   0.200   2.365
   87c3c    H18 1049   0.862   0.296   2.454
   88c3c      N 1050   2.090   1.442   0.940
   88c3c     C1 1051   1.963   1.391   0.887
   88c3c     C2 1052   2.179   1.478   0.828
   88c3c     C3 1053   1.966   1.393   0.734
   88c3c     C4 1054   2.108   1.450   0.696
   88c3c     C5 1055   2.065   1.561   1.022
   88c3c     C6 1056   2.154   1.339   1.022
   88c3c     H1 1057   1.881   1.454   0.922
   88c3c     H2 1058   1.947   1.289   0.922
   88c3c     H3 1059   2.204   1.584   0.834
   88c3c     H4 1060   2.270   1.419   0.834
   88c3c     H5 1061   1.887   1.457   0.694
   88c3c     H6 1062   1.953   1.293   0.694
   88c3c     H7 1063   2.098   1.541   0.637
   88c3c     H8 1064   2.164   1.377   0.637
   88c3c     H9 1065   1.999   1.535   1.105
   88c3c    H10 1066   2.159   1.599   1.062
   88c3c    H11 1067   2.017   1.638   0.962
   88c3c    H12 1068   2.249   1.376   1.061
   88c3c    H13 1069   2.089   1.312   1.105
   88c3c     C7 1070   2.181   1.215   0.936
   88c3c    H14 1071   2.246   1.241   0.854
   88c3c    H15 1072   2.086   1.177   0.897
   88c3c     C8 1073   2.247   1.107   1.022
   88c3c    H16 1074   2.182   1.080   1.105
   88c3c    H17 1075   2.342   1.145   1.061
   88c3c    H18 1076   2.266   1.019   0.961
   89c3c      N 1077   2.208   2.786   0.900
   89c3c     C1 1078   2.311   2.877   0.847
   89c3c     C2 1079   2.245   2.647   0.869
   89c3c     C3 1080   2.421   2.796   0.779
   89c3c     C4 1081   2.378   2.645   0.794
   89c3c     C5 1082   2.197   2.803   1.046
   89c3c     C6 1083   2.078   2.817   0.837
   89c3c     H1 1084   2.354   2.935   0.929
   89c3c     H2 1085   2.266   2.945   0.775
   89c3c     H3 1086   2.255   2.591   0.962
   89c3c     H4 1087   2.167   2.601   0.808
   89c3c     H5 1088   2.517   2.813   0.827
   89c3c     H6 1089   2.430   2.823   0.674
   89c3c     H7 1090   2.453   2.589   0.849
   89c3c     H8 1091   2.365   2.599   0.696
   89c3c     H9 1092   2.169   2.906   1.068
   89c3c    H10 1093   2.121   2.736   1.085
   89c3c    H11 1094   2.293   2.780   1.092
   89c3c    H12 1095   2.002   2.750   0.877
   89c3c    H13 1096   2.051   2.920   0.860
   89c3c     C7 1097   2.089   2.799   0.686
   89c3c    H14 1098   2.117   2.696   0.663
   89c3c    H15 1099   2.165   2.867   0.647
   89c3c     C8 1100   1.955   2.831   0.621
   89c3c    H16 1101   1.927   2.934   0.643
   89c3c    H17 1102   1.878   2.764   0.660
   89c3c    H18 1103   1.962   2.819   0.513
   90c3c      N 1104   1.435   2.523   1.881
   90c3c     C1 1105   1.297   2.553   1.843
   90c3c     C2 1106   1.516   2.646   1.877
   90c3c     C3 1107   1.284   2.702   1.811
   90c3c     C4 1108   1.427   2.763   1.833
   90c3c     C5 1109   1.437   2.468   2.018
   90c3c     C6 1110   1.492   2.424   1.788
   90c3c     H1 1111   1.230   2.528   1.925
   90c3c     H2 1112   1.270   2.495   1.754
   90c3c     H3 1113   1.557   2.667   1.976
   90c3c     H4 1114   1.597   2.634   1.806
   90c3c     H5 1115   1.211   2.750   1.877
   90c3c     H6 1116   1.251   2.717   1.708
   90c3c     H7 1117   1.425   2.841   1.910
   90c3c     H8 1118   1.465   2.808   1.741
   90c3c     H9 1119   1.378   2.377   2.022
   90c3c    H10 1120   1.540   2.446   2.047
   90c3c    H11 1121   1.395   2.542   2.087
   90c3c    H12 1122   1.595   2.402   1.817
   90c3c    H13 1123   1.433   2.333   1.792
   90c3c     C7 1124   1.490   2.481   1.646
   90c3c    H14 1125   1.550   2.572   1.643
   90c3c    H15 1126   1.388   2.503   1.617
   90c3c     C8 1127   1.549   2.378   1.550
   90c3c    H16 1128   1.490   2.287   1.553
   90c3c    H17 1129   1.652   2.356   1.578
   90c3c    H18 1130   1.548   2.419   1.448
   91c3c      N 1131   2.282   1.136   2.750
   91c3c     C1 1132   2.288   1.054   2.628
   91c3c     C2 1133   2.313   1.053   2.867
   91c3c     C3 1134   2.324   0.910   2.664
   91c3c     C4 1135   2.341   0.909   2.821
   91c3c     C5 1136   2.380   1.246   2.740
   91c3c     C6 1137   2.147   1.193   2.765
   91c3c     H1 1138   2.363   1.095   2.560
   91c3c     H2 1139   2.190   1.056   2.579
   91c3c     H3 1140   2.401   1.092   2.917
   91c3c     H4 1141   2.229   1.053   2.936
   91c3c     H5 1142   2.417   0.881   2.615
   91c3c     H6 1143   2.246   0.842   2.634
   91c3c     H7 1144   2.442   0.879   2.849
   91c3c     H8 1145   2.271   0.840   2.867
   91c3c     H9 1146   2.357   1.308   2.654
   91c3c    H10 1147   2.376   1.306   2.831
   91c3c    H11 1148   2.480   1.204   2.729
   91c3c    H12 1149   2.143   1.253   2.855
   91c3c    H13 1150   2.124   1.255   2.678
   91c3c     C7 1151   2.045   1.079   2.775
   91c3c    H14 1152   2.068   1.017   2.862
   91c3c    H15 1153   2.049   1.018   2.685
   91c3c     C8 1154   1.905   1.138   2.791
   91c3c    H16 1155   1.881   1.200   2.704
   91c3c    H17 1156   1.900   1.198   2.881
   91c3c    H18 1157   1.832   1.057   2.798
   92c3c      N 1158   0.764   1.794   0.376
   92c3c     C1 1159   0.785   1.664   0.442
   92c3c     C2 1160   0.883   1.879   0.396
   92c3c     C3 1161   0.923   1.662   0.508
   92c3c     C4 1162   0.987   1.803   0.478
   92c3c     C5 1163   0.743   1.774   0.232
   92c3c     C6 1164   0.647   1.861   0.435
   92c3c     H1 1165   0.779   1.585   0.367
   92c3c     H2 1166   0.708   1.649   0.517
   92c3c     H3 1167   0.926   1.906   0.300
   92c3c     H4 1168   0.855   1.970   0.450
   92c3c     H5 1169   0.984   1.582   0.467
   92c3c     H6 1170   0.914   1.645   0.615
   92c3c     H7 1171   1.080   1.792   0.422
   92c3c     H8 1172   1.009   1.855   0.571
   92c3c     H9 1173   0.655   1.712   0.217
   92c3c    H10 1174   0.727   1.871   0.184
   92c3c    H11 1175   0.830   1.725   0.189
   92c3c    H12 1176   0.631   1.957   0.386
   92c3c    H13 1177   0.559   1.798   0.420
   92c3c     C7 1178   0.669   1.882   0.584
   92c3c    H14 1179   0.757   1.945   0.599
   92c3c    H15 1180   0.685   1.786   0.633
   92c3c     C8 1181   0.547   1.951   0.645
   92c3c    H16 1182   0.459   1.888   0.630
   92c3c    H17 1183   0.531   2.047   0.596
   92c3c    H18 1184   0.563   1.966   0.752
   93c3c      N 1185   0.318   2.733   0.819
   93c3c     C1 1186   0.454   2.731   0.874
   93c3c     C2 1187   0.223   2.775   0.923
   93c3c     C3 1188   0.450   2.772   1.021
   93c3c     C4 1189   0.299   2.801   1.053
   93c3c     C5 1190   0.312   2.829   0.707
   93c3c     C6 1191   0.281   2.599   0.771
   93c3c     H1 1192   0.517   2.800   0.818
   93c3c     H2 1193   0.494   2.630   0.866
   93c3c     H3 1194   0.172   2.866   0.892
   93c3c     H4 1195   0.149   2.697   0.939
   93c3c     H5 1196   0.511   2.861   1.038
   93c3c     H6 1197   0.488   2.692   1.085
   93c3c     H7 1198   0.285   2.905   1.086
   93c3c     H8 1199   0.263   2.736   1.133
   93c3c     H9 1200   0.382   2.798   0.629
   93c3c    H10 1201   0.211   2.831   0.666
   93c3c    H11 1202   0.339   2.928   0.742
   93c3c    H12 1203   0.180   2.601   0.730
   93c3c    H13 1204   0.351   2.568   0.693
   93c3c     C7 1205   0.287   2.500   0.887
   93c3c    H14 1206   0.217   2.531   0.965
   93c3c    H15 1207   0.388   2.498   0.928
   93c3c     C8 1208   0.249   2.361   0.837
   93c3c    H16 1209   0.319   2.329   0.760
   93c3c    H17 1210   0.148   2.363   0.796
   93c3c    H18 1211   0.253   2.290   0.920
   94c3c      N 1212   1.515   0.338   2.266
   94c3c     C1 1213   1.605   0.454   2.281
   94c3c     C2 1214   1.577   0.219   2.327
   94c3c     C3 1215   1.732   0.410   2.355
   94c3c     C4 1216   1.714   0.257   2.385
   94c3c     C5 1217   1.387   0.366   2.334
   94c3c     C6 1218   1.491   0.312   2.124
   94c3c     H1 1219   1.555   0.532   2.338
   94c3c     H2 1220   1.631   0.492   2.182
   94c3c     H3 1221   1.514   0.182   2.407
   94c3c     H4 1222   1.590   0.142   2.252
   94c3c     H5 1223   1.744   0.467   2.447
   94c3c     H6 1224   1.820   0.428   2.292
   94c3c     H7 1225   1.717   0.238   2.492
   94c3c     H8 1226   1.793   0.199   2.338
   94c3c     H9 1227   1.341   0.454   2.289
   94c3c    H10 1228   1.321   0.280   2.323
   94c3c    H11 1229   1.406   0.385   2.440
   94c3c    H12 1230   1.424   0.227   2.113
   94c3c    H13 1231   1.444   0.400   2.079
   94c3c     C7 1232   1.623   0.283   2.054
   94c3c    H14 1233   1.669   0.195   2.099
   94c3c    H15 1234   1.690   0.369   2.064
   94c3c     C8 1235   1.598   0.257   1.905
   94c3c    H16 1236   1.552   0.344   1.860
   94c3c    H17 1237   1.531   0.171   1.894
   94c3c    H18 1238   1.692   0.235   1.855
   95c3c      N 1239   0.933   1.880   1.390
   95c3c     C1 1240   0.968   1.762   1.310
   95c3c     C2 1241   0.980   1.863   1.528
   95c3c     C3 1242   1.042   1.661   1.399
   95c3c     C4 1243   1.050   1.728   1.541
   95c3c     C5 1244   0.996   2.000   1.331
   95c3c     C6 1245   0.786   1.897   1.390
   95c3c     H1 1246   1.032   1.791   1.227
   95c3c     H2 1247   0.877   1.715   1.271
   95c3c     H3 1248   1.051   1.943   1.552
   95c3c     H4 1249   0.896   1.867   1.596
   95c3c     H5 1250   1.142   1.642   1.360
   95c3c     H6 1251   0.988   1.567   1.403
   95c3c     H7 1252   1.154   1.741   1.572
   95c3c     H8 1253   1.000   1.666   1.616
   95c3c     H9 1254   0.960   2.012   1.228
   95c3c    H10 1255   0.969   2.087   1.390
   95c3c    H11 1256   1.104   1.987   1.330
   95c3c    H12 1257   0.760   1.985   1.449
   95c3c    H13 1258   0.751   1.910   1.288
   95c3c     C7 1259   0.721   1.774   1.452
   95c3c    H14 1260   0.756   1.761   1.554
   95c3c    H15 1261   0.747   1.686   1.393
   95c3c     C8 1262   0.569   1.791   1.452
   95c3c    H16 1263   0.534   1.804   1.350
   95c3c    H17 1264   0.543   1.879   1.511
   95c3c    H18 1265   0.522   1.703   1.496
   96c3c      N 1266   0.310   1.450   1.498
   96c3c     C1 1267   0.214   1.338   1.500
   96c3c     C2 1268   0.447   1.397   1.489
   96c3c     C3 1269   0.290   1.206   1.491
   96c3c     C4 1270   0.442   1.245   1.483
   96c3c     C5 1271   0.283   1.537   1.383
   96c3c     C6 1272   0.296   1.528   1.622
   96c3c     H1 1273   0.147   1.347   1.415
   96c3c     H2 1274   0.157   1.341   1.592
   96c3c     H3 1275   0.494   1.436   1.398
   96c3c     H4 1276   0.504   1.429   1.576
   96c3c     H5 1277   0.260   1.151   1.402
   96c3c     H6 1278   0.270   1.144   1.578
   96c3c     H7 1279   0.487   1.208   1.391
   96c3c     H8 1280   0.497   1.201   1.567
   96c3c     H9 1281   0.181   1.576   1.390
   96c3c    H10 1282   0.354   1.620   1.382
   96c3c    H11 1283   0.293   1.479   1.291
   96c3c    H12 1284   0.367   1.611   1.622
   96c3c    H13 1285   0.195   1.567   1.630
   96c3c     C7 1286   0.325   1.438   1.743
   96c3c    H14 1287   0.426   1.399   1.735
   96c3c    H15 1288   0.254   1.355   1.744
   96c3c     C8 1289   0.311   1.519   1.872
   96c3c    H16 1290   0.209   1.558   1.879
   96c3c    H17 1291   0.382   1.602   1.871
   96c3c    H18 1292   0.331   1.455   1.957
   97c3c      N 1293   2.775   1.368   2.730
   97c3c     C1 1294   2.637   1.418   2.713
   97c3c     C2 1295   2.868   1.481   2.730
   97c3c     C3 1296   2.639   1.570   2.703
   97c3c     C4 1297   2.791   1.612   2.714
   97c3c     C5 1298   2.785   1.295   2.857
   97c3c     C6 1299   2.808   1.277   2.618
   97c3c     H1 1300   2.577   1.388   2.799
   97c3c     H2 1301   2.594   1.376   2.623
   97c3c     H3 1302   2.923   1.483   2.825
   97c3c     H4 1303   2.939   1.470   2.648
   97c3c     H5 1304   2.581   1.615   2.783
   97c3c     H6 1305   2.598   1.603   2.607
   97c3c     H7 1306   2.807   1.677   2.799
   97c3c     H8 1307   2.823   1.664   2.624
   97c3c     H9 1308   2.716   1.211   2.857
   97c3c    H10 1309   2.887   1.258   2.869
   97c3c    H11 1310   2.761   1.361   2.940
   97c3c    H12 1311   2.909   1.240   2.631
   97c3c    H13 1312   2.738   1.193   2.618
   97c3c     C7 1313   2.797   1.353   2.486
   97c3c    H14 1314   2.866   1.437   2.487
   97c3c    H15 1315   2.695   1.390   2.474
   97c3c     C8 1316   2.831   1.259   2.371
   97c3c    H16 1317   2.762   1.176   2.370
   97c3c    H17 1318   2.933   1.222   2.383
   97c3c    H18 1319   2.823   1.314   2.276
   98c3c      N 1320   1.425   1.184   0.813
   98c3c     C1 1321   1.310   1.114   0.753
   98c3c     C2 1322   1.437   1.319   0.754
   98c3c     C3 1323   1.243   1.205   0.650
   98c3c     C4 1324   1.326   1.339   0.650
   98c3c     C5 1325   1.404   1.197   0.958
   98c3c     C6 1326   1.548   1.108   0.788
   98c3c     H1 1327   1.238   1.089   0.831
   98c3c     H2 1328   1.345   1.023   0.705
   98c3c     H3 1329   1.427   1.394   0.832
   98c3c     H4 1330   1.534   1.328   0.706
   98c3c     H5 1331   1.139   1.224   0.676
   98c3c     H6 1332   1.245   1.159   0.551
   98c3c     H7 1333   1.263   1.423   0.677
   98c3c     H8 1334   1.369   1.358   0.552
   98c3c     H9 1335   1.395   1.098   1.003
   98c3c    H10 1336   1.489   1.249   1.003
   98c3c    H11 1337   1.312   1.253   0.977
   98c3c    H12 1338   1.633   1.160   0.832
   98c3c    H13 1339   1.539   1.009   0.832
   98c3c     C7 1340   1.570   1.095   0.637
   98c3c    H14 1341   1.579   1.195   0.593
   98c3c    H15 1342   1.485   1.043   0.592
   98c3c     C8 1343   1.698   1.016   0.611
   98c3c    H16 1344   1.689   0.917   0.655
   98c3c    H17 1345   1.783   1.068   0.655
   98c3c    H18 1346   1.713   1.007   0.503
   99c3c      N 1347   1.432   1.926   1.326
   99c3c     C1 1348   1.577   1.897   1.321
   99c3c     C2 1349   1.373   1.861   1.443
   99c3c     C3 1350   1.614   1.809   1.441
   99c3c     C4 1351   1.481   1.785   1.521
   99c3c     C5 1352   1.412   2.071   1.334
   99c3c     C6 1353   1.368   1.874   1.204
   99c3c     H1 1354   1.633   1.990   1.326
   99c3c     H2 1355   1.600   1.844   1.229
   99c3c     H3 1356   1.328   1.936   1.508
   99c3c     H4 1357   1.296   1.791   1.411
   99c3c     H5 1358   1.689   1.859   1.503
   99c3c     H6 1359   1.656   1.714   1.407
   99c3c     H7 1360   1.490   1.824   1.622
   99c3c     H8 1361   1.457   1.679   1.526
   99c3c     H9 1362   1.456   2.119   1.247
   99c3c    H10 1363   1.305   2.093   1.337
   99c3c    H11 1364   1.459   2.109   1.425
   99c3c    H12 1365   1.262   1.896   1.207
   99c3c    H13 1366   1.413   1.922   1.116
   99c3c     C7 1367   1.389   1.723   1.195
   99c3c    H14 1368   1.345   1.675   1.282
   99c3c    H15 1369   1.496   1.701   1.191
   99c3c     C8 1370   1.323   1.670   1.068
   99c3c    H16 1371   1.367   1.718   0.981
   99c3c    H17 1372   1.216   1.691   1.071
   99c3c    H18 1373   1.338   1.562   1.061
  100c3c      N 1374   0.632   0.290   0.567
  100c3c     C1 1375   0.516   0.213   0.519
  100c3c     C2 1376   0.603   0.434   0.555
  100c3c     C3 1377   0.406   0.309   0.474
  100c3c     C4 1378   0.463   0.453   0.498
  100c3c     C5 1379   0.659   0.257   0.708
  100c3c     C6 1380   0.750   0.257   0.485
  100c3c     H1 1381   0.479   0.150   0.600
  100c3c     H2 1382   0.546   0.150   0.436
  100c3c     H3 1383   0.609   0.480   0.654
  100c3c     H4 1384   0.677   0.480   0.489
  100c3c     H5 1385   0.315   0.293   0.533
  100c3c     H6 1386   0.382   0.293   0.369
  100c3c     H7 1387   0.400   0.509   0.567
  100c3c     H8 1388   0.467   0.509   0.404
  100c3c     H9 1389   0.680   0.150   0.716
  100c3c    H10 1390   0.745   0.314   0.743
  100c3c    H11 1391   0.572   0.281   0.768
  100c3c    H12 1392   0.836   0.314   0.521
  100c3c    H13 1393   0.771   0.150   0.494
  100c3c     C7 1394   0.722   0.291   0.339
  100c3c    H14 1395   0.701   0.398   0.330
  100c3c    H15 1396   0.636   0.234   0.304
  100c3c     C8 1397   0.845   0.257   0.254
  100c3c    H16 1398   0.866   0.150   0.263
  100c3c    H17 1399   0.930   0.314   0.289
  100c3c    H18 1400   0.825   0.281   0.150
  101fsi     F1 1401   1.580   2.387   1.233
  101fsi     S1 1402   1.730   2.424   1.202
  101fsi      N 1403   1.728   2.453   1.055
  101fsi     O1 1404   1.756   2.538   1.286
  101fsi     O2 1405   1.803   2.305   1.238
  101fsi     S2 1406   1.701   2.593   1.007
  101fsi     O3 1407   1.617   2.646   1.111
  101fsi     O4 1408   1.637   2.571   0.880
  101fsi     F2 1409   1.846   2.655   0.999
  102fsi     F1 1410   1.620   0.623   2.540
  102fsi     S1 1411   1.545   0.518   2.630
  102fsi      N 1412   1.602   0.543   2.767
  102fsi     O1 1413   1.406   0.553   2.615
  102fsi     O2 1414   1.581   0.391   2.573
  102fsi     S2 1415   1.536   0.643   2.858
  102fsi     O3 1416   1.480   0.738   2.765
  102fsi     O4 1417   1.648   0.692   2.936
  102fsi     F2 1418   1.432   0.555   2.937
  103fsi     F1 1419   0.797   0.858   1.237
  103fsi     S1 1420   0.768   1.013   1.242
  103fsi      N 1421   0.850   1.059   1.359
  103fsi     O1 1422   0.814   1.061   1.114
  103fsi     O2 1423   0.625   1.022   1.260
  103fsi     S2 1424   0.992   1.103   1.339
  103fsi     O3 1425   1.033   1.024   1.226
  103fsi     O4 1426   1.053   1.069   1.465
  103fsi     F2 1427   0.977   1.258   1.311
  104fsi     F1 1428   0.448   1.632   1.074
  104fsi     S1 1429   0.535   1.522   1.003
  104fsi      N 1430   0.491   1.532   0.860
  104fsi     O1 1431   0.671   1.564   1.027
  104fsi     O2 1432   0.498   1.399   1.069
  104fsi     S2 1433   0.562   1.625   0.766
  104fsi     O3 1434   0.607   1.730   0.853
  104fsi     O4 1435   0.458   1.661   0.673
  104fsi     F2 1436   0.677   1.534   0.706
  105fsi     F1 1437   0.923   1.862   2.775
  105fsi     S1 1438   0.766   1.869   2.782
  105fsi      N 1439   0.737   2.009   2.737
  105fsi     O1 1440   0.722   1.767   2.690
  105fsi     O2 1441   0.735   1.842   2.920
  105fsi     S2 1442   0.716   2.039   2.592
  105fsi     O3 1443   0.797   1.939   2.527
  105fsi     O4 1444   0.763   2.175   2.580
  105fsi     F2 1445   0.560   2.020   2.574
  106fsi     F1 1446   0.863   1.648   2.196
  106fsi     S1 1447   0.749   1.751   2.231
  106fsi      N 1448   0.724   1.820   2.100
  106fsi     O1 1449   0.640   1.668   2.278
  106fsi     O2 1450   0.808   1.835   2.333
  106fsi     S2 1451   0.622   1.765   2.005
  106fsi     O3 1452   0.625   1.623   2.033
  106fsi     O4 1453   0.674   1.804   1.877
  106fsi     F2 1454   0.489   1.839   2.049
  107fsi     F1 1455   1.371   2.936   1.114
  107fsi     S1 1456   1.328   2.794   1.060
  107fsi      N 1457   1.186   2.817   1.015
  107fsi     O1 1458   1.421   2.768   0.953
  107fsi     O2 1459   1.342   2.707   1.174
  107fsi     S2 1460   1.158   2.860   0.875
  107fsi     O3 1461   1.276   2.936   0.841
  107fsi     O4 1462   1.036   2.937   0.890
  107fsi     F2 1463   1.142   2.724   0.798
  108fsi     F1 1464   1.725   2.179   0.152
  108fsi     S1 1465   1.738   2.244   0.295
  108fsi      N 1466   1.818   2.368   0.268
  108fsi     O1 1467   1.602   2.268   0.335
  108fsi     O2 1468   1.807   2.144   0.373
  108fsi     S2 1469   1.749   2.497   0.235
  108fsi     O3 1470   1.629   2.451   0.169
  108fsi     O4 1471   1.844   2.564   0.150
  108fsi     F2 1472   1.727   2.563   0.376
  109fsi     F1 1473   2.296   0.689   1.705
  109fsi     S1 1474   2.214   0.567   1.763
  109fsi      N 1475   2.303   0.516   1.872
  109fsi     O1 1476   2.090   0.627   1.808
  109fsi     O2 1477   2.199   0.478   1.651
  109fsi     S2 1478   2.289   0.570   2.012
  109fsi     O3 1479   2.243   0.705   1.989
  109fsi     O4 1480   2.423   0.558   2.063
  109fsi     F2 1481   2.183   0.474   2.077
  110fsi     F1 1482   2.577   2.130   1.804
  110fsi     S1 1483   2.677   2.070   1.909
  110fsi      N 1484   2.809   2.127   1.867
  110fsi     O1 1485   2.628   2.118   2.036
  110fsi     O2 1486   2.665   1.927   1.891
  110fsi     S2 1487   2.856   2.258   1.924
  110fsi     O3 1488   2.732   2.327   1.949
  110fsi     O4 1489   2.936   2.312   1.817
  110fsi     F2 1490   2.936   2.214   2.052
  111fsi     F1 1491   0.954   2.486   1.182
  111fsi     S1 1492   0.991   2.639   1.196
  111fsi      N 1493   0.902   2.704   1.094
  111fsi     O1 1494   0.959   2.670   1.333
  111fsi     O2 1495   1.132   2.644   1.165
  111fsi     S2 1496   0.765   2.751   1.133
  111fsi     O3 1497   0.729   2.658   1.238
  111fsi     O4 1498   0.691   2.737   1.010
  111fsi     F2 1499   0.790   2.899   1.180
  112fsi     F1 1500   2.898   1.289   0.675
  112fsi     S1 1501   2.822   1.151   0.664
  112fsi      N 1502   2.699   1.175   0.746
  112fsi     O1 1503   2.799   1.135   0.523
  112fsi     O2 1504   2.915   1.056   0.720
  112fsi     S2 1505   2.575   1.229   0.682
  112fsi     O3 1506   2.628   1.309   0.574
  112fsi     O4 1507   2.513   1.302   0.789
  112fsi     F2 1508   2.499   1.099   0.636
  113fsi     F1 1509   1.524   1.419   1.137
  113fsi     S1 1510   1.653   1.387   1.223
  113fsi      N 1511   1.671   1.240   1.202
  113fsi     O1 1512   1.756   1.469   1.164
  113fsi     O2 1513   1.616   1.425   1.357
  113fsi     S2 1514   1.755   1.190   1.088
  113fsi     O3 1515   1.738   1.293   0.988
  113fsi     O4 1516   1.693   1.063   1.056
  113fsi     F2 1517   1.898   1.181   1.151
  114fsi     F1 1518   1.606   2.122   0.603
  114fsi     S1 1519   1.534   2.007   0.523
  114fsi      N 1520   1.442   1.948   0.626
  114fsi     O1 1521   1.468   2.075   0.415
  114fsi     O2 1522   1.642   1.920   0.482
  114fsi     S2 1523   1.303   2.001   0.642
  114fsi     O3 1524   1.318   2.139   0.603
  114fsi     O4 1525   1.276   1.978   0.782
  114fsi     F2 1526   1.220   1.912   0.542
  115fsi     F1 1527   0.661   1.314   1.473
  115fsi     S1 1528   0.769   1.428   1.485
  115fsi      N 1529   0.693   1.539   1.552
  115fsi     O1 1530   0.874   1.370   1.565
  115fsi     O2 1531   0.807   1.455   1.348
  115fsi     S2 1532   0.691   1.549   1.701
  115fsi     O3 1533   0.703   1.411   1.742
  115fsi     O4 1534   0.563   1.610   1.727
  115fsi     F2 1535   0.816   1.640   1.733
  116fsi     F1 1536   1.796   2.401   0.513
  116fsi     S1 1537   1.952   2.398   0.535
  116fsi      N 1538   2.005   2.370   0.398
  116fsi     O1 1539   1.982   2.530   0.586
  116fsi     O2 1540   1.971   2.292   0.631
  116fsi     S2 1541   2.037   2.483   0.305
  116fsi     O3 1542   1.944   2.585   0.345
  116fsi     O4 1543   2.013   2.425   0.175
  116fsi     F2 1544   2.188   2.514   0.338
  117fsi     F1 1545   2.511   2.403   2.618
  117fsi     S1 1546   2.385   2.319   2.577
  117fsi      N 1547   2.323   2.285   2.709
  117fsi     O1 1548   2.307   2.409   2.496
  117fsi     O2 1549   2.439   2.206   2.505
  117fsi     S2 1550   2.221   2.377   2.770
  117fsi     O3 1551   2.261   2.506   2.721
  117fsi     O4 1552   2.241   2.356   2.912
  117fsi     F2 1553   2.085   2.322   2.713
  118fsi     F1 1554   2.163   0.474   0.319
  118fsi     S1 1555   2.028   0.395   0.301
  118fsi      N 1556   2.047   0.276   0.391
  118fsi     O1 1557   1.927   0.488   0.344
  118fsi     O2 1558   2.024   0.364   0.160
  118fsi     S2 1559   2.004   0.283   0.535
  118fsi     O3 1560   2.022   0.423   0.566
  118fsi     O4 1561   2.096   0.194   0.600
  118fsi     F2 1562   1.855   0.234   0.530
  119fsi     F1 1563   2.069   0.813   2.762
  119fsi     S1 1564   1.977   0.690   2.796
  119fsi      N 1565   2.059   0.573   2.753
  119fsi     O1 1566   1.955   0.700   2.938
  119fsi     O2 1567   1.858   0.712   2.716
  119fsi     S2 1568   2.153   0.508   2.850
  119fsi     O3 1569   2.190   0.617   2.937
  119fsi     O4 1570   2.258   0.458   2.765
  119fsi     F2 1571   2.063   0.397   2.917
  120fsi     F1 1572   1.554   0.150   0.568
  120fsi     S1 1573   1.518   0.259   0.676
  120fsi      N 1574   1.644   0.340   0.685
  120fsi     O1 1575   1.405   0.329   0.620
  120fsi     O2 1576   1.488   0.182   0.794
  120fsi     S2 1577   1.662   0.460   0.596
  120fsi     O3 1578   1.587   0.423   0.478
  120fsi     O4 1579   1.806   0.464   0.579
  120fsi     F2 1580   1.601   0.577   0.681
  121fsi     F1 1581   2.664   0.517   2.931
  121fsi     S1 1582   2.677   0.595   2.794
  121fsi      N 1583   2.752   0.719   2.832
  121fsi     O1 1584   2.750   0.504   2.709
  121fsi     O2 1585   2.540   0.617   2.753
  121fsi     S2 1586   2.902   0.720   2.827
  121fsi     O3 1587   2.936   0.583   2.855
  121fsi     O4 1588   2.936   0.815   2.931
  121fsi     F2 1589   2.932   0.769   2.681
  122fsi     F1 1590   2.423   1.576   0.815
  122fsi     S1 1591   2.425   1.647   0.675
  122fsi      N 1592   2.279   1.667   0.645
  122fsi     O1 1593   2.498   1.769   0.698
  122fsi     O2 1594   2.492   1.553   0.588
  122fsi     S2 1595   2.210   1.792   0.688
  122fsi     O3 1596   2.283   1.829   0.808
  122fsi     O4 1597   2.074   1.747   0.710
  122fsi     F2 1598   2.229   1.888   0.565
  123fsi     F1 1599   2.498   0.779   0.751
  123fsi     S1 1600   2.561   0.850   0.876
  123fsi      N 1601   2.697   0.788   0.885
  123fsi     O1 1602   2.561   0.990   0.841
  123fsi     O2 1603   2.472   0.816   0.984
  123fsi     S2 1604   2.813   0.850   0.813
  123fsi     O3 1605   2.750   0.911   0.699
  123fsi     O4 1606   2.897   0.736   0.784
  123fsi     F2 1607   2.872   0.950   0.920
  124fsi     F1 1608   2.115   1.391   1.744
  124fsi     S1 1609   1.965   1.353   1.776
  124fsi      N 1610   1.978   1.256   1.890
  124fsi     O1 1611   1.904   1.479   1.811
  124fsi     O2 1612   1.916   1.296   1.653
  124fsi     S2 1613   1.978   1.306   2.031
  124fsi     O3 1614   2.036   1.438   2.018
  124fsi     O4 1615   2.061   1.209   2.099
  124fsi     F2 1616   1.826   1.302   2.069
  125fsi     F1 1617   1.032   0.832   1.586
  125fsi     S1 1618   1.007   0.677   1.584
  125fsi      N 1619   1.145   0.621   1.564
  125fsi     O1 1620   0.949   0.649   1.713
  125fsi     O2 1621   0.918   0.656   1.472
  125fsi     S2 1622   1.231   0.589   1.683
  125fsi     O3 1623   1.186   0.685   1.781
  125fsi     O4 1624   1.364   0.611   1.632
  125fsi     F2 1625   1.194   0.439   1.714
  126fsi     F1 1626   0.671   0.741   0.319
  126fsi     S1 1627   0.533   0.811   0.292
  126fsi      N 1628   0.557   0.952   0.338
  126fsi     O1 1629   0.513   0.797   0.150
  126fsi     O2 1630   0.440   0.737   0.373
  126fsi     S2 1631   0.608   1.054   0.241
  126fsi     O3 1632   0.687   0.975   0.150
  126fsi     O4 1633   0.684   1.143   0.327
  126fsi     F2 1634   0.477   1.116   0.181
  127fsi     F1 1635   0.738   2.723   0.156
  127fsi     S1 1636   0.620   2.796   0.231
  127fsi      N 1637   0.505   2.701   0.215
  127fsi     O1 1638   0.668   2.810   0.366
  127fsi     O2 1639   0.606   2.921   0.160
  127fsi     S2 1640   0.481   2.595   0.317
  127fsi     O3 1641   0.614   2.567   0.366
  127fsi     O4 1642   0.421   2.489   0.240
  127fsi     F2 1643   0.385   2.666   0.420
  128fsi     F1 1644   2.720   2.347   0.850
  128fsi     S1 1645   2.762   2.473   0.936
  128fsi      N 1646   2.747   2.424   1.077
  128fsi     O1 1647   2.897   2.500   0.895
  128fsi     O2 1648   2.667   2.574   0.898
  128fsi     S2 1649   2.864   2.359   1.146
  128fsi     O3 1650   2.936   2.299   1.037
  128fsi     O4 1651   2.799   2.267   1.237
  128fsi     F2 1652   2.936   2.481   1.215
  129fsi     F1 1653   0.959   1.721   2.446
  129fsi     S1 1654   1.090   1.809   2.448
  129fsi      N 1655   1.190   1.720   2.381
  129fsi     O1 1656   1.055   1.927   2.374
  129fsi     O2 1657   1.114   1.831   2.589
  129fsi     S2 1658   1.209   1.727   2.232
  129fsi     O3 1659   1.077   1.765   2.186
  129fsi     O4 1660   1.249   1.592   2.199
  129fsi     F2 1661   1.321   1.837   2.215
  130fsi     F1 1662   1.704   2.843   2.535
  130fsi     S1 1663   1.686   2.710   2.617
  130fsi      N 1664   1.639   2.612   2.514
  130fsi     O1 1665   1.818   2.683   2.670
  130fsi     O2 1666   1.588   2.743   2.717
  130fsi     S2 1667   1.739   2.531   2.436
  130fsi     O3 1668   1.854   2.618   2.432
  130fsi     O4 1669   1.672   2.511   2.310
  130fsi     F2 1670   1.756   2.402   2.525
  131fsi     F1 1671   1.764   2.543   1.606
  131fsi     S1 1672   1.897   2.590   1.535
  131fsi      N 1673   1.860   2.726   1.482
  131fsi     O1 1674   1.995   2.591   1.641
  131fsi     O2 1675   1.920   2.490   1.434
  131fsi     S2 1676   1.882   2.848   1.566
  131fsi     O3 1677   1.866   2.796   1.701
  131fsi     O4 1678   1.777   2.936   1.522
  131fsi     F2 1679   2.028   2.892   1.528
  132fsi     F1 1680   1.982   0.308   1.677
  132fsi     S1 1681   1.928   0.411   1.571
  132fsi      N 1682   1.791   0.358   1.539
  132fsi     O1 1683   1.928   0.537   1.642
  132fsi     O2 1684   2.023   0.404   1.463
  132fsi     S2 1685   1.672   0.403   1.618
  132fsi     O3 1686   1.730   0.430   1.748
  132fsi     O4 1687   1.585   0.288   1.612
  132fsi     F2 1688   1.622   0.530   1.539
  133fsi     F1 1689   0.941   1.649   0.950
  133fsi     S1 1690   0.867   1.785   0.978
  133fsi      N 1691   0.978   1.875   1.022
  133fsi     O1 1692   0.808   1.819   0.851
  133fsi     O2 1693   0.771   1.752   1.081
  133fsi     S2 1694   1.053   1.957   0.921
  133fsi     O3 1695   1.046   1.874   0.803
  133fsi     O4 1696   1.184   1.968   0.981
  133fsi     F2 1697   0.971   2.091   0.915
  134fsi     F1 1698   2.875   2.610   2.546
  134fsi     S1 1699   2.864   2.467   2.480
  134fsi      N 1700   2.716   2.444   2.474
  134fsi     O1 1701   2.928   2.483   2.351
  134fsi     O2 1702   2.936   2.382   2.571
  134fsi     S2 1703   2.638   2.486   2.353
  134fsi     O3 1704   2.713   2.601   2.306
  134fsi     O4 1705   2.509   2.516   2.408
  134fsi     F2 1706   2.645   2.359   2.260
  135fsi     F1 1707   0.413   2.542   2.433
  135fsi     S1 1708   0.561   2.596   2.418
  135fsi      N 1709   0.542   2.729   2.353
  135fsi     O1 1710   0.610   2.601   2.554
  135fsi     O2 1711   0.626   2.497   2.336
  135fsi     S2 1712   0.524   2.852   2.437
  135fsi     O3 1713   0.460   2.800   2.556
  135fsi     O4 1714   0.442   2.936   2.354
  135fsi     F2 1715   0.672   2.903   2.458
  136fsi     F1 1716   0.150   2.695   2.140
  136fsi     S1 1717   0.288   2.761   2.176
  136fsi      N 1718   0.362   2.649   2.243
  136fsi     O1 1719   0.342   2.802   2.049
  136fsi     O2 1720   0.252   2.871   2.263
  136fsi     S2 1721   0.447   2.557   2.162
  136fsi     O3 1722   0.380   2.556   2.034
  136fsi     O4 1723   0.440   2.434   2.236
  136fsi     F2 1724   0.588   2.628   2.163
  137fsi     F1 1725   1.921   0.316   2.522
  137fsi     S1 1726   2.051   0.229   2.542
  137fsi      N 1727   2.059   0.151   2.414
  137fsi     O1 1728   2.156   0.326   2.559
  137fsi     O2 1729   2.023   0.150   2.659
  137fsi     S2 1730   2.135   0.206   2.297
  137fsi     O3 1731   2.119   0.349   2.314
  137fsi     O4 1732   2.064   0.150   2.184
  137fsi     F2 1733   2.280   0.151   2.319
  138fsi     F1 1734   0.360   0.508   1.234
  138fsi     S1 1735   0.377   0.358   1.188
  138fsi      N 1736   0.502   0.363   1.105
  138fsi     O1 1737   0.390   0.285   1.312
  138fsi     O2 1738   0.256   0.330   1.115
  138fsi     S2 1739   0.636   0.340   1.169
  138fsi     O3 1740   0.615   0.390   1.303
  138fsi     O4 1741   0.724   0.419   1.086
  138fsi     F2 1742   0.655   0.184   1.158
  139fsi     F1 1743   0.965   1.550   0.250
  139fsi     S1 1744   1.029   1.406   0.235
  139fsi      N 1745   1.162   1.435   0.172
  139fsi     O1 1746   1.035   1.357   0.370
  139fsi     O2 1747   0.937   1.335   0.150
  139fsi     S2 1748   1.282   1.461   0.259
  139fsi     O3 1749   1.223   1.521   0.377
  139fsi     O4 1750   1.361   1.551   0.178
  139fsi     F2 1751   1.342   1.317   0.280
  140fsi     F1 1752   1.339   1.502   2.386
  140fsi     S1 1753   1.406   1.376   2.453
  140fsi      N 1754   1.385   1.268   2.352
  140fsi     O1 1755   1.544   1.416   2.471
  140fsi     O2 1756   1.333   1.359   2.576
  140fsi     S2 1757   1.487   1.244   2.244
  140fsi     O3 1758   1.543   1.376   2.225
  140fsi     O4 1759   1.406   1.195   2.135
  140fsi     F2 1760   1.583   1.139   2.310
  141fsi     F1 1761   1.680   1.853   2.855
  141fsi     S1 1762   1.826   1.850   2.797
  141fsi      N 1763   1.838   1.982   2.727
  141fsi     O1 1764   1.910   1.835   2.913
  141fsi     O2 1765   1.826   1.735   2.709
  141fsi     S2 1766   1.889   2.102   2.802
  141fsi     O3 1767   1.847   2.075   2.937
  141fsi     O4 1768   1.821   2.211   2.737
  141fsi     F2 1769   2.044   2.095   2.777
  142fsi     F1 1770   2.395   2.933   1.379
  142fsi     S1 1771   2.458   2.792   1.351
  142fsi      N 1772   2.533   2.813   1.223
  142fsi     O1 1773   2.542   2.768   1.466
  142fsi     O2 1774   2.345   2.704   1.341
  142fsi     S2 1775   2.676   2.858   1.226
  142fsi     O3 1776   2.682   2.936   1.347
  142fsi     O4 1777   2.688   2.933   1.103
  142fsi     F2 1778   2.756   2.722   1.229
  143fsi     F1 1779   0.888   0.862   1.750
  143fsi     S1 1780   1.001   0.886   1.857
  143fsi      N 1781   1.125   0.896   1.774
  143fsi     O1 1782   0.962   1.009   1.922
  143fsi     O2 1783   0.994   0.769   1.942
  143fsi     S2 1784   1.170   1.030   1.722
  143fsi     O3 1785   1.046   1.101   1.706
  143fsi     O4 1786   1.237   0.994   1.599
  143fsi     F2 1787   1.264   1.083   1.837
  144fsi     F1 1788   1.411   2.168   2.415
  144fsi     S1 1789   1.404   2.271   2.295
  144fsi      N 1790   1.344   2.392   2.358
  144fsi     O1 1791   1.542   2.286   2.254
  144fsi     O2 1792   1.320   2.205   2.197
  144fsi     S2 1793   1.432   2.497   2.420
  144fsi     O3 1794   1.545   2.419   2.465
  144fsi     O4 1795   1.348   2.550   2.525
  144fsi     F2 1796   1.461   2.595   2.301
  145fsi     F1 1797   1.027   1.446   1.875
  145fsi     S1 1798   0.993   1.517   2.011
  145fsi      N 1799   0.994   1.404   2.110
  145fsi     O1 1800   1.099   1.613   2.029
  145fsi     O2 1801   0.863   1.575   1.989
  145fsi     S2 1802   1.121   1.368   2.181
  145fsi     O3 1803   1.222   1.404   2.084
  145fsi     O4 1804   1.105   1.226   2.203
  145fsi     F2 1805   1.117   1.457   2.310
  146fsi     F1 1806   2.542   1.629   2.211
  146fsi     S1 1807   2.612   1.604   2.350
  146fsi      N 1808   2.743   1.542   2.311
  146fsi     O1 1809   2.624   1.735   2.408
  146fsi     O2 1810   2.522   1.516   2.420
  146fsi     S2 1811   2.863   1.628   2.285
  146fsi     O3 1812   2.803   1.750   2.236
  146fsi     O4 1813   2.936   1.552   2.187
  146fsi     F2 1814   2.931   1.639   2.426
  147fsi     F1 1815   1.367   0.463   1.882
  147fsi     S1 1816   1.474   0.577   1.867
  147fsi      N 1817   1.390   0.701   1.862
  147fsi     O1 1818   1.557   0.565   1.985
  147fsi     O2 1819   1.543   0.546   1.744
  147fsi     S2 1820   1.356   0.774   1.989
  147fsi     O3 1821   1.353   0.667   2.086
  147fsi     O4 1822   1.228   0.832   1.958
  147fsi     F2 1823   1.474   0.876   2.005
  148fsi     F1 1824   1.471   1.662   1.805
  148fsi     S1 1825   1.383   1.564   1.891
  148fsi      N 1826   1.258   1.550   1.809
  148fsi     O1 1827   1.462   1.444   1.901
  148fsi     O2 1828   1.365   1.634   2.016
  148fsi     S2 1829   1.248   1.442   1.706
  148fsi     O3 1830   1.385   1.424   1.665
  148fsi     O4 1831   1.161   1.500   1.607
  148fsi     F2 1832   1.186   1.322   1.788
  149fsi     F1 1833   0.479   1.511   2.477
  149fsi     S1 1834   0.361   1.577   2.397
  149fsi      N 1835   0.315   1.687   2.488
  149fsi     O1 1836   0.423   1.623   2.274
  149fsi     O2 1837   0.266   1.471   2.378
  149fsi     S2 1838   0.377   1.824   2.478
  149fsi     O3 1839   0.511   1.794   2.432
  149fsi     O4 1840   0.367   1.872   2.614
  149fsi     F2 1841   0.285   1.897   2.374
  150fsi     F1 1842   0.607   2.072   1.199
  150fsi     S1 1843   0.677   2.107   1.062
  150fsi      N 1844   0.587   2.042   0.961
  150fsi     O1 1845   0.678   2.251   1.059
  150fsi     O2 1846   0.808   2.047   1.074
  150fsi     S2 1847   0.472   2.119   0.903
  150fsi     O3 1848   0.437   2.209   1.010
  150fsi     O4 1849   0.376   2.016   0.875
  150fsi     F2 1850   0.536   2.188   0.776
  151fsi     F1 1851   2.251   1.940   1.019
  151fsi     S1 1852   2.405   1.974   1.024
  151fsi      N 1853   2.455   1.887   1.135
  151fsi     O1 1854   2.453   1.939   0.892
  151fsi     O2 1855   2.409   2.116   1.052
  151fsi     S2 1856   2.504   1.748   1.104
  151fsi     O3 1857   2.425   1.711   0.989
  151fsi     O4 1858   2.474   1.677   1.226
  151fsi     F2 1859   2.658   1.770   1.076
  152fsi     F1 1860   0.886   2.779   0.367
  152fsi     S1 1861   0.944   2.856   0.242
  152fsi      N 1862   1.058   2.934   0.301
  152fsi     O1 1863   0.984   2.750   0.152
  152fsi     O2 1864   0.834   2.936   0.196
  152fsi     S2 1865   1.195   2.874   0.307
  152fsi     O3 1866   1.167   2.733   0.319
  152fsi     O4 1867   1.252   2.936   0.424
  152fsi     F2 1868   1.259   2.918   0.170
  153fsi     F1 1869   0.569   0.844   2.248
  153fsi     S1 1870   0.655   0.743   2.162
  153fsi      N 1871   0.554   0.685   2.068
  153fsi     O1 1872   0.756   0.826   2.101
  153fsi     O2 1873   0.706   0.650   2.260
  153fsi     S2 1874   0.530   0.751   1.935
  153fsi     O3 1875   0.558   0.889   1.962
  153fsi     O4 1876   0.391   0.720   1.909
  153fsi     F2 1877   0.633   0.678   1.841
  154fsi     F1 1878   2.935   0.635   1.240
  154fsi     S1 1879   2.876   0.676   1.099
  154fsi      N 1880   2.923   0.565   1.010
  154fsi     O1 1881   2.734   0.680   1.121
  154fsi     O2 1882   2.936   0.804   1.072
  154fsi     S2 1883   2.838   0.442   0.992
  154fsi     O3 1884   2.769   0.433   1.118
  154fsi     O4 1885   2.936   0.339   0.967
  154fsi     F2 1886   2.748   0.480   0.868
  155fsi     F1 1887   1.435   1.799   0.788
  155fsi     S1 1888   1.508   1.689   0.701
  155fsi      N 1889   1.639   1.671   0.771
  155fsi     O1 1890   1.420   1.575   0.707
  155fsi     O2 1891   1.518   1.749   0.570
  155fsi     S2 1892   1.652   1.569   0.881
  155fsi     O3 1893   1.519   1.565   0.936
  155fsi     O4 1894   1.752   1.627   0.966
  155fsi     F2 1895   1.697   1.440   0.803
  156fsi     F1 1896   1.482   0.875   1.171
  156fsi     S1 1897   1.507   0.720   1.179
  156fsi      N 1898   1.368   0.664   1.183
  156fsi     O1 1899   1.580   0.690   1.058
  156fsi     O2 1900   1.583   0.703   1.300
  156fsi     S2 1901   1.297   0.628   1.056
  156fsi     O3 1902   1.352   0.723   0.962
  156fsi     O4 1903   1.158   0.650   1.090
  156fsi     F2 1904   1.338   0.478   1.033
  157fsi     F1 1905   1.324   1.900   0.149
  157fsi     S1 1906   1.355   1.798   0.266
  157fsi      N 1907   1.482   1.732   0.220
  157fsi     O1 1908   1.369   1.881   0.382
  157fsi     O2 1909   1.240   1.711   0.268
  157fsi     S2 1910   1.615   1.791   0.259
  157fsi     O3 1911   1.585   1.931   0.269
  157fsi     O4 1912   1.699   1.754   0.148
  157fsi     F2 1913   1.647   1.718   0.395
  158fsi     F1 1914   0.277   2.304   0.396
  158fsi     S1 1915   0.422   2.261   0.441
  158fsi      N 1916   0.449   2.139   0.357
  158fsi     O1 1917   0.504   2.375   0.408
  158fsi     O2 1918   0.409   2.236   0.582
  158fsi     S2 1919   0.513   2.153   0.223
  158fsi     O3 1920   0.468   2.283   0.180
  158fsi     O4 1921   0.458   2.041   0.150
  158fsi     F2 1922   0.667   2.142   0.256
  159fsi     F1 1923   1.970   1.503   1.603
  159fsi     S1 1924   1.858   1.546   1.500
  159fsi      N 1925   1.836   1.691   1.533
  159fsi     O1 1926   1.919   1.522   1.371
  159fsi     O2 1927   1.747   1.459   1.530
  159fsi     S2 1928   1.917   1.796   1.464
  159fsi     O3 1929   2.041   1.729   1.437
  159fsi     O4 1930   1.923   1.901   1.563
  159fsi     F2 1931   1.830   1.830   1.337
  160fsi     F1 1932   2.507   0.672   1.777
  160fsi     S1 1933   2.576   0.806   1.822
  160fsi      N 1934   2.723   0.775   1.809
  160fsi     O1 1935   2.527   0.904   1.728
  160fsi     O2 1936   2.530   0.826   1.957
  160fsi     S2 1937   2.794   0.802   1.680
  160fsi     O3 1938   2.690   0.784   1.582
  160fsi     O4 1939   2.897   0.701   1.680
  160fsi     F2 1940   2.845   0.950   1.698
  161fsi     F1 1941   1.246   0.330   2.581
  161fsi     S1 1942   1.112   0.249   2.592
  161fsi      N 1943   1.133   0.164   2.713
  161fsi     O1 1944   1.010   0.351   2.606
  161fsi     O2 1945   1.105   0.176   2.467
  161fsi     S2 1946   1.093   0.215   2.849
  161fsi     O3 1947   1.110   0.358   2.834
  161fsi     O4 1948   1.187   0.150   2.936
  161fsi     F2 1949   0.943   0.167   2.862
  162fsi     F1 1950   1.158   2.824   1.540
  162fsi     S1 1951   1.216   2.824   1.393
  162fsi      N 1952   1.348   2.894   1.409
  162fsi     O1 1953   1.226   2.684   1.360
  162fsi     O2 1954   1.118   2.896   1.316
  162fsi     S2 1955   1.472   2.816   1.439
  162fsi     O3 1956   1.420   2.704   1.515
  162fsi     O4 1957   1.551   2.910   1.515
  162fsi     F2 1958   1.528   2.780   1.297
  163fsi     F1 1959   2.104   0.744   0.824
  163fsi     S1 1960   2.228   0.735   0.727
  163fsi      N 1961   2.171   0.670   0.605
  163fsi     O1 1962   2.268   0.873   0.709
  163fsi     O2 1963   2.324   0.655   0.800
  163fsi     S2 1964   2.113   0.753   0.495
  163fsi     O3 1965   2.064   0.869   0.566
  163fsi     O4 1966   2.011   0.667   0.440
  163fsi     F2 1967   2.236   0.780   0.401
  164fsi     F1 1968   2.436   0.566   0.354
  164fsi     S1 1969   2.504   0.708   0.353
  164fsi      N 1970   2.650   0.676   0.366
  164fsi     O1 1971   2.466   0.764   0.225
  164fsi     O2 1972   2.447   0.776   0.467
  164fsi     S2 1973   2.734   0.654   0.244
  164fsi     O3 1974   2.638   0.600   0.150
  164fsi     O4 1975   2.833   0.560   0.290
  164fsi     F2 1976   2.787   0.798   0.211
  165fsi     F1 1977   1.893   1.078   0.859
  165fsi     S1 1978   1.964   0.940   0.831
  165fsi      N 1979   1.933   0.861   0.955
  165fsi     O1 1980   1.900   0.891   0.711
  165fsi     O2 1981   2.103   0.974   0.815
  165fsi     S2 1982   1.808   0.777   0.962
  165fsi     O3 1983   1.717   0.849   0.876
  165fsi     O4 1984   1.776   0.780   1.102
  165fsi     F2 1985   1.856   0.638   0.907
  166fsi     F1 1986   1.960   2.325   0.967
  166fsi     S1 1987   2.100   2.390   0.997
  166fsi      N 1988   2.063   2.526   1.048
  166fsi     O1 1989   2.159   2.303   1.095
  166fsi     O2 1990   2.167   2.390   0.869
  166fsi     S2 1991   2.040   2.548   1.195
  166fsi     O3 1992   1.991   2.419   1.238
  166fsi     O4 1993   1.943   2.655   1.196
  166fsi     F2 1994   2.184   2.586   1.248
  167fsi     F1 1995   0.471   1.089   2.619
  167fsi     S1 1996   0.429   0.984   2.510
  167fsi      N 1997   0.362   0.877   2.590
  167fsi     O1 1998   0.342   1.058   2.422
  167fsi     O2 1999   0.554   0.945   2.449
  167fsi     S2 2000   0.214   0.884   2.616
  167fsi     O3 2001   0.189   1.026   2.617
  167fsi     O4 2002   0.201   0.818   2.743
  167fsi     F2 2003   0.153   0.806   2.493
  168fsi     F1 2004   0.515   2.272   1.206
  168fsi     S1 2005   0.521   2.427   1.233
  168fsi      N 2006   0.391   2.476   1.176
  168fsi     O1 2007   0.531   2.437   1.377
  168fsi     O2 2008   0.638   2.471   1.162
  168fsi     S2 2009   0.268   2.482   1.262
  168fsi     O3 2010   0.290   2.375   1.356
  168fsi     O4 2011   0.162   2.460   1.167
  168fsi     F2 2012   0.275   2.627   1.323
  169fsi     F1 2013   1.681   1.558   0.246
  169fsi     S1 2014   1.711   1.482   0.381
  169fsi      N 2015   1.773   1.354   0.335
  169fsi     O1 2016   1.800   1.571   0.451
  169fsi     O2 2017   1.581   1.468   0.442
  169fsi     S2 2018   1.922   1.345   0.317
  169fsi     O3 2019   1.957   1.480   0.281
  169fsi     O4 2020   1.935   1.247   0.212
  169fsi     F2 2021   1.972   1.298   0.459
  170fsi     F1 2022   2.190   2.267   1.310
  170fsi     S1 2023   2.101   2.143   1.271
  170fsi      N 2024   2.062   2.087   1.404
  170fsi     O1 2025   1.992   2.201   1.196
  170fsi     O2 2026   2.189   2.059   1.194
  170fsi     S2 2027   1.937   2.134   1.472
  170fsi     O3 2028   1.925   2.270   1.425
  170fsi     O4 2029   1.969   2.119   1.612
  170fsi     F2 2030   1.827   2.035   1.418
  171fsi     F1 2031   2.369   2.086   1.859
  171fsi     S1 2032   2.361   1.935   1.815
  171fsi      N 2033   2.214   1.905   1.822
  171fsi     O1 2034   2.416   1.934   1.681
  171fsi     O2 2035   2.441   1.865   1.912
  171fsi     S2 2036   2.127   1.928   1.702
  171fsi     O3 2037   2.194   2.037   1.635
  171fsi     O4 2038   1.999   1.960   1.761
  171fsi     F2 2039   2.133   1.789   1.627
  172fsi     F1 2040   1.563   2.160   2.069
  172fsi     S1 2041   1.575   2.010   2.023
  172fsi      N 2042   1.444   1.951   2.066
  172fsi     O1 2043   1.594   2.018   1.881
  172fsi     O2 2044   1.690   1.960   2.095
  172fsi     S2 2045   1.327   1.952   1.973
  172fsi     O3 2046   1.350   2.071   1.895
  172fsi     O4 2047   1.215   1.959   2.063
  172fsi     F2 2048   1.342   1.816   1.895
  173fsi     F1 2049   0.638   0.863   1.412
  173fsi     S1 2050   0.619   0.970   1.526
  173fsi      N 2051   0.473   0.961   1.558
  173fsi     O1 2052   0.707   0.924   1.632
  173fsi     O2 2053   0.660   1.094   1.465
  173fsi     S2 2054   0.425   0.865   1.663
  173fsi     O3 2055   0.522   0.759   1.656
  173fsi     O4 2056   0.293   0.831   1.617
  173fsi     F2 2057   0.430   0.952   1.795
  174fsi     F1 2058   1.039   2.079   0.375
  174fsi     S1 2059   1.107   2.145   0.249
  174fsi      N 2060   1.003   2.241   0.201
  174fsi     O1 2061   1.226   2.206   0.301
  174fsi     O2 2062   1.132   2.033   0.160
  174fsi     S2 2063   1.001   2.382   0.252
  174fsi     O3 2064   1.056   2.367   0.385
  174fsi     O4 2065   0.861   2.416   0.247
  174fsi     F2 2066   1.093   2.458   0.150
  175fsi     F1 2067   1.985   1.707   0.154
  175fsi     S1 2068   2.035   1.771   0.289
  175fsi      N 2069   2.157   1.690   0.323
  175fsi     O1 2070   2.062   1.909   0.255
  175fsi     O2 2071   1.924   1.753   0.380
  175fsi     S2 2072   2.291   1.733   0.273
  175fsi     O3 2073   2.259   1.800   0.149
  175fsi     O4 2074   2.361   1.607   0.258
  175fsi     F2 2075   2.344   1.826   0.388
  176fsi     F1 2076   2.417   2.528   0.164
  176fsi     S1 2077   2.419   2.666   0.240
  176fsi      N 2078   2.492   2.634   0.366
  176fsi     O1 2079   2.489   2.754   0.150
  176fsi     O2 2080   2.279   2.697   0.258
  176fsi     S2 2081   2.642   2.648   0.372
  176fsi     O3 2082   2.681   2.621   0.236
  176fsi     O4 2083   2.680   2.548   0.468
  176fsi     F2 2084   2.661   2.797   0.419
  177fsi     F1 2085   2.844   0.896   2.510
  177fsi     S1 2086   2.808   0.799   2.391
  177fsi      N 2087   2.722   0.884   2.303
  177fsi     O1 2088   2.936   0.763   2.335
  177fsi     O2 2089   2.738   0.690   2.455
  177fsi     S2 2090   2.785   0.966   2.194
  177fsi     O3 2091   2.916   0.995   2.248
  177fsi     O4 2092   2.696   1.079   2.183
  177fsi     F2 2093   2.784   0.868   2.070
  178fsi     F1 2094   1.911   1.652   2.046
  178fsi     S1 2095   2.042   1.738   2.045
  178fsi      N 2096   2.151   1.635   2.045
  178fsi     O1 2097   2.033   1.816   1.923
  178fsi     O2 2098   2.033   1.817   2.166
  178fsi     S2 2099   2.205   1.583   1.915
  178fsi     O3 2100   2.091   1.593   1.827
  178fsi     O4 2101   2.244   1.448   1.949
  178fsi     F2 2102   2.323   1.681   1.884
  179fsi     F1 2103   0.980   1.254   0.825
  179fsi     S1 2104   0.967   1.405   0.869
  179fsi      N 2105   0.868   1.399   0.981
  179fsi     O1 2106   1.100   1.442   0.908
  179fsi     O2 2107   0.919   1.472   0.750
  179fsi     S2 2108   0.915   1.380   1.122
  179fsi     O3 2109   1.036   1.303   1.105
  179fsi     O4 2110   0.805   1.309   1.184
  179fsi     F2 2111   0.936   1.528   1.173
  180fsi     F1 2112   1.380   1.342   1.350
  180fsi     S1 2113   1.300   1.207   1.335
  180fsi      N 2114   1.401   1.115   1.271
  180fsi     O1 2115   1.265   1.172   1.470
  180fsi     O2 2116   1.188   1.241   1.251
  180fsi     S2 2117   1.492   1.033   1.357
  180fsi     O3 2118   1.508   1.115   1.474
  180fsi     O4 2119   1.610   1.021   1.274
  180fsi     F2 2120   1.411   0.900   1.377
  181fsi     F1 2121   1.671   1.729   2.522
  181fsi     S1 2122   1.590   1.863   2.498
  181fsi      N 2123   1.698   1.967   2.495
  181fsi     O1 2124   1.524   1.842   2.372
  181fsi     O2 2125   1.501   1.871   2.611
  181fsi     S2 2126   1.765   2.003   2.366
  181fsi     O3 2127   1.757   1.880   2.291
  181fsi     O4 2128   1.897   2.041   2.408
  181fsi     F2 2129   1.675   2.120   2.311
  182fsi     F1 2130   2.402   0.522   2.611
  182fsi     S1 2131   2.440   0.373   2.580
  182fsi      N 2132   2.366   0.345   2.453
  182fsi     O1 2133   2.584   0.376   2.566
  182fsi     O2 2134   2.394   0.300   2.695
  182fsi     S2 2135   2.430   0.372   2.320
  182fsi     O3 2136   2.519   0.482   2.350
  182fsi     O4 2137   2.318   0.404   2.236
  182fsi     F2 2138   2.502   0.236   2.287
  183fsi     F1 2139   2.753   2.490   2.120
  183fsi     S1 2140   2.657   2.585   2.040
  183fsi      N 2141   2.750   2.685   1.981
  183fsi     O1 2142   2.593   2.498   1.944
  183fsi     O2 2143   2.568   2.637   2.141
  183fsi     S2 2144   2.811   2.661   1.846
  183fsi     O3 2145   2.819   2.517   1.840
  183fsi     O4 2146   2.938   2.729   1.855
  183fsi     F2 2147   2.707   2.727   1.747
  184fsi     F1 2148   1.319   2.179   1.083
  184fsi     S1 2149   1.180   2.241   1.123
  184fsi      N 2150   1.199   2.274   1.269
  184fsi     O1 2151   1.167   2.356   1.037
  184fsi     O2 2152   1.086   2.136   1.097
  184fsi     S2 2153   1.252   2.408   1.310
  184fsi     O3 2154   1.336   2.444   1.198
  184fsi     O4 2155   1.321   2.378   1.433
  184fsi     F2 2156   1.121   2.494   1.326
  185fsi     F1 2157   2.161   1.425   2.198
  185fsi     S1 2158   2.301   1.406   2.269
  185fsi      N 2159   2.285   1.275   2.340
  185fsi     O1 2160   2.395   1.405   2.160
  185fsi     O2 2161   2.312   1.521   2.355
  185fsi     S2 2162   2.322   1.147   2.271
  185fsi     O3 2163   2.296   1.178   2.132
  185fsi     O4 2164   2.232   1.052   2.331
  185fsi     F2 2165   2.474   1.129   2.308
  186fsi     F1 2166   1.050   2.580   1.515
  186fsi     S1 2167   1.013   2.466   1.617
  186fsi      N 2168   0.879   2.420   1.569
  186fsi     O1 2169   1.120   2.370   1.602
  186fsi     O2 2170   1.012   2.533   1.745
  186fsi     S2 2171   0.870   2.309   1.469
  186fsi     O3 2172   0.992   2.325   1.393
  186fsi     O4 2173   0.748   2.341   1.398
  186fsi     F2 2174   0.863   2.180   1.558
  187fsi     F1 2175   1.444   1.141   0.166
  187fsi     S1 2176   1.514   1.165   0.305
  187fsi      N 2177   1.620   1.060   0.308
  187fsi     O1 2178   1.563   1.301   0.297
  187fsi     O2 2179   1.408   1.147   0.402
  187fsi     S2 2180   1.757   1.090   0.253
  187fsi     O3 2181   1.729   1.186   0.150
  187fsi     O4 2182   1.801   0.960   0.206
  187fsi     F2 2183   1.834   1.145   0.379
  188fsi     F1 2184   2.931   0.150   1.438
  188fsi     S1 2185   2.869   0.293   1.461
  188fsi      N 2186   2.721   0.267   1.458
  188fsi     O1 2187   2.921   0.334   1.589
  188fsi     O2 2188   2.918   0.371   1.349
  188fsi     S2 2189   2.649   0.235   1.586
  188fsi     O3 2190   2.751   0.168   1.664
  188fsi     O4 2191   2.541   0.150   1.540
  188fsi     F2 2192   2.605   0.376   1.639
  189fsi     F1 2193   2.618   0.178   0.619
  189fsi     S1 2194   2.469   0.225   0.638
  189fsi      N 2195   2.482   0.372   0.662
  189fsi     O1 2196   2.404   0.189   0.515
  189fsi     O2 2197   2.423   0.149   0.753
  189fsi     S2 2198   2.479   0.467   0.546
  189fsi     O3 2199   2.533   0.388   0.438
  189fsi     O4 2200   2.562   0.576   0.591
  189fsi     F2 2201   2.326   0.501   0.533
  190fsi     F1 2202   1.559   1.803   1.949
  190fsi     S1 2203   1.699   1.733   1.965
  190fsi      N 2204   1.714   1.724   2.114
  190fsi     O1 2205   1.683   1.607   1.898
  190fsi     O2 2206   1.791   1.823   1.901
  190fsi     S2 2207   1.664   1.602   2.187
  190fsi     O3 2208   1.553   1.561   2.106
  190fsi     O4 2209   1.629   1.656   2.317
  190fsi     F2 2210   1.789   1.506   2.186
  191fsi     F1 2211   0.802   1.194   0.938
  191fsi     S1 2212   0.657   1.234   0.890
  191fsi      N 2213   0.641   1.157   0.763
  191fsi     O1 2214   0.571   1.191   0.998
  191fsi     O2 2215   0.664   1.377   0.874
  191fsi     S2 2216   0.583   1.018   0.765
  191fsi     O3 2217   0.624   0.970   0.895
  191fsi     O4 2218   0.648   0.955   0.653
  191fsi     F2 2219   0.429   1.044   0.748
  192fsi     F1 2220   1.733   2.719   2.278
  192fsi     S1 2221   1.856   2.806   2.232
  192fsi      N 2222   1.904   2.734   2.109
  192fsi     O1 2223   1.800   2.937   2.207
  192fsi     O2 2224   1.947   2.801   2.344
  192fsi     S2 2225   1.849   2.771   1.974
  192fsi     O3 2226   1.716   2.816   2.006
  192fsi     O4 2227   1.857   2.646   1.902
  192fsi     F2 2228   1.948   2.883   1.925
  193fsi     F1 2229   1.989   1.631   2.814
  193fsi     S1 2230   1.974   1.479   2.854
  193fsi      N 2231   1.843   1.476   2.927
  193fsi     O1 2232   1.975   1.410   2.727
  193fsi     O2 2233   2.090   1.453   2.936
  193fsi     S2 2234   1.716   1.451   2.851
  193fsi     O3 2235   1.745   1.506   2.721
  193fsi     O4 2236   1.619   1.523   2.929
  193fsi     F2 2237   1.703   1.294   2.856
  194fsi     F1 2238   1.116   0.401   0.173
  194fsi     S1 2239   1.152   0.256   0.222
  194fsi      N 2240   1.296   0.242   0.181
  194fsi     O1 2241   1.130   0.261   0.364
  194fsi     O2 2242   1.060   0.171   0.150
  194fsi     S2 2243   1.405   0.282   0.275
  194fsi     O3 2244   1.344   0.389   0.351
  194fsi     O4 2245   1.510   0.324   0.185
  194fsi     F2 2246   1.433   0.150   0.356
  195fsi     F1 2247   2.368   1.554   1.375
  195fsi     S1 2248   2.229   1.617   1.413
  195fsi      N 2249   2.258   1.764   1.417
  195fsi     O1 2250   2.141   1.575   1.306
  195fsi     O2 2251   2.198   1.558   1.541
  195fsi     S2 2252   2.242   1.847   1.293
  195fsi     O3 2253   2.271   1.752   1.188
  195fsi     O4 2254   2.340   1.951   1.311
  195fsi     F2 2255   2.092   1.894   1.301
  196fsi     F1 2256   1.735   0.986   2.369
  196fsi     S1 2257   1.776   1.066   2.498
  196fsi      N 2258   1.908   1.126   2.460
  196fsi     O1 2259   1.669   1.163   2.514
  196fsi     O2 2260   1.782   0.966   2.601
  196fsi     S2 2261   1.914   1.260   2.394
  196fsi     O3 2262   1.790   1.266   2.322
  196fsi     O4 2263   2.033   1.250   2.313
  196fsi     F2 2264   1.925   1.359   2.517
  197fsi     F1 2265   1.029   1.882   1.771
  197fsi     S1 2266   0.943   1.998   1.834
  197fsi      N 2267   1.047   2.099   1.872
  197fsi     O1 2268   0.855   2.039   1.727
  197fsi     O2 2269   0.876   1.936   1.946
  197fsi     S2 2270   1.088   2.206   1.775
  197fsi     O3 2271   1.068   2.140   1.647
  197fsi     O4 2272   1.225   2.231   1.811
  197fsi     F2 2273   0.987   2.323   1.806
  198fsi     F1 2274   2.375   0.147   1.789
  198fsi     S1 2275   2.313   0.290   1.816
  198fsi      N 2276   2.167   0.269   1.789
  198fsi     O1 2277   2.345   0.317   1.954
  198fsi     O2 2278   2.380   0.376   1.722
  198fsi     S2 2279   2.075   0.226   1.900
  198fsi     O3 2280   2.162   0.150   1.985
  198fsi     O4 2281   1.974   0.150   1.830
  198fsi     F2 2282   2.026   0.363   1.959
  199fsi     F1 2283   1.280   0.860   2.736
  199fsi     S1 2284   1.199   0.887   2.869
  199fsi      N 2285   1.065   0.931   2.818
  199fsi     O1 2286   1.199   0.759   2.936
  199fsi     O2 2287   1.275   0.990   2.936
  199fsi     S2 2288   0.958   0.830   2.793
  199fsi     O3 2289   1.033   0.712   2.757
  199fsi     O4 2290   0.882   0.890   2.685
  199fsi     F2 2291   0.883   0.822   2.931
  200fsi     F1 2292   2.457   0.662   1.142
  200fsi     S1 2293   2.468   0.715   1.290
  200fsi      N 2294   2.612   0.756   1.300
  200fsi     O1 2295   2.374   0.824   1.296
  200fsi     O2 2296   2.432   0.601   1.371
  200fsi     S2 2297   2.653   0.896   1.265
  200fsi     O3 2298   2.556   0.933   1.165
  200fsi     O4 2299   2.788   0.878   1.217
  200fsi     F2 2300   2.640   0.972   1.402
   3.08570   3.08570   3.08570
